Process 0 of 1 is on cl088.stfx.acenet.ca - thread support 1
initial socket setup ...start
initial socket setup ...done 
now start server 0 ... 

cmd = /usr/bin/ssh clhead /usr/local/qchem/bin/get_hostid 101435148 > /scratch/tmp/5956105.1.short.q/qchem8998/lic.dat
                  Welcome to Q-Chem
     A Quantum Leap Into The Future Of Chemistry

 Y. Shao, L. Fusti-Molnar, Y. Jung, J. Kussmann, C. Ochsenfeld,
 S. T. Brown, A. T. B. Gilbert, L. V. Slipchenko,S. V. Levchenko,
 D. P. O'Neill, R. A. DiStasio Jr., R. C. Lochan, T. Wang,
 G. J. O. Beran, N. A. Besley, J. M. Herbert, C. Y. Lin,
 T. Van Voorhis, S. H. Chien, A. Sodt, R. P. Steele, 
 V. A. Rassolov, P. E. Maslen, P. P. Korambath, R. D. Adamson,
 B. Austin, J. Baker, E. F. C. Byrd, H. Dachsel, R. J. Doerksen,
 A. Dreuw, B. D. Dunietz, A. D. Dutoi, T. R. Furlani,
 S. R. Gwaltney, A. Heyden, S. Hirata, C.-P. Hsu, G. Kedziora,
 R. Z. Khaliullin, P. Klunzinger, A. M. Lee, M. S. Lee, W. Liang,
 I. Lotan, N. Nair, B. Peters, E. I. Proynov, P. A. Pieniazek, 
 Y. M. Rhee, J. Ritchie, E. Rosta, C. D. Sherrill, 
 A. C. Simmonett, J. E. Subotnik, H. L. Woodcock III,
 W. Zhang, A. T. Bell, A. K. Chakraborty, D. M. Chipman,
 F. J. Keil, A. Warshel, W. J. Hehre, H. F. Schaefer III,
 J. Kong, A. I. Krylov, P. M. W. Gill, M. Head-Gordon,
 Q-Chem, Version 3.1, Q-Chem, Inc., Pittsburgh, PA (2007).

 Additional authors for Version 3.1: 
 Z. Gan, Y. Zhao, N. E. Schultz, D. Truhlar, E. Epifanovsky and M. Oana.

 Additional authors for Version 3.2: 
 R. Baer, B. R. Brooks, D. Casanova, J.-D. Chai, C.-L. Cheng, 
 C. Cramer, D. Crittenden, A. Ghysels, G. Hawkins, E. G. Hohenstein, 
 C. Kelley, W. Kurlancheek, D. Liotard, E. Livshits, P. Manohar, 
 A. Marenich, D. Neuhauser, R. Olson, M. A. Rohrdanz, K. S. Thanthiriwatte, 
 A. J. W. Thom, V. Vanovschi, C. F. Williams, Q. Wu and Z.-Q. You. 


 Intel X86 Linux Version

 Q-chem begins on Tue Apr 30 22:15:34 2013  

 Parallel job on  1  processors
Processing $rem in /usr/local/qchem/config/preferences.

theFileMan(): MAXOPENFILES=974 MAX_SUB_FILE_NUM=16
Maximum size of a physical file is 2.0 GB, maximum size of a tmp-file is 32.0 GB


--------------------------------------------------------------
User input:
--------------------------------------------------------------

$molecule
-1,2
C
C,1,R1
H,1,R2,2,THETA1
H,1,R3,2,THETA2,3,180.,0
H,2,R4,1,THETA3,4,0.,0
C,2,R5,1,THETA4,5,180.,0
H,6,R6,2,THETA5,5,180.,0
X,6,1.,2,THETA6,5,0.,0
H,6,R7,8,THETA7,2,90.,0
H,6,R7,8,THETA7,2,-90.,0

 R1=1.33337529
 R2=1.08851751
 R3=1.08675279
 R4=1.09114675
 R5=1.50216239
 R6=1.09522828
 R7=1.09843254
 THETA1=121.64706661
 THETA2=121.8195312
 THETA3=118.84981094
 THETA4=125.21285063
 THETA5=111.49386433
 THETA6=127.20106315
 THETA7=53.28528043

$end

$comment
negative
$end

$xc_functional
C PBE   1.00
X wPBE  1.00
$end

$rem
SYMMETRY_DECOMPOSITION	0
exchange 		general
LRC_DFT                 true
BASIS                   g3large
omega			310
mem_static              760
max_scf_cycles          200
scf_final_print         1
sym_ignore              true
$end

--------------------------------------------------------------
 Writing REM_CC_EA            9
 ----------------------------------------------------
       Standard Nuclear Orientation (Angstroms)
    I     Atom         X            Y            Z
 ----------------------------------------------------
    1      C       0.000000     0.000000     0.000000
    2      C       0.000000     0.000000     1.333375
    3      H       0.926651     0.000000    -0.571129
    4      H      -0.923428     0.000000    -0.572985
    5      H      -0.955722     0.000000     1.859870
    6      C       1.227290     0.000000     2.199546
    7      H       2.142760     0.000000     1.598347
    8      H       1.250073     0.880528     2.855827
    9      H       1.250073    -0.880528     2.855827
 ----------------------------------------------------
 Nuclear Repulsion Energy =    70.5797413188 hartrees
 There are       13 alpha and       12 beta electrons
 Requested basis set is G3large
 There are 66 shells and 186 basis functions

Total QAlloc Memory Limit   2000 MB
Mega-Array Size       743 MB
MEM_STATIC part       760 MB

                       Distance Matrix (Angstroms)
             C (  1)   C (  2)   H (  3)   H (  4)   H (  5)   C (  6)
   C (  2)  1.333375
   H (  3)  1.088518  2.117975
   H (  4)  1.086753  2.118238  1.850080
   H (  5)  2.091058  1.091147  3.074587  2.433070
   C (  6)  2.518778  1.502162  2.786938  3.508920  2.209280
   H (  7)  2.673226  2.159081  2.487077  3.757153  3.109499  1.095228
   H (  8)  3.239407  2.157747  3.553022  4.154057  2.575420  1.098433
   H (  9)  3.239407  2.157747  3.553022  4.154057  2.575420  1.098433
             H (  7)   H (  8)
   H (  8)  1.775803
   H (  9)  1.775803  1.761056
 
 A cutoff of  1.0D-08 yielded   2100 shell pairs
 There are  16761 function pairs ( 20246 Cartesian)
Evaluating contribution to one-electron hamiltonian from nuclear
 Smallest overlap matrix eigenvalue = 4.60E-05

 Q-Chem warning in module mkSTV.C, line 194:

 Overlap eigenvalue is smaller than square root of threshold

 Multipole matrices computed through 2nd order

  Scale SEOQF with 1.000000e-01/1.000000e-01/1.000000e-01

 Standard Electronic Orientation quadrupole field applied
 Nucleus-field energy     =    -0.0000000059 hartrees
 Guess from superposition of atomic densities
 Warning:  Energy on first SCF cycle will be non-variational
 Long-range K will be added via erf
 Coulomb attenuation parameter = 0.31 bohr**(-1)
 An unrestricted Kohn-Sham SCF calculation will be
 performed using Pulay DIIS extrapolation
 Exchange:  wPBE + LR-HF      Correlation:  PBE
 Using SG-1 standard quadrature grid
 SCF converges when DIIS error is below 1.0E-05
 Requested basis set is G3large
 There are 66 shells and 186 basis functions
 A cutoff of  1.0D-08 yielded   2100 shell pairs
 There are  16761 function pairs ( 20246 Cartesian)
 Warning!  Inaccurate integrated density:
   Number of electrons =    25
   Numerical integral  =    23.999961452623
   Relative error      =    -4.0001541895 %
 ---------------------------------------
  Cycle       Energy         DIIS Error
 ---------------------------------------
    1    -118.4431692151      3.12E-02
    2    -117.5864830877      5.48E-03
    3    -117.5407079813      7.04E-03
    4    -117.7856722314      1.53E-03
    5    -117.8022311762      2.94E-04
    6    -117.8033686506      1.44E-04
    7    -117.8037591285      4.62E-05
    8    -117.8039713591      2.71E-05
    9    -117.8041200042      1.90E-05
   10    -117.8042009395      1.25E-05
   11    -117.8042585010      9.87E-06 Convergence criterion met
 ---------------------------------------
 One-Electron    Energy =  -299.7623476473
 Total Coulomb   Energy =   129.8313789614
 Alpha Exchange  Energy =    -1.9718777294
 Beta  Exchange  Energy =    -1.9112554428
 DFT   Exchange  Energy =   -13.8057548178
 DFT Correlation Energy =    -0.7641431379
 Nuclear Repu.   Energy =    70.5797413129
 Nuclear Attr.   Energy =  -417.0280069158
 Kinetic         Energy =   117.2656592685
 <S^2> = 0.7501
 SCF time:  CPU 129.49 s  wall 131.47 s
 Final Alpha MO Eigenvalues
            1           2           3           4           5           6
    1  -9.9333605  -9.9181225  -9.9082950  -0.7619387  -0.6579567  -0.5296840
            7           8           9          10          11          12
    1  -0.4419061  -0.3909967  -0.3750851  -0.3325494  -0.3112025  -0.2306467
           13          14          15          16          17          18
    1   0.0299616   0.1332806   0.1354419   0.1542981   0.1603111   0.1798321
 Final Beta MO Eigenvalues
            1           2           3           4           5           6
    1  -9.9332197  -9.9180639  -9.9077862  -0.7615543  -0.6571114  -0.5288703
            7           8           9          10          11          12
    1  -0.4411503  -0.3904228  -0.3743048  -0.3319317  -0.3103370  -0.2303935
           13          14          15          16          17
    1   0.1304916   0.1441053   0.1478500   0.1655931   0.1684544
 Analysis of SCF Wavefunction
 
 --------------------------------------------------------------
                    Orbital Energies (a.u.)
 --------------------------------------------------------------
 
 Alpha MOs
 -- Occupied --
 -9.933  -9.918  -9.908  -0.762  -0.658  -0.530  -0.442  -0.391
 -0.375  -0.333  -0.311  -0.231   0.030
 -- Virtual --
  0.133   0.135   0.154   0.160   0.180   0.195   0.235   0.244
  0.261   0.264   0.269   0.279   0.298   0.301   0.306   0.310
  0.323   0.335   0.384   0.391   0.393   0.409   0.455   0.482
  0.543   0.578   0.628   0.647   0.658   0.691   0.713   0.722
  0.738   0.741   0.768   0.774   0.782   0.812   0.842   0.859
  0.862   0.876   0.891   0.913   0.951   0.986   1.011   1.035
  1.094   1.133   1.151   1.159   1.223   1.234   1.308   1.324
  1.350   1.381   1.382   1.426   1.439   1.461   1.523   1.530
  1.557   1.610   1.631   1.658   1.663   1.690   1.727   1.737
  1.737   1.787   1.838   1.938   2.083   2.590   2.602   2.717
  2.763   2.801   2.872   2.876   2.892   2.948   2.949   3.016
  3.053   3.064   3.066   3.157   3.212   3.221   3.285   3.293
  3.307   3.349   3.352   3.385   3.423   3.437   3.470   3.471
  3.504   3.567   3.575   3.602   3.641   3.713   3.784   3.833
  3.867   3.869   3.926   3.973   4.018   4.030   4.085   4.112
  4.202   4.241   4.290   4.328   4.374   4.421   4.431   4.448
  4.507   4.554   4.616   4.677   4.682   4.755   4.831   4.864
  4.924   4.982   5.312   5.394   5.628   5.707   5.827   5.839
  5.857   6.158  24.002  24.357  24.786  27.350  27.555  27.866
 28.194  28.209  28.259  28.306  28.432  28.639  40.931  41.022
 41.040  41.058  41.113  41.221  41.229  41.263  41.291  41.333
 41.337  41.368  41.370  41.406  41.452
 
 Beta MOs
 -- Occupied --
 -9.933  -9.918  -9.908  -0.762  -0.657  -0.529  -0.441  -0.390
 -0.374  -0.332  -0.310  -0.230
 -- Virtual --
  0.130   0.144   0.148   0.166   0.168   0.182   0.194   0.233
  0.242   0.258   0.260   0.265   0.282   0.294   0.299   0.302
  0.307   0.321   0.332   0.381   0.389   0.393   0.408   0.454
  0.476   0.541   0.577   0.626   0.645   0.656   0.690   0.712
  0.721   0.737   0.742   0.767   0.773   0.780   0.811   0.842
  0.859   0.861   0.873   0.891   0.912   0.951   0.986   1.011
  1.035   1.095   1.133   1.152   1.159   1.223   1.235   1.309
  1.324   1.350   1.381   1.382   1.426   1.439   1.462   1.523
  1.529   1.557   1.610   1.631   1.659   1.663   1.691   1.727
  1.737   1.738   1.788   1.838   1.939   2.083   2.590   2.602
  2.717   2.763   2.801   2.872   2.876   2.892   2.948   2.950
  3.016   3.053   3.064   3.066   3.157   3.213   3.222   3.286
  3.294   3.307   3.350   3.352   3.385   3.424   3.438   3.470
  3.472   3.504   3.567   3.575   3.602   3.641   3.714   3.785
  3.833   3.867   3.869   3.926   3.973   4.019   4.030   4.086
  4.113   4.202   4.241   4.290   4.328   4.374   4.421   4.431
  4.449   4.507   4.554   4.617   4.678   4.683   4.756   4.831
  4.864   4.924   4.983   5.312   5.394   5.629   5.707   5.828
  5.840   5.857   6.158  24.002  24.358  24.787  27.350  27.555
 27.866  28.194  28.210  28.259  28.307  28.433  28.640  40.931
 41.022  41.041  41.058  41.113  41.221  41.229  41.263  41.292
 41.333  41.337  41.368  41.371  41.407  41.452
 --------------------------------------------------------------
 
          Ground-State Mulliken Net Atomic Charges

     Atom                 Charge (a.u.)    Spin (a.u.)
  --------------------------------------------------------
      1 C                     1.230165      -1.693940
      2 C                    -2.834302       3.053777
      3 H                    -0.500638       0.597159
      4 H                     0.168381      -0.106175
      5 H                    -1.376771       1.521635
      6 C                     5.056029      -5.361587
      7 H                    -0.970223       1.057282
      8 H                    -0.873016       0.952213
      9 H                    -0.899624       0.979636
  --------------------------------------------------------
  Sum of atomic charges =    -1.000000
  Sum of spin   charges =     1.000000

 -----------------------------------------------------------------
                    Cartesian Multipole Moments
 -----------------------------------------------------------------
    Charge (ESU x 10^10)
                -4.8032
    Dipole Moment (Debye)
         X      -4.7525      Y       0.0876      Z     -12.1575
       Tot      13.0537
    Quadrupole Moments (Debye-Ang)
        XX     -53.9195     XY       0.0685     YY     -47.8501
        XZ     -11.0706     YZ       0.3175     ZZ     -78.6774
    Octapole Moments (Debye-Ang^2)
       XXX    -112.7605    XXY       0.3802    XYY     -33.4762
       YYY       1.0098    XXZ    -101.9132    XYZ       0.2667
       YYZ     -89.9566    XZZ     -63.7505    YZZ       1.2666
       ZZZ    -344.7440
    Hexadecapole Moments (Debye-Ang^3)
      XXXX    -699.1150   XXXY       0.8650   XXYY    -163.4594
      XYYY       0.8731   YYYY    -339.7121   XXXZ    -233.7518
      XXYZ       1.3018   XYYZ     -78.5578   YYYZ       3.2365
      XXZZ    -419.1165   XYZZ       1.1723   YYZZ    -331.6089
      XZZZ    -314.2356   YZZZ       5.8202   ZZZZ   -1805.4065
 -----------------------------------------------------------------
 Total job time:  131.71s(wall), 129.70s(cpu) 
 Tue Apr 30 22:17:45 2013

        *************************************************************
        *                                                           *
        *  Thank you very much for using Q-Chem.  Have a nice day.  *
        *                                                           *
        *************************************************************


0 sent ACK to 0 
now end server 0 ... 
 
**********************************************************************
Job 2 of 3 
**********************************************************************
 
Process 0 of 1 is on cl088.stfx.acenet.ca - thread support 1
initial socket setup ...start
initial socket setup ...done 
now start server 0 ... 

cmd = /usr/bin/ssh clhead /usr/local/qchem/bin/get_hostid 916633656 > /scratch/tmp/5956105.1.short.q/qchem8998/lic.dat
                  Welcome to Q-Chem
     A Quantum Leap Into The Future Of Chemistry

 Y. Shao, L. Fusti-Molnar, Y. Jung, J. Kussmann, C. Ochsenfeld,
 S. T. Brown, A. T. B. Gilbert, L. V. Slipchenko,S. V. Levchenko,
 D. P. O'Neill, R. A. DiStasio Jr., R. C. Lochan, T. Wang,
 G. J. O. Beran, N. A. Besley, J. M. Herbert, C. Y. Lin,
 T. Van Voorhis, S. H. Chien, A. Sodt, R. P. Steele, 
 V. A. Rassolov, P. E. Maslen, P. P. Korambath, R. D. Adamson,
 B. Austin, J. Baker, E. F. C. Byrd, H. Dachsel, R. J. Doerksen,
 A. Dreuw, B. D. Dunietz, A. D. Dutoi, T. R. Furlani,
 S. R. Gwaltney, A. Heyden, S. Hirata, C.-P. Hsu, G. Kedziora,
 R. Z. Khaliullin, P. Klunzinger, A. M. Lee, M. S. Lee, W. Liang,
 I. Lotan, N. Nair, B. Peters, E. I. Proynov, P. A. Pieniazek, 
 Y. M. Rhee, J. Ritchie, E. Rosta, C. D. Sherrill, 
 A. C. Simmonett, J. E. Subotnik, H. L. Woodcock III,
 W. Zhang, A. T. Bell, A. K. Chakraborty, D. M. Chipman,
 F. J. Keil, A. Warshel, W. J. Hehre, H. F. Schaefer III,
 J. Kong, A. I. Krylov, P. M. W. Gill, M. Head-Gordon,
 Q-Chem, Version 3.1, Q-Chem, Inc., Pittsburgh, PA (2007).

 Additional authors for Version 3.1: 
 Z. Gan, Y. Zhao, N. E. Schultz, D. Truhlar, E. Epifanovsky and M. Oana.

 Additional authors for Version 3.2: 
 R. Baer, B. R. Brooks, D. Casanova, J.-D. Chai, C.-L. Cheng, 
 C. Cramer, D. Crittenden, A. Ghysels, G. Hawkins, E. G. Hohenstein, 
 C. Kelley, W. Kurlancheek, D. Liotard, E. Livshits, P. Manohar, 
 A. Marenich, D. Neuhauser, R. Olson, M. A. Rohrdanz, K. S. Thanthiriwatte, 
 A. J. W. Thom, V. Vanovschi, C. F. Williams, Q. Wu and Z.-Q. You. 


 Intel X86 Linux Version

 Q-chem begins on Tue Apr 30 22:17:48 2013  

 Parallel job on  1  processors
Processing $rem in /usr/local/qchem/config/preferences.

theFileMan(): MAXOPENFILES=974 MAX_SUB_FILE_NUM=16
Maximum size of a physical file is 2.0 GB, maximum size of a tmp-file is 32.0 GB


--------------------------------------------------------------
User input:
--------------------------------------------------------------

$molecule
0,1
C
C,1,R1
H,1,R2,2,THETA1
H,1,R3,2,THETA2,3,180.,0
H,2,R4,1,THETA3,4,0.,0
C,2,R5,1,THETA4,5,180.,0
H,6,R6,2,THETA5,5,180.,0
X,6,1.,2,THETA6,5,0.,0
H,6,R7,8,THETA7,2,90.,0
H,6,R7,8,THETA7,2,-90.,0

 R1=1.33337529
 R2=1.08851751
 R3=1.08675279
 R4=1.09114675
 R5=1.50216239
 R6=1.09522828
 R7=1.09843254
 THETA1=121.64706661
 THETA2=121.8195312
 THETA3=118.84981094
 THETA4=125.21285063
 THETA5=111.49386433
 THETA6=127.20106315
 THETA7=53.28528043

$end

$comment
neutral
$end

$xc_functional
C PBE   1.00
X wPBE  1.00
$end


$rem
SYMMETRY_DECOMPOSITION	0
LRC_DFT                 true
exchange 		general
BASIS                   g3large
omega			310
mem_static              760
max_scf_cycles          200
scf_final_print         1
sym_ignore              true
$end

--------------------------------------------------------------
 Writing REM_CC_EA            9
 ----------------------------------------------------
       Standard Nuclear Orientation (Angstroms)
    I     Atom         X            Y            Z
 ----------------------------------------------------
    1      C       0.000000     0.000000     0.000000
    2      C       0.000000     0.000000     1.333375
    3      H       0.926651     0.000000    -0.571129
    4      H      -0.923428     0.000000    -0.572985
    5      H      -0.955722     0.000000     1.859870
    6      C       1.227290     0.000000     2.199546
    7      H       2.142760     0.000000     1.598347
    8      H       1.250073     0.880528     2.855827
    9      H       1.250073    -0.880528     2.855827
 ----------------------------------------------------
 Nuclear Repulsion Energy =    70.5797413188 hartrees
 There are       12 alpha and       12 beta electrons
 Requested basis set is G3large
 There are 66 shells and 186 basis functions

Total QAlloc Memory Limit   2000 MB
Mega-Array Size       743 MB
MEM_STATIC part       760 MB

                       Distance Matrix (Angstroms)
             C (  1)   C (  2)   H (  3)   H (  4)   H (  5)   C (  6)
   C (  2)  1.333375
   H (  3)  1.088518  2.117975
   H (  4)  1.086753  2.118238  1.850080
   H (  5)  2.091058  1.091147  3.074587  2.433070
   C (  6)  2.518778  1.502162  2.786938  3.508920  2.209280
   H (  7)  2.673226  2.159081  2.487077  3.757153  3.109499  1.095228
   H (  8)  3.239407  2.157747  3.553022  4.154057  2.575420  1.098433
   H (  9)  3.239407  2.157747  3.553022  4.154057  2.575420  1.098433
             H (  7)   H (  8)
   H (  8)  1.775803
   H (  9)  1.775803  1.761056
 
 A cutoff of  1.0D-08 yielded   2100 shell pairs
 There are  16761 function pairs ( 20246 Cartesian)
Evaluating contribution to one-electron hamiltonian from nuclear
 Smallest overlap matrix eigenvalue = 4.60E-05

 Q-Chem warning in module mkSTV.C, line 194:

 Overlap eigenvalue is smaller than square root of threshold

 Multipole matrices computed through 2nd order

  Scale SEOQF with 1.000000e-01/1.000000e-01/1.000000e-01

 Standard Electronic Orientation quadrupole field applied
 Nucleus-field energy     =    -0.0000000059 hartrees
 Guess from superposition of atomic densities
 Warning:  Energy on first SCF cycle will be non-variational
 Long-range K will be added via erf
 Coulomb attenuation parameter = 0.31 bohr**(-1)
 A restricted Kohn-Sham SCF calculation will be
 performed using Pulay DIIS extrapolation
 Exchange:  wPBE + LR-HF      Correlation:  PBE
 Using SG-1 standard quadrature grid
 SCF converges when DIIS error is below 1.0E-05
 Requested basis set is G3large
 There are 66 shells and 186 basis functions
 A cutoff of  1.0D-08 yielded   2100 shell pairs
 There are  16761 function pairs ( 20246 Cartesian)
 ---------------------------------------
  Cycle       Energy         DIIS Error
 ---------------------------------------
    1    -118.4431692151      3.12E-02
    2    -117.7936596087      3.00E-03
    3    -117.8221872375      1.90E-03
    4    -117.8373935006      2.15E-04
    5    -117.8379163171      5.43E-05
    6    -117.8379532840      2.51E-05
    7    -117.8379565756      1.29E-05
    8    -117.8379596772      2.08E-06 Convergence criterion met
 ---------------------------------------
 One-Electron    Energy =  -296.6706865706
 Total Coulomb   Energy =   126.6334234909
 Alpha Exchange  Energy =    -1.9122582403
 Beta  Exchange  Energy =    -1.9122582403
 DFT   Exchange  Energy =   -13.7987663798
 DFT Correlation Energy =    -0.7571550499
 Nuclear Repu.   Energy =    70.5797413129
 Nuclear Attr.   Energy =  -413.8750295865
 Kinetic         Energy =   117.2043430159
 SCF time:  CPU 72.02 s  wall 73.38 s
 Final Alpha MO Eigenvalues
            1           2           3           4           5           6
    1 -10.0594434 -10.0489032 -10.0425278  -0.8911347  -0.7896759  -0.6570078
            7           8           9          10          11          12
    1  -0.5687633  -0.5196669  -0.5133773  -0.4665288  -0.4388067  -0.3572878
           13          14          15          16          17
    1   0.0388238   0.0563366   0.0580479   0.0687939   0.0782008
 Analysis of SCF Wavefunction
 
 --------------------------------------------------------------
                    Orbital Energies (a.u.)
 --------------------------------------------------------------
 
 Alpha MOs
 -- Occupied --
-10.059 -10.049 -10.043  -0.891  -0.790  -0.657  -0.569  -0.520
 -0.513  -0.467  -0.439  -0.357
 -- Virtual --
  0.039   0.056   0.058   0.069   0.078   0.082   0.092   0.133
  0.143   0.151   0.156   0.167   0.175   0.195   0.195   0.199
  0.207   0.216   0.225   0.262   0.265   0.278   0.293   0.334
  0.360   0.426   0.457   0.505   0.517   0.539   0.560   0.592
  0.593   0.613   0.616   0.645   0.647   0.657   0.687   0.728
  0.732   0.734   0.747   0.765   0.791   0.829   0.859   0.878
  0.909   0.954   1.014   1.023   1.033   1.099   1.105   1.176
  1.195   1.218   1.249   1.251   1.296   1.315   1.330   1.389
  1.398   1.431   1.478   1.503   1.523   1.530   1.570   1.604
  1.605   1.611   1.652   1.716   1.806   1.956   2.463   2.465
  2.587   2.630   2.674   2.744   2.748   2.766   2.822   2.823
  2.888   2.924   2.935   2.935   3.020   3.087   3.097   3.155
  3.164   3.174   3.214   3.226   3.255   3.289   3.305   3.343
  3.345   3.377   3.439   3.445   3.472   3.513   3.576   3.654
  3.705   3.738   3.740   3.795   3.844   3.885   3.900   3.950
  3.977   4.069   4.111   4.165   4.202   4.244   4.290   4.299
  4.313   4.375   4.420   4.483   4.546   4.552   4.618   4.700
  4.731   4.797   4.856   5.185   5.266   5.499   5.581   5.699
  5.701   5.720   6.032  23.876  24.218  24.661  27.225  27.429
 27.732  28.053  28.072  28.133  28.181  28.306  28.508  40.806
 40.886  40.908  40.933  40.974  41.096  41.104  41.137  41.152
 41.206  41.208  41.230  41.241  41.275  41.325
 --------------------------------------------------------------
 
          Ground-State Mulliken Net Atomic Charges

     Atom                 Charge (a.u.)
  ----------------------------------------
      1 C                    -0.420789
      2 C                     0.157282
      3 H                     0.098926
      4 H                     0.086887
      5 H                     0.133655
      6 C                    -0.285930
      7 H                     0.090112
      8 H                     0.069932
      9 H                     0.069926
  ----------------------------------------
  Sum of atomic charges =     0.000000

 -----------------------------------------------------------------
                    Cartesian Multipole Moments
 -----------------------------------------------------------------
    Charge (ESU x 10^10)
                 0.0000
    Dipole Moment (Debye)
         X       0.1577      Y       0.0000      Z       0.3822
       Tot       0.4135
    Quadrupole Moments (Debye-Ang)
        XX     -19.0166     XY      -0.0002     YY     -21.9135
        XZ       0.1919     YZ       0.0000     ZZ     -18.0285
    Octapole Moments (Debye-Ang^2)
       XXX     -27.4588    XXY      -0.0001    XYY      -8.8359
       YYY      -0.0002    XXZ     -24.2790    XYZ      -0.0001
       YYZ     -24.0418    XZZ      -8.9150    YZZ       0.0000
       ZZZ     -68.1723
    Hexadecapole Moments (Debye-Ang^3)
      XXXX    -114.2886   XXXY      -0.0005   XXYY     -25.7239
      XYYY      -0.0002   YYYY     -32.9204   XXXZ     -64.6297
      XXYZ      -0.0001   XYYZ     -19.3528   YYYZ       0.0000
      XXZZ     -74.0361   XYZZ      -0.0007   YYZZ     -57.4415
      XZZZ     -61.5470   YZZZ      -0.0002   ZZZZ    -323.0390
 -----------------------------------------------------------------
 Total job time:  73.65s(wall), 72.21s(cpu) 
 Tue Apr 30 22:19:02 2013

        *************************************************************
        *                                                           *
        *  Thank you very much for using Q-Chem.  Have a nice day.  *
        *                                                           *
        *************************************************************


0 sent ACK to 0 
now end server 0 ... 
 
**********************************************************************
Job 3 of 3 
**********************************************************************
 
Process 0 of 1 is on cl088.stfx.acenet.ca - thread support 1
initial socket setup ...start
initial socket setup ...done 
now start server 0 ... 

cmd = /usr/bin/ssh clhead /usr/local/qchem/bin/get_hostid 1423779400 > /scratch/tmp/5956105.1.short.q/qchem8998/lic.dat
                  Welcome to Q-Chem
     A Quantum Leap Into The Future Of Chemistry

 Y. Shao, L. Fusti-Molnar, Y. Jung, J. Kussmann, C. Ochsenfeld,
 S. T. Brown, A. T. B. Gilbert, L. V. Slipchenko,S. V. Levchenko,
 D. P. O'Neill, R. A. DiStasio Jr., R. C. Lochan, T. Wang,
 G. J. O. Beran, N. A. Besley, J. M. Herbert, C. Y. Lin,
 T. Van Voorhis, S. H. Chien, A. Sodt, R. P. Steele, 
 V. A. Rassolov, P. E. Maslen, P. P. Korambath, R. D. Adamson,
 B. Austin, J. Baker, E. F. C. Byrd, H. Dachsel, R. J. Doerksen,
 A. Dreuw, B. D. Dunietz, A. D. Dutoi, T. R. Furlani,
 S. R. Gwaltney, A. Heyden, S. Hirata, C.-P. Hsu, G. Kedziora,
 R. Z. Khaliullin, P. Klunzinger, A. M. Lee, M. S. Lee, W. Liang,
 I. Lotan, N. Nair, B. Peters, E. I. Proynov, P. A. Pieniazek, 
 Y. M. Rhee, J. Ritchie, E. Rosta, C. D. Sherrill, 
 A. C. Simmonett, J. E. Subotnik, H. L. Woodcock III,
 W. Zhang, A. T. Bell, A. K. Chakraborty, D. M. Chipman,
 F. J. Keil, A. Warshel, W. J. Hehre, H. F. Schaefer III,
 J. Kong, A. I. Krylov, P. M. W. Gill, M. Head-Gordon,
 Q-Chem, Version 3.1, Q-Chem, Inc., Pittsburgh, PA (2007).

 Additional authors for Version 3.1: 
 Z. Gan, Y. Zhao, N. E. Schultz, D. Truhlar, E. Epifanovsky and M. Oana.

 Additional authors for Version 3.2: 
 R. Baer, B. R. Brooks, D. Casanova, J.-D. Chai, C.-L. Cheng, 
 C. Cramer, D. Crittenden, A. Ghysels, G. Hawkins, E. G. Hohenstein, 
 C. Kelley, W. Kurlancheek, D. Liotard, E. Livshits, P. Manohar, 
 A. Marenich, D. Neuhauser, R. Olson, M. A. Rohrdanz, K. S. Thanthiriwatte, 
 A. J. W. Thom, V. Vanovschi, C. F. Williams, Q. Wu and Z.-Q. You. 


 Intel X86 Linux Version

 Q-chem begins on Tue Apr 30 22:19:05 2013  

 Parallel job on  1  processors
Processing $rem in /usr/local/qchem/config/preferences.

theFileMan(): MAXOPENFILES=974 MAX_SUB_FILE_NUM=16
Maximum size of a physical file is 2.0 GB, maximum size of a tmp-file is 32.0 GB


--------------------------------------------------------------
User input:
--------------------------------------------------------------

$molecule
1,2
C
C,1,R1
H,1,R2,2,THETA1
H,1,R3,2,THETA2,3,180.,0
H,2,R4,1,THETA3,4,0.,0
C,2,R5,1,THETA4,5,180.,0
H,6,R6,2,THETA5,5,180.,0
X,6,1.,2,THETA6,5,0.,0
H,6,R7,8,THETA7,2,90.,0
H,6,R7,8,THETA7,2,-90.,0

 R1=1.33337529
 R2=1.08851751
 R3=1.08675279
 R4=1.09114675
 R5=1.50216239
 R6=1.09522828
 R7=1.09843254
 THETA1=121.64706661
 THETA2=121.8195312
 THETA3=118.84981094
 THETA4=125.21285063
 THETA5=111.49386433
 THETA6=127.20106315
 THETA7=53.28528043

$end

$comment
positive
$end

$xc_functional
C PBE   1.00
X wPBE  1.00
$end

$rem
SYMMETRY_DECOMPOSITION	0
LRC_DFT                 true
exchange 		general
BASIS                   g3large
omega			310
mem_static              760
max_scf_cycles          200
scf_final_print         1
sym_ignore              true
$end

--------------------------------------------------------------
 Writing REM_CC_EA            9
 ----------------------------------------------------
       Standard Nuclear Orientation (Angstroms)
    I     Atom         X            Y            Z
 ----------------------------------------------------
    1      C       0.000000     0.000000     0.000000
    2      C       0.000000     0.000000     1.333375
    3      H       0.926651     0.000000    -0.571129
    4      H      -0.923428     0.000000    -0.572985
    5      H      -0.955722     0.000000     1.859870
    6      C       1.227290     0.000000     2.199546
    7      H       2.142760     0.000000     1.598347
    8      H       1.250073     0.880528     2.855827
    9      H       1.250073    -0.880528     2.855827
 ----------------------------------------------------
 Nuclear Repulsion Energy =    70.5797413188 hartrees
 There are       12 alpha and       11 beta electrons
 Requested basis set is G3large
 There are 66 shells and 186 basis functions

Total QAlloc Memory Limit   2000 MB
Mega-Array Size       743 MB
MEM_STATIC part       760 MB

                       Distance Matrix (Angstroms)
             C (  1)   C (  2)   H (  3)   H (  4)   H (  5)   C (  6)
   C (  2)  1.333375
   H (  3)  1.088518  2.117975
   H (  4)  1.086753  2.118238  1.850080
   H (  5)  2.091058  1.091147  3.074587  2.433070
   C (  6)  2.518778  1.502162  2.786938  3.508920  2.209280
   H (  7)  2.673226  2.159081  2.487077  3.757153  3.109499  1.095228
   H (  8)  3.239407  2.157747  3.553022  4.154057  2.575420  1.098433
   H (  9)  3.239407  2.157747  3.553022  4.154057  2.575420  1.098433
             H (  7)   H (  8)
   H (  8)  1.775803
   H (  9)  1.775803  1.761056
 
 A cutoff of  1.0D-08 yielded   2100 shell pairs
 There are  16761 function pairs ( 20246 Cartesian)
Evaluating contribution to one-electron hamiltonian from nuclear
 Smallest overlap matrix eigenvalue = 4.60E-05

 Q-Chem warning in module mkSTV.C, line 194:

 Overlap eigenvalue is smaller than square root of threshold

 Multipole matrices computed through 2nd order

  Scale SEOQF with 1.000000e-01/1.000000e-01/1.000000e-01

 Standard Electronic Orientation quadrupole field applied
 Nucleus-field energy     =    -0.0000000059 hartrees
 Guess from superposition of atomic densities
 Warning:  Energy on first SCF cycle will be non-variational
 Long-range K will be added via erf
 Coulomb attenuation parameter = 0.31 bohr**(-1)
 An unrestricted Kohn-Sham SCF calculation will be
 performed using Pulay DIIS extrapolation
 Exchange:  wPBE + LR-HF      Correlation:  PBE
 Using SG-1 standard quadrature grid
 SCF converges when DIIS error is below 1.0E-05
 Requested basis set is G3large
 There are 66 shells and 186 basis functions
 A cutoff of  1.0D-08 yielded   2100 shell pairs
 There are  16761 function pairs ( 20246 Cartesian)
 Warning!  Inaccurate integrated density:
   Number of electrons =    23
   Numerical integral  =    23.999961452623
   Relative error      =     4.3476584897 %
 ---------------------------------------
  Cycle       Energy         DIIS Error
 ---------------------------------------
    1    -118.4431692151      3.12E-02
    2    -117.4335640791      2.14E-03
    3    -117.4651909456      1.13E-03
    4    -117.4728626543      4.62E-04
    5    -117.4752718094      1.11E-04
    6    -117.4760001267      5.37E-05
    7    -117.4762032045      2.26E-05
    8    -117.4762443317      9.73E-06 Convergence criterion met
 ---------------------------------------
 One-Electron    Energy =  -290.1080666982
 Total Coulomb   Energy =   120.1461722952
 Alpha Exchange  Energy =    -1.9217616979
 Beta  Exchange  Energy =    -1.7658682920
 DFT   Exchange  Energy =   -13.6876875136
 DFT Correlation Energy =    -0.7187737380
 Nuclear Repu.   Energy =    70.5797413129
 Nuclear Attr.   Energy =  -407.1624897721
 Kinetic         Energy =   117.0544230738
 <S^2> = 0.7530
 SCF time:  CPU 93.01 s  wall 93.81 s
 Final Alpha MO Eigenvalues
            1           2           3           4           5           6
    1 -10.3800870 -10.3684426 -10.2825106  -1.1964705  -1.0544471  -0.9309169
            7           8           9          10          11          12
    1  -0.8475866  -0.7954154  -0.7670922  -0.7159625  -0.6961861  -0.6707495
           13          14          15          16          17
    1  -0.2087577  -0.1073159  -0.0856493  -0.0784658  -0.0644898
 Final Beta MO Eigenvalues
            1           2           3           4           5           6
    1 -10.3749528 -10.3601012 -10.2821814  -1.1676551  -1.0421006  -0.9194824
            7           8           9          10          11          12
    1  -0.8396372  -0.7888953  -0.7330489  -0.7114095  -0.6940597  -0.3644690
           13          14          15          16
    1  -0.1466693  -0.1057198  -0.0846287  -0.0774078
 Analysis of SCF Wavefunction
 
 --------------------------------------------------------------
                    Orbital Energies (a.u.)
 --------------------------------------------------------------
 
 Alpha MOs
 -- Occupied --
-10.380 -10.368 -10.283  -1.196  -1.054  -0.931  -0.848  -0.795
 -0.767  -0.716  -0.696  -0.671
 -- Virtual --
 -0.209  -0.107  -0.086  -0.078  -0.064  -0.051  -0.038  -0.029
 -0.029  -0.012  -0.004   0.004   0.017   0.031   0.035   0.037
  0.048   0.050   0.069   0.081   0.082   0.098   0.115   0.126
  0.190   0.229   0.231   0.294   0.314   0.330   0.345   0.354
  0.362   0.365   0.386   0.404   0.434   0.455   0.456   0.497
  0.499   0.503   0.510   0.546   0.561   0.592   0.627   0.663
  0.678   0.746   0.780   0.785   0.798   0.857   0.869   0.948
  0.957   0.992   1.018   1.024   1.068   1.080   1.089   1.160
  1.172   1.198   1.240   1.265   1.300   1.318   1.332   1.358
  1.370   1.370   1.447   1.462   1.566   1.705   2.208   2.217
  2.327   2.385   2.415   2.437   2.444   2.462   2.522   2.542
  2.586   2.636   2.647   2.662   2.779   2.797   2.803   2.881
  2.883   2.924   2.934   2.961   2.984   3.036   3.047   3.048
  3.050   3.097   3.154   3.178   3.191   3.246   3.330   3.386
  3.413   3.435   3.482   3.519   3.582   3.629   3.642   3.701
  3.731   3.826   3.845   3.911   3.931   3.972   4.026   4.057
  4.066   4.115   4.166   4.218   4.290   4.293   4.365   4.437
  4.474   4.482   4.578   4.892   5.003   5.227   5.301   5.434
  5.465   5.491   5.749  23.557  23.979  24.341  26.892  27.099
 27.459  27.798  27.818  27.843  27.868  27.996  28.223  40.479
 40.584  40.603  40.659  40.733  40.767  40.776  40.810  40.878
 40.905  40.916  40.927  40.989  40.995  41.035
 
 Beta MOs
 -- Occupied --
-10.375 -10.360 -10.282  -1.168  -1.042  -0.919  -0.840  -0.789
 -0.733  -0.711  -0.694
 -- Virtual --
 -0.364  -0.147  -0.106  -0.085  -0.077  -0.062  -0.049  -0.037
 -0.026  -0.021  -0.010  -0.002   0.006   0.019   0.036   0.037
  0.041   0.050   0.053   0.070   0.082   0.087   0.101   0.116
  0.132   0.192   0.233   0.237   0.297   0.323   0.333   0.358
  0.374   0.374   0.380   0.397   0.429   0.438   0.456   0.468
  0.505   0.511   0.519   0.522   0.550   0.568   0.601   0.637
  0.666   0.682   0.751   0.788   0.794   0.805   0.868   0.876
  0.952   0.969   1.000   1.028   1.030   1.074   1.085   1.101
  1.165   1.177   1.205   1.254   1.271   1.308   1.322   1.337
  1.367   1.373   1.380   1.450   1.475   1.573   1.710   2.217
  2.232   2.340   2.395   2.419   2.465   2.484   2.492   2.552
  2.560   2.617   2.660   2.668   2.680   2.789   2.820   2.831
  2.891   2.904   2.930   2.955   2.973   2.997   3.052   3.058
  3.067   3.076   3.112   3.178   3.189   3.214   3.254   3.343
  3.396   3.438   3.466   3.486   3.536   3.588   3.635   3.650
  3.710   3.738   3.830   3.856   3.911   3.942   3.979   4.036
  4.065   4.074   4.124   4.178   4.227   4.297   4.300   4.378
  4.443   4.479   4.517   4.584   4.903   5.012   5.231   5.306
  5.436   5.474   5.494   5.754  23.565  23.980  24.350  26.914
 27.119  27.461  27.802  27.820  27.845  27.872  28.000  28.225
 40.491  40.592  40.622  40.659  40.735  40.781  40.790  40.824
 40.892  40.907  40.917  40.932  40.991  40.996  41.035
 --------------------------------------------------------------
 
          Ground-State Mulliken Net Atomic Charges

     Atom                 Charge (a.u.)    Spin (a.u.)
  --------------------------------------------------------
      1 C                    -0.114339       0.594367
      2 C                     0.362376       0.350760
      3 H                     0.182688      -0.017744
      4 H                     0.166699      -0.016808
      5 H                     0.218380      -0.012267
      6 C                    -0.247860       0.010636
      7 H                     0.129920      -0.002266
      8 H                     0.151142       0.047034
      9 H                     0.150995       0.046287
  --------------------------------------------------------
  Sum of atomic charges =     1.000000
  Sum of spin   charges =     1.000000

 -----------------------------------------------------------------
                    Cartesian Multipole Moments
 -----------------------------------------------------------------
    Charge (ESU x 10^10)
                 4.8032
    Dipole Moment (Debye)
         X       1.3853      Y       0.0015      Z       4.9649
       Tot       5.1546
    Quadrupole Moments (Debye-Ang)
        XX     -12.4824     XY      -0.0003     YY     -16.9265
        XZ       3.9400     YZ       0.0035     ZZ      -3.8433
    Octapole Moments (Debye-Ang^2)
       XXX     -20.2163    XXY       0.0005    XYY      -7.2837
       YYY       0.0022    XXZ     -14.2203    XYZ      -0.0024
       YYZ     -18.5397    XZZ       2.9578    YZZ       0.0130
       ZZZ     -32.4072
    Hexadecapole Moments (Debye-Ang^3)
      XXXX     -86.0102   XXXY      -0.0055   XXYY     -19.7698
      XYYY       0.0004   YYYY     -21.4032   XXXZ     -47.2443
      XXYZ       0.0004   XYYZ     -14.4656   YYYZ       0.0041
      XXZZ     -43.2367   XYZZ       0.0034   YYZZ     -41.5200
      XZZZ     -22.9062   YZZZ       0.0389   ZZZZ    -205.9180
 -----------------------------------------------------------------
 Total job time:  94.02s(wall), 93.21s(cpu) 
 Tue Apr 30 22:20:39 2013

        *************************************************************
        *                                                           *
        *  Thank you very much for using Q-Chem.  Have a nice day.  *
        *                                                           *
        *************************************************************


0 sent ACK to 0 
now end server 0 ... 
