Process 0 of 1 is on cl149.stfx.acenet.ca - thread support 1
initial socket setup ...start
initial socket setup ...done 
now start server 0 ... 

cmd = /usr/bin/ssh clhead /usr/local/qchem/bin/get_hostid 1698440590 > /scratch/tmp/6062148.1.medium.q/qchem4221/lic.dat
                  Welcome to Q-Chem
     A Quantum Leap Into The Future Of Chemistry

 Y. Shao, L. Fusti-Molnar, Y. Jung, J. Kussmann, C. Ochsenfeld,
 S. T. Brown, A. T. B. Gilbert, L. V. Slipchenko,S. V. Levchenko,
 D. P. O'Neill, R. A. DiStasio Jr., R. C. Lochan, T. Wang,
 G. J. O. Beran, N. A. Besley, J. M. Herbert, C. Y. Lin,
 T. Van Voorhis, S. H. Chien, A. Sodt, R. P. Steele, 
 V. A. Rassolov, P. E. Maslen, P. P. Korambath, R. D. Adamson,
 B. Austin, J. Baker, E. F. C. Byrd, H. Dachsel, R. J. Doerksen,
 A. Dreuw, B. D. Dunietz, A. D. Dutoi, T. R. Furlani,
 S. R. Gwaltney, A. Heyden, S. Hirata, C.-P. Hsu, G. Kedziora,
 R. Z. Khaliullin, P. Klunzinger, A. M. Lee, M. S. Lee, W. Liang,
 I. Lotan, N. Nair, B. Peters, E. I. Proynov, P. A. Pieniazek, 
 Y. M. Rhee, J. Ritchie, E. Rosta, C. D. Sherrill, 
 A. C. Simmonett, J. E. Subotnik, H. L. Woodcock III,
 W. Zhang, A. T. Bell, A. K. Chakraborty, D. M. Chipman,
 F. J. Keil, A. Warshel, W. J. Hehre, H. F. Schaefer III,
 J. Kong, A. I. Krylov, P. M. W. Gill, M. Head-Gordon,
 Q-Chem, Version 3.1, Q-Chem, Inc., Pittsburgh, PA (2007).

 Additional authors for Version 3.1: 
 Z. Gan, Y. Zhao, N. E. Schultz, D. Truhlar, E. Epifanovsky and M. Oana.

 Additional authors for Version 3.2: 
 R. Baer, B. R. Brooks, D. Casanova, J.-D. Chai, C.-L. Cheng, 
 C. Cramer, D. Crittenden, A. Ghysels, G. Hawkins, E. G. Hohenstein, 
 C. Kelley, W. Kurlancheek, D. Liotard, E. Livshits, P. Manohar, 
 A. Marenich, D. Neuhauser, R. Olson, M. A. Rohrdanz, K. S. Thanthiriwatte, 
 A. J. W. Thom, V. Vanovschi, C. F. Williams, Q. Wu and Z.-Q. You. 


 Intel X86 Linux Version

 Q-chem begins on Thu Jul  4 23:58:34 2013  

 Parallel job on  1  processors
Processing $rem in /usr/local/qchem/config/preferences.

theFileMan(): MAXOPENFILES=974 MAX_SUB_FILE_NUM=16
Maximum size of a physical file is 2.0 GB, maximum size of a tmp-file is 32.0 GB


--------------------------------------------------------------
User input:
--------------------------------------------------------------

$molecule
0,1
N          1.39049        0.00000        1.00000
C         -1.39359        0.00000        1.00000
C          0.69834        1.13591        1.00000
C          0.69834       -1.13591        1.00000
C         -0.68673       -1.19030        1.00000
C         -0.68673        1.19030        1.00000
H         -2.47999        0.00000        1.00000
H          1.28453        2.05358        1.00000
H          1.28453       -2.05358        1.00000
H         -1.19543       -2.14903        1.00000
H         -1.19543        2.14903        1.00000
$end

$comment
neutral
$end

$xc_functional
C PBE   1.00
X wPBE  1.00
$end


$rem
SYMMETRY_DECOMPOSITION	0
LRC_DFT                 true
exchange 		general
BASIS                   g3large
omega			310 
JOBTYPE                 opt
mem_static              760
max_scf_cycles          200
scf_final_print         1
sym_ignore              true
$end


--------------------------------------------------------------
 Writing REM_CC_EA           11
 ----------------------------------------------------
       Standard Nuclear Orientation (Angstroms)
    I     Atom         X            Y            Z
 ----------------------------------------------------
    1      N       1.390490     0.000000     1.000000
    2      C      -1.393590     0.000000     1.000000
    3      C       0.698340     1.135910     1.000000
    4      C       0.698340    -1.135910     1.000000
    5      C      -0.686730    -1.190300     1.000000
    6      C      -0.686730     1.190300     1.000000
    7      H      -2.479990     0.000000     1.000000
    8      H       1.284530     2.053580     1.000000
    9      H       1.284530    -2.053580     1.000000
   10      H      -1.195430    -2.149030     1.000000
   11      H      -1.195430     2.149030     1.000000
 ----------------------------------------------------
 Nuclear Repulsion Energy =   207.1253426770 hartrees
 There are       21 alpha and       21 beta electrons
 Requested basis set is G3large
 There are 90 shells and 302 basis functions

Total QAlloc Memory Limit   2000 MB
Mega-Array Size       743 MB
MEM_STATIC part       760 MB
 A cutoff of  1.0D-11 yielded   3790 shell pairs
 There are  43402 function pairs ( 54647 Cartesian)
Evaluating contribution to one-electron hamiltonian from nuclear
 Smallest overlap matrix eigenvalue = 6.32E-06
 Multipole matrices computed through 2nd order

  Scale SEOQF with 1.000000e-01/1.000000e-01/1.000000e-01

 Standard Electronic Orientation quadrupole field applied
 Nucleus-field energy     =     0.0000000008 hartrees
 Guess from superposition of atomic densities
 Warning:  Energy on first SCF cycle will be non-variational
 Long-range K will be added via erf
 Coulomb attenuation parameter = 0.31 bohr**(-1)
 A restricted Kohn-Sham SCF calculation will be
 performed using Pulay DIIS extrapolation
 Exchange:  wPBE + LR-HF      Correlation:  PBE
 Using SG-1 standard quadrature grid
 SCF converges when DIIS error is below 1.0E-08
 Requested basis set is G3large
 There are 90 shells and 302 basis functions
 A cutoff of  1.0D-11 yielded   3790 shell pairs
 There are  43402 function pairs ( 54647 Cartesian)
 ---------------------------------------
  Cycle       Energy         DIIS Error
 ---------------------------------------
    1    -250.0958574513      2.88E-02
    2    -248.0624250492      2.50E-03
    3    -248.1023874079      1.88E-03
    4    -248.1343758629      4.63E-04
    5    -248.1362170625      1.60E-04
    6    -248.1364713122      4.80E-05
    7    -248.1364981029      1.42E-05
    8    -248.1365007410      4.35E-06
    9    -248.1365011977      1.60E-06
   10    -248.1365012443      7.16E-07
   11    -248.1365012617      2.15E-07
   12    -248.1365012644      9.87E-08
   13    -248.1365012752      4.38E-08
   14    -248.1365012681      9.05E-09 Convergence criterion met
 ---------------------------------------
 One-Electron    Energy =  -743.9433820189
 Total Coulomb   Energy =   324.3958827625
 Alpha Exchange  Energy =    -3.3712128126
 Beta  Exchange  Energy =    -3.3712128126
 DFT   Exchange  Energy =   -27.5851030635
 DFT Correlation Energy =    -1.3868160009
 Nuclear Repu.   Energy =   207.1253426778
 Nuclear Attr.   Energy =  -991.1035356621
 Kinetic         Energy =   247.1601536433
 SCF time:  CPU 680.96 s  wall 682.03 s
 Final Alpha MO Eigenvalues
            1           2           3           4           5           6
    1 -14.1504073 -10.0918056 -10.0917995 -10.0800048 -10.0686304 -10.0686069
            7           8           9          10          11          12
    1  -1.0492791  -0.9148808  -0.8721139  -0.7378258  -0.7358534  -0.6412316
           13          14          15          16          17          18
    1  -0.5860546  -0.5715046  -0.5305243  -0.5205621  -0.5044401  -0.4602210
           19          20          21          22          23          24
    1  -0.3919949  -0.3644580  -0.3537188   0.0345713   0.0364140   0.0443456
           25          26
    1   0.0501065   0.0507607
 Analysis of SCF Wavefunction
 
 --------------------------------------------------------------
                    Orbital Energies (a.u.)
 --------------------------------------------------------------
 
 Alpha MOs
 -- Occupied --
-14.150 -10.092 -10.092 -10.080 -10.069 -10.069  -1.049  -0.915
 -0.872  -0.738  -0.736  -0.641  -0.586  -0.572  -0.531  -0.521
 -0.504  -0.460  -0.392  -0.364  -0.354
 -- Virtual --
  0.035   0.036   0.044   0.050   0.051   0.065   0.075   0.106
  0.116   0.133   0.136   0.139   0.144   0.163   0.165   0.167
  0.171   0.180   0.189   0.198   0.198   0.203   0.206   0.207
  0.239   0.247   0.264   0.270   0.288   0.307   0.309   0.332
  0.340   0.356   0.359   0.364   0.374   0.400   0.424   0.433
  0.434   0.520   0.537   0.560   0.596   0.603   0.606   0.609
  0.612   0.638   0.645   0.654   0.683   0.689   0.697   0.699
  0.702   0.736   0.740   0.773   0.777   0.792   0.799   0.813
  0.838   0.841   0.863   0.872   0.875   0.883   0.896   0.901
  0.920   0.978   1.004   1.019   1.041   1.042   1.097   1.125
  1.135   1.147   1.189   1.201   1.216   1.255   1.263   1.286
  1.361   1.364   1.365   1.399   1.414   1.419   1.443   1.444
  1.478   1.490   1.493   1.501   1.533   1.536   1.576   1.675
  1.741   1.754   1.794   1.833   1.838   1.877   1.950   1.954
  2.064   2.076   2.136   2.163   2.312   2.577   2.578   2.634
  2.655   2.668   2.691   2.733   2.750   2.765   2.776   2.816
  2.846   2.866   2.873   2.880   2.902   2.906   2.912   2.932
  2.949   2.954   2.999   3.070   3.086   3.139   3.170   3.191
  3.192   3.196   3.246   3.247   3.251   3.256   3.287   3.313
  3.323   3.335   3.364   3.383   3.406   3.415   3.445   3.461
  3.473   3.496   3.517   3.533   3.560   3.630   3.635   3.643
  3.680   3.680   3.708   3.750   3.782   3.832   3.872   3.893
  3.898   3.903   3.951   3.972   4.011   4.051   4.070   4.106
  4.138   4.171   4.185   4.201   4.229   4.332   4.352   4.358
  4.448   4.458   4.459   4.522   4.568   4.570   4.605   4.609
  4.658   4.669   4.682   4.812   4.883   4.948   5.034   5.110
  5.113   5.147   5.181   5.192   5.321   5.323   5.353   5.419
  5.533   5.576   5.755   5.767   5.827   5.919   6.016   6.048
  6.165   6.269   6.863  23.852  24.225  24.437  24.627  24.908
 27.182  27.260  27.306  27.378  27.553  27.916  28.036  28.057
 28.197  28.227  28.239  28.414  28.426  28.479  28.779  35.897
 37.438  37.861  38.477  40.527  40.597  40.618  40.660  40.756
 40.791  40.832  40.849  40.918  40.928  40.986  41.015  41.025
 41.052  41.069  41.094  41.095  41.109  41.121  41.143  41.147
 41.152  41.162  41.167  41.170  41.207  41.302  41.345  41.382
 41.465
 --------------------------------------------------------------
 
          Ground-State Mulliken Net Atomic Charges

     Atom                 Charge (a.u.)
  ----------------------------------------
      1 N                    -0.204164
      2 C                    -0.167069
      3 C                    -0.185881
      4 C                    -0.185881
      5 C                    -0.029028
      6 C                    -0.029027
      7 H                     0.167272
      8 H                     0.163707
      9 H                     0.163707
     10 H                     0.153183
     11 H                     0.153183
  ----------------------------------------
  Sum of atomic charges =     0.000000

 -----------------------------------------------------------------
                    Cartesian Multipole Moments
 -----------------------------------------------------------------
    Charge (ESU x 10^10)
                 0.0000
    Dipole Moment (Debye)
         X      -2.3093      Y       0.0000      Z       0.0000
       Tot       2.3093
    Quadrupole Moments (Debye-Ang)
        XX     -36.2713     XY       0.0000     YY     -29.1945
        XZ      -2.3093     YZ       0.0000     ZZ     -37.7334
    Octapole Moments (Debye-Ang^2)
       XXX     -14.2466    XXY       0.0000    XYY       2.4677
       YYY       0.0000    XXZ     -36.2713    XYZ       0.0000
       YYZ     -29.1945    XZZ      -0.3940    YZZ       0.0000
       ZZZ    -113.2003
    Hexadecapole Moments (Debye-Ang^3)
      XXXX    -284.3894   XXXY       0.0000   XXYY     -79.8464
      XYYY       0.0000   YYYY    -249.5653   XXXZ     -14.2466
      XXYZ       0.0000   XYYZ       2.4677   YYYZ       0.0000
      XXZZ     -93.4617   XYZZ       0.0000   YYZZ     -87.7769
      XZZZ       3.4367   YZZZ       0.0000   ZZZZ    -268.8027
 -----------------------------------------------------------------
 Calculating analytic gradient of the SCF energy
 Gradient of AOints
            1           2           3           4           5           6
    1 -13.4942865   9.8423198  -4.9132142  -4.9132241   4.6862183   4.6862067
    2   0.0000047   0.0000099  -7.4634404   7.4634351   8.4403234  -8.4403338
    3   0.0000002   0.0000004  -0.0000003  -0.0000002  -0.0000002   0.0000000
            7           8           9          10          11
    1   4.9448979  -2.6995589  -2.6995587   2.2800995   2.2801001
    2   0.0000006  -4.0484198   4.0484192   4.4041010  -4.4040999
    3   0.0000001  -0.0000001  -0.0000000  -0.0000001   0.0000001
 Gradient of XC Energy
            1           2           3           4           5           6
    1   0.2794528  -0.0949684   0.0309580   0.0309583  -0.0389265  -0.0389262
    2  -0.0000001  -0.0000002   0.0790587  -0.0790586  -0.0821431   0.0821434
    3  -0.0000000  -0.0000000   0.0000000   0.0000000   0.0000000  -0.0000000
            7           8           9          10          11
    1  -0.1995370   0.1067752   0.1067752  -0.0912806  -0.0912807
    2  -0.0000000   0.1622147  -0.1622146  -0.1754324   0.1754324
    3  -0.0000000   0.0000000  -0.0000000   0.0000000  -0.0000000
 Gradient of SCF Energy
            1           2           3           4           5           6
    1  -0.0011151   0.0006407  -0.0004864  -0.0004862   0.0004626   0.0004628
    2  -0.0000001  -0.0000002  -0.0004384   0.0004386   0.0005128  -0.0005127
    3  -0.0000000  -0.0000000   0.0000000   0.0000000   0.0000000   0.0000000
            7           8           9          10          11
    1   0.0004834  -0.0002606  -0.0002606   0.0002796   0.0002796
    2   0.0000000  -0.0004266   0.0004266   0.0004417  -0.0004417
    3  -0.0000000   0.0000000  -0.0000000   0.0000000  -0.0000000
 Max gradient component =       1.115E-03
 RMS gradient           =       3.792E-04
 Gradient time:  CPU 303.99 s  wall 304.17 s
 Geometry Optimization Parameters
   NAtoms,    NIC,     NZ,  NCons,   NDum,   NFix, NCnnct, MaxDiis
       11      69       0       0       0       0       0       0


** GEOMETRY OPTIMIZATION IN DELOCALIZED INTERNAL COORDINATES **
   Searching for a Minimum

   Optimization Cycle:   1

                       Coordinates (Angstroms)
     ATOM              X           Y           Z
    1  N           1.390490    0.000000    1.000000
    2  C          -1.393590    0.000000    1.000000
    3  C           0.698340    1.135910    1.000000
    4  C           0.698340   -1.135910    1.000000
    5  C          -0.686730   -1.190300    1.000000
    6  C          -0.686730    1.190300    1.000000
    7  H          -2.479990    0.000000    1.000000
    8  H           1.284530    2.053580    1.000000
    9  H           1.284530   -2.053580    1.000000
   10  H          -1.195430   -2.149030    1.000000
   11  H          -1.195430    2.149030    1.000000
   Point Group: c1    Number of degrees of freedom:  27


   Energy is   -248.136501268


 Attempting to Generate Delocalized Internal Coordinates

 17 Hessian modes will be used to form the next step
  Hessian Eigenvalues:
     0.160000    0.160000    0.160000    0.160000    0.160000    0.220000
     0.231953    0.349383    0.349383    0.352320    0.353581    0.353581
     0.458226    0.479980    0.482504    0.571673    0.585510

 Minimum Search - Taking Simple RFO Step
 Searching for Lamda that Minimizes Along All modes
 Value Taken    Lamda =  -0.00001932
 Step Taken.  Stepsize is  0.006445

                             Maximum     Tolerance    Cnvgd?
         Gradient           0.002184      0.000300      NO
         Displacement       0.004791      0.001200      NO
         Energy change     *********      0.000001      NO


 New Cartesian Coordinates Obtained by Inverse Iteration

 Displacement from previous Coordinates is:  0.009868
 Writing REM_CC_EA           11
 ----------------------------------------------------
       Standard Nuclear Orientation (Angstroms)
    I     Atom         X            Y            Z
 ----------------------------------------------------
    1      N       1.391919     0.000000     1.000000
    2      C      -1.394715     0.000000     1.000000
    3      C       0.699300     1.136758     1.000000
    4      C       0.699300    -1.136758     1.000000
    5      C      -0.687207    -1.191251     1.000000
    6      C      -0.687207     1.191251     1.000000
    7      H      -2.481841     0.000000     1.000000
    8      H       1.285868     2.055085     1.000000
    9      H       1.285868    -2.055085     1.000000
   10      H      -1.196477    -2.150561     1.000000
   11      H      -1.196477     2.150561     1.000000
 ----------------------------------------------------
 Nuclear Repulsion Energy =   206.9510056967 hartrees
 There are       21 alpha and       21 beta electrons
 Applying Cartesian multipole field
    Component          Value
    ---------          -----
     (2,0,0)        1.00000E-11
     (0,2,0)        2.00000E-11
     (0,0,2)       -3.00000E-11
 Nucleus-field energy     =     0.0000000008 hartrees
 Requested basis set is G3large
 There are 90 shells and 302 basis functions
 A cutoff of  1.0D-11 yielded   3790 shell pairs
 There are  43402 function pairs ( 54647 Cartesian)
Evaluating contribution to one-electron hamiltonian from nuclear
 Smallest overlap matrix eigenvalue = 6.37E-06
 Multipole matrices computed through 2nd order
 Guess MOs from SCF MO coefficient file
Reading MOs from coefficient file
Reading MOs from coefficient file
 Long-range K will be added via erf
 Coulomb attenuation parameter = 0.31 bohr**(-1)
 A restricted Kohn-Sham SCF calculation will be
 performed using Pulay DIIS extrapolation
 Exchange:  wPBE + LR-HF      Correlation:  PBE
 Using SG-1 standard quadrature grid
 SCF converges when DIIS error is below 1.0E-08
 Requested basis set is G3large
 There are 90 shells and 302 basis functions
 A cutoff of  1.0D-11 yielded   3790 shell pairs
 There are  43402 function pairs ( 54647 Cartesian)
 ---------------------------------------
  Cycle       Energy         DIIS Error
 ---------------------------------------
    1    -248.1357288364      3.74E-05
    2    -248.1365084566      9.26E-06
    3    -248.1365092013      6.41E-06
    4    -248.1365095023      6.61E-07
    5    -248.1365095766      5.76E-07
    6    -248.1365095864      8.37E-08
    7    -248.1365095786      1.80E-08
    8    -248.1365095766      8.71E-09 Convergence criterion met
 ---------------------------------------
 One-Electron    Energy =  -743.5995180024
 Total Coulomb   Energy =   324.2205140319
 Alpha Exchange  Energy =    -3.3709789200
 Beta  Exchange  Energy =    -3.3709789200
 DFT   Exchange  Energy =   -27.5800678737
 DFT Correlation Energy =    -1.3864855899
 Nuclear Repu.   Energy =   206.9510056976
 Nuclear Attr.   Energy =  -990.7356744334
 Kinetic         Energy =   247.1361564310
 SCF time:  CPU 379.27 s  wall 380.15 s
 Final Alpha MO Eigenvalues
            1           2           3           4           5           6
    1 -14.1507072 -10.0922513 -10.0922452 -10.0804198 -10.0690970 -10.0690737
            7           8           9          10          11          12
    1  -1.0487336  -0.9145485  -0.8717759  -0.7376351  -0.7356162  -0.6408366
           13          14          15          16          17          18
    1  -0.5857329  -0.5715509  -0.5303272  -0.5201508  -0.5043811  -0.4602394
           19          20          21          22          23          24
    1  -0.3918409  -0.3642490  -0.3538314   0.0345708   0.0361812   0.0443404
           25          26
    1   0.0497818   0.0507519
 Analysis of SCF Wavefunction
 
 --------------------------------------------------------------
                    Orbital Energies (a.u.)
 --------------------------------------------------------------
 
 Alpha MOs
 -- Occupied --
-14.151 -10.092 -10.092 -10.080 -10.069 -10.069  -1.049  -0.915
 -0.872  -0.738  -0.736  -0.641  -0.586  -0.572  -0.530  -0.520
 -0.504  -0.460  -0.392  -0.364  -0.354
 -- Virtual --
  0.035   0.036   0.044   0.050   0.051   0.065   0.075   0.106
  0.116   0.133   0.136   0.139   0.144   0.163   0.165   0.167
  0.171   0.180   0.189   0.198   0.198   0.203   0.206   0.207
  0.238   0.247   0.264   0.270   0.288   0.307   0.309   0.332
  0.339   0.356   0.359   0.363   0.373   0.400   0.424   0.432
  0.433   0.520   0.536   0.560   0.595   0.603   0.606   0.609
  0.611   0.637   0.645   0.653   0.683   0.688   0.697   0.699
  0.702   0.735   0.739   0.773   0.776   0.791   0.799   0.812
  0.838   0.841   0.862   0.872   0.875   0.883   0.895   0.901
  0.919   0.978   1.004   1.019   1.041   1.042   1.096   1.125
  1.135   1.147   1.189   1.200   1.215   1.254   1.262   1.285
  1.360   1.363   1.364   1.398   1.412   1.418   1.443   1.443
  1.477   1.489   1.492   1.500   1.532   1.536   1.575   1.674
  1.741   1.753   1.794   1.832   1.837   1.877   1.949   1.954
  2.063   2.075   2.135   2.162   2.312   2.578   2.578   2.634
  2.654   2.669   2.691   2.733   2.750   2.765   2.776   2.816
  2.845   2.866   2.873   2.880   2.902   2.905   2.912   2.932
  2.949   2.953   2.998   3.071   3.085   3.139   3.170   3.191
  3.191   3.196   3.245   3.248   3.250   3.257   3.286   3.312
  3.321   3.335   3.362   3.382   3.406   3.415   3.443   3.460
  3.473   3.497   3.515   3.532   3.560   3.628   3.634   3.642
  3.678   3.680   3.706   3.748   3.780   3.830   3.873   3.891
  3.897   3.902   3.949   3.971   4.010   4.050   4.068   4.104
  4.137   4.170   4.182   4.200   4.227   4.330   4.349   4.356
  4.446   4.455   4.456   4.519   4.564   4.566   4.601   4.606
  4.655   4.666   4.679   4.808   4.880   4.944   5.030   5.108
  5.109   5.143   5.178   5.191   5.319   5.323   5.348   5.416
  5.530   5.572   5.751   5.765   5.824   5.914   6.012   6.043
  6.160   6.263   6.855  23.850  24.221  24.432  24.620  24.900
 27.181  27.259  27.305  27.377  27.551  27.911  28.032  28.054
 28.193  28.224  28.237  28.413  28.426  28.476  28.778  35.894
 37.437  37.859  38.474  40.526  40.597  40.618  40.660  40.756
 40.791  40.831  40.849  40.917  40.927  40.985  41.013  41.024
 41.051  41.069  41.093  41.094  41.108  41.121  41.142  41.146
 41.151  41.160  41.164  41.169  41.206  41.301  41.343  41.380
 41.462
 --------------------------------------------------------------
 
          Ground-State Mulliken Net Atomic Charges

     Atom                 Charge (a.u.)
  ----------------------------------------
      1 N                    -0.203623
      2 C                    -0.167261
      3 C                    -0.186566
      4 C                    -0.186566
      5 C                    -0.028394
      6 C                    -0.028394
      7 H                     0.167330
      8 H                     0.163552
      9 H                     0.163552
     10 H                     0.153185
     11 H                     0.153185
  ----------------------------------------
  Sum of atomic charges =     0.000000

 -----------------------------------------------------------------
                    Cartesian Multipole Moments
 -----------------------------------------------------------------
    Charge (ESU x 10^10)
                 0.0000
    Dipole Moment (Debye)
         X      -2.3099      Y       0.0000      Z       0.0000
       Tot       2.3099
    Quadrupole Moments (Debye-Ang)
        XX     -36.2719     XY       0.0000     YY     -29.1867
        XZ      -2.3099     YZ       0.0000     ZZ     -37.7557
    Octapole Moments (Debye-Ang^2)
       XXX     -14.2967    XXY       0.0000    XYY       2.4728
       YYY       0.0000    XXZ     -36.2719    XYZ       0.0000
       YYZ     -29.1867    XZZ      -0.3960    YZZ       0.0000
       ZZZ    -113.2670
    Hexadecapole Moments (Debye-Ang^3)
      XXXX    -284.8599   XXXY       0.0000   XXYY     -79.9369
      XYYY       0.0000   YYYY    -249.8649   XXXZ     -14.2967
      XXYZ       0.0000   XYYZ       2.4728   YYYZ       0.0000
      XXZZ     -93.5726   XYZZ       0.0000   YYZZ     -87.8749
      XZZZ       3.4319   YZZZ       0.0000   ZZZZ    -268.9884
 -----------------------------------------------------------------
 Calculating analytic gradient of the SCF energy
 Gradient of AOints
            1           2           3           4           5           6
    1 -13.4796146   9.8494642  -4.9135477  -4.9135518   4.6767609   4.6767571
    2   0.0000013   0.0000022  -7.4624431   7.4624413   8.4334400  -8.4334422
    3  -0.0000000   0.0000000   0.0000000  -0.0000000   0.0000000  -0.0000000
            7           8           9          10          11
    1   4.9405538  -2.6969787  -2.6969782   2.2785673   2.2785678
    2  -0.0000001  -4.0480942   4.0480948   4.3986753  -4.3986753
    3  -0.0000000   0.0000000   0.0000000   0.0000000   0.0000000
 Gradient of XC Energy
            1           2           3           4           5           6
    1   0.2792291  -0.0953249   0.0310571   0.0310573  -0.0387494  -0.0387492
    2  -0.0000001  -0.0000001   0.0791448  -0.0791448  -0.0821736   0.0821737
    3   0.0000000  -0.0000000  -0.0000000   0.0000000  -0.0000000   0.0000000
            7           8           9          10          11
    1  -0.1993970   0.1066949   0.1066949  -0.0912564  -0.0912564
    2   0.0000000   0.1621860  -0.1621860  -0.1752719   0.1752719
    3   0.0000000  -0.0000000  -0.0000000  -0.0000000  -0.0000000
 Gradient of SCF Energy
            1           2           3           4           5           6
    1  -0.0000600  -0.0001044   0.0001306   0.0001306  -0.0000441  -0.0000442
    2   0.0000000   0.0000001   0.0000670  -0.0000670  -0.0000608   0.0000608
    3  -0.0000000   0.0000000   0.0000000   0.0000000   0.0000000   0.0000000
            7           8           9          10          11
    1  -0.0000313   0.0000200   0.0000200  -0.0000086  -0.0000086
    2   0.0000000   0.0000446  -0.0000446  -0.0000268   0.0000267
    3  -0.0000000  -0.0000000   0.0000000   0.0000000  -0.0000000
 Max gradient component =       1.306E-04
 RMS gradient           =       4.806E-05
 Gradient time:  CPU 326.48 s  wall 326.62 s
 Geometry Optimization Parameters
   NAtoms,    NIC,     NZ,  NCons,   NDum,   NFix, NCnnct, MaxDiis
       11      69       0       0       0       0       0       0

 Cartesian Hessian Update
 Hessian Updated using BFGS Update


** GEOMETRY OPTIMIZATION IN DELOCALIZED INTERNAL COORDINATES **
   Searching for a Minimum

   Optimization Cycle:   2

                       Coordinates (Angstroms)
     ATOM              X           Y           Z
    1  N           1.391919    0.000000    1.000000
    2  C          -1.394715    0.000000    1.000000
    3  C           0.699300    1.136758    1.000000
    4  C           0.699300   -1.136758    1.000000
    5  C          -0.687207   -1.191251    1.000000
    6  C          -0.687207    1.191251    1.000000
    7  H          -2.481841    0.000000    1.000000
    8  H           1.285868    2.055085    1.000000
    9  H           1.285868   -2.055085    1.000000
   10  H          -1.196477   -2.150561    1.000000
   11  H          -1.196477    2.150561    1.000000
   Point Group: c1    Number of degrees of freedom:  27


   Energy is   -248.136509577

 Hessian Updated using BFGS Update

 14 Hessian modes will be used to form the next step
  Hessian Eigenvalues:
     0.159874    0.160035    0.220030    0.231298    0.350635    0.352703
     0.353581    0.354889    0.435862    0.462931    0.482504    0.504059
     0.583285    0.585510

 Minimum Search - Taking Simple RFO Step
 Searching for Lamda that Minimizes Along All modes
 Value Taken    Lamda =   0.00000000
 Step Taken.  Stepsize is  0.000731

                             Maximum     Tolerance    Cnvgd?
         Gradient           0.000227      0.000300     YES
         Displacement       0.000491      0.001200     YES
         Energy change     -0.000008      0.000001      NO


                       Distance Matrix (Angstroms)
             N (  1)   C (  2)   C (  3)   C (  4)   C (  5)   C (  6)
   C (  2)  2.786634
   C (  3)  1.331142  2.382670
   C (  4)  1.331142  2.382670  2.273516
   C (  5)  2.396214  1.385513  2.709617  1.387577
   C (  6)  2.396214  1.385513  1.387577  2.709617  2.382501
   H (  7)  3.873760  1.087126  3.378147  3.378147  2.154017  2.154017
   H (  8)  2.057819  3.377706  1.089672  3.245292  3.798910  2.153888
   H (  9)  2.057819  3.377706  3.245292  1.089672  2.153888  3.798910
   H ( 10)  3.365220  2.159678  3.794791  2.149830  1.086109  3.380394
   H ( 11)  3.365220  2.159678  2.149830  3.794791  3.380394  1.086109
             H (  7)   H (  8)   H (  9)   H ( 10)
   H (  8)  4.291736
   H (  9)  4.291736  4.110169
   H ( 10)  2.505409  4.883594  2.484180
   H ( 11)  2.505408  2.484181  4.883594  4.301122
 


 ******************************
 **  OPTIMIZATION CONVERGED  **
 ******************************
 Analysis of SCF Wavefunction
 
 --------------------------------------------------------------
                    Orbital Energies (a.u.)
 --------------------------------------------------------------
 
 Alpha MOs
 -- Occupied --
-14.151 -10.092 -10.092 -10.080 -10.069 -10.069  -1.049  -0.915
 -0.872  -0.738  -0.736  -0.641  -0.586  -0.572  -0.530  -0.520
 -0.504  -0.460  -0.392  -0.364  -0.354
 -- Virtual --
  0.035   0.036   0.044   0.050   0.051   0.065   0.075   0.106
  0.116   0.133   0.136   0.139   0.144   0.163   0.165   0.167
  0.171   0.180   0.189   0.198   0.198   0.203   0.206   0.207
  0.238   0.247   0.264   0.270   0.288   0.307   0.309   0.332
  0.339   0.356   0.359   0.363   0.373   0.400   0.424   0.432
  0.433   0.520   0.536   0.560   0.595   0.603   0.606   0.609
  0.611   0.637   0.645   0.653   0.683   0.688   0.697   0.699
  0.702   0.735   0.739   0.773   0.776   0.791   0.799   0.812
  0.838   0.841   0.862   0.872   0.875   0.883   0.895   0.901
  0.919   0.978   1.004   1.019   1.041   1.042   1.096   1.125
  1.135   1.147   1.189   1.200   1.215   1.254   1.262   1.285
  1.360   1.363   1.364   1.398   1.412   1.418   1.443   1.443
  1.477   1.489   1.492   1.500   1.532   1.536   1.575   1.674
  1.741   1.753   1.794   1.832   1.837   1.877   1.949   1.954
  2.063   2.075   2.135   2.162   2.312   2.578   2.578   2.634
  2.654   2.669   2.691   2.733   2.750   2.765   2.776   2.816
  2.845   2.866   2.873   2.880   2.902   2.905   2.912   2.932
  2.949   2.953   2.998   3.071   3.085   3.139   3.170   3.191
  3.191   3.196   3.245   3.248   3.250   3.257   3.286   3.312
  3.321   3.335   3.362   3.382   3.406   3.415   3.443   3.460
  3.473   3.497   3.515   3.532   3.560   3.628   3.634   3.642
  3.678   3.680   3.706   3.748   3.780   3.830   3.873   3.891
  3.897   3.902   3.949   3.971   4.010   4.050   4.068   4.104
  4.137   4.170   4.182   4.200   4.227   4.330   4.349   4.356
  4.446   4.455   4.456   4.519   4.564   4.566   4.601   4.606
  4.655   4.666   4.679   4.808   4.880   4.944   5.030   5.108
  5.109   5.143   5.178   5.191   5.319   5.323   5.348   5.416
  5.530   5.572   5.751   5.765   5.824   5.914   6.012   6.043
  6.160   6.263   6.855  23.850  24.221  24.432  24.620  24.900
 27.181  27.259  27.305  27.377  27.551  27.911  28.032  28.054
 28.193  28.224  28.237  28.413  28.426  28.476  28.778  35.894
 37.437  37.859  38.474  40.526  40.597  40.618  40.660  40.756
 40.791  40.831  40.849  40.917  40.927  40.985  41.013  41.024
 41.051  41.069  41.093  41.094  41.108  41.121  41.142  41.146
 41.151  41.160  41.164  41.169  41.206  41.301  41.343  41.380
 41.462
 --------------------------------------------------------------
 
          Ground-State Mulliken Net Atomic Charges

     Atom                 Charge (a.u.)
  ----------------------------------------
      1 N                    -0.203623
      2 C                    -0.167261
      3 C                    -0.186566
      4 C                    -0.186566
      5 C                    -0.028394
      6 C                    -0.028394
      7 H                     0.167330
      8 H                     0.163552
      9 H                     0.163552
     10 H                     0.153185
     11 H                     0.153185
  ----------------------------------------
  Sum of atomic charges =     0.000000

 -----------------------------------------------------------------
                    Cartesian Multipole Moments
 -----------------------------------------------------------------
    Charge (ESU x 10^10)
                 0.0000
    Dipole Moment (Debye)
         X      -2.3099      Y       0.0000      Z       0.0000
       Tot       2.3099
    Quadrupole Moments (Debye-Ang)
        XX     -36.2719     XY       0.0000     YY     -29.1867
        XZ      -2.3099     YZ       0.0000     ZZ     -37.7557
    Octapole Moments (Debye-Ang^2)
       XXX     -14.2967    XXY       0.0000    XYY       2.4728
       YYY       0.0000    XXZ     -36.2719    XYZ       0.0000
       YYZ     -29.1867    XZZ      -0.3960    YZZ       0.0000
       ZZZ    -113.2670
    Hexadecapole Moments (Debye-Ang^3)
      XXXX    -284.8599   XXXY       0.0000   XXYY     -79.9369
      XYYY       0.0000   YYYY    -249.8649   XXXZ     -14.2967
      XXYZ       0.0000   XYYZ       2.4728   YYYZ       0.0000
      XXZZ     -93.5726   XYZZ       0.0000   YYZZ     -87.8749
      XZZZ       3.4319   YZZZ       0.0000   ZZZZ    -268.9884
 -----------------------------------------------------------------
 Total job time:  1693.98s(wall), 1691.69s(cpu) 
 Fri Jul  5 00:26:48 2013

        *************************************************************
        *                                                           *
        *  Thank you very much for using Q-Chem.  Have a nice day.  *
        *                                                           *
        *************************************************************


0 sent ACK to 0 
now end server 0 ... 
 
**********************************************************************
Job 2 of 2 
**********************************************************************
 
Process 0 of 1 is on cl149.stfx.acenet.ca - thread support 1
initial socket setup ...start
initial socket setup ...done 
now start server 0 ... 

cmd = /usr/bin/ssh clhead /usr/local/qchem/bin/get_hostid 2066431253 > /scratch/tmp/6062148.1.medium.q/qchem4221/lic.dat
                  Welcome to Q-Chem
     A Quantum Leap Into The Future Of Chemistry

 Y. Shao, L. Fusti-Molnar, Y. Jung, J. Kussmann, C. Ochsenfeld,
 S. T. Brown, A. T. B. Gilbert, L. V. Slipchenko,S. V. Levchenko,
 D. P. O'Neill, R. A. DiStasio Jr., R. C. Lochan, T. Wang,
 G. J. O. Beran, N. A. Besley, J. M. Herbert, C. Y. Lin,
 T. Van Voorhis, S. H. Chien, A. Sodt, R. P. Steele, 
 V. A. Rassolov, P. E. Maslen, P. P. Korambath, R. D. Adamson,
 B. Austin, J. Baker, E. F. C. Byrd, H. Dachsel, R. J. Doerksen,
 A. Dreuw, B. D. Dunietz, A. D. Dutoi, T. R. Furlani,
 S. R. Gwaltney, A. Heyden, S. Hirata, C.-P. Hsu, G. Kedziora,
 R. Z. Khaliullin, P. Klunzinger, A. M. Lee, M. S. Lee, W. Liang,
 I. Lotan, N. Nair, B. Peters, E. I. Proynov, P. A. Pieniazek, 
 Y. M. Rhee, J. Ritchie, E. Rosta, C. D. Sherrill, 
 A. C. Simmonett, J. E. Subotnik, H. L. Woodcock III,
 W. Zhang, A. T. Bell, A. K. Chakraborty, D. M. Chipman,
 F. J. Keil, A. Warshel, W. J. Hehre, H. F. Schaefer III,
 J. Kong, A. I. Krylov, P. M. W. Gill, M. Head-Gordon,
 Q-Chem, Version 3.1, Q-Chem, Inc., Pittsburgh, PA (2007).

 Additional authors for Version 3.1: 
 Z. Gan, Y. Zhao, N. E. Schultz, D. Truhlar, E. Epifanovsky and M. Oana.

 Additional authors for Version 3.2: 
 R. Baer, B. R. Brooks, D. Casanova, J.-D. Chai, C.-L. Cheng, 
 C. Cramer, D. Crittenden, A. Ghysels, G. Hawkins, E. G. Hohenstein, 
 C. Kelley, W. Kurlancheek, D. Liotard, E. Livshits, P. Manohar, 
 A. Marenich, D. Neuhauser, R. Olson, M. A. Rohrdanz, K. S. Thanthiriwatte, 
 A. J. W. Thom, V. Vanovschi, C. F. Williams, Q. Wu and Z.-Q. You. 


 Intel X86 Linux Version

 Q-chem begins on Fri Jul  5 00:26:50 2013  

 Parallel job on  1  processors
Processing $rem in /usr/local/qchem/config/preferences.

theFileMan(): MAXOPENFILES=974 MAX_SUB_FILE_NUM=16
Maximum size of a physical file is 2.0 GB, maximum size of a tmp-file is 32.0 GB


--------------------------------------------------------------
User input:
--------------------------------------------------------------

$molecule 
READ 
$end 

$xc_functional
C PBE   1.00
X wPBE  1.00
$end


$rem
SYMMETRY_DECOMPOSITION	0
LRC_DFT                 true
exchange 		general
BASIS                   g3large
omega			310 
JOBTYPE                 freq
IDERIV 1
SCF_GUESS READ
mem_static              760
max_scf_cycles          200
scf_final_print         1
sym_ignore              true
$end

--------------------------------------------------------------
 Writing REM_CC_EA           11
 ----------------------------------------------------
       Standard Nuclear Orientation (Angstroms)
    I     Atom         X            Y            Z
 ----------------------------------------------------
    1      N       1.391919     0.000000     1.000000
    2      C      -1.394715     0.000000     1.000000
    3      C       0.699300     1.136758     1.000000
    4      C       0.699300    -1.136758     1.000000
    5      C      -0.687207    -1.191251     1.000000
    6      C      -0.687207     1.191251     1.000000
    7      H      -2.481841     0.000000     1.000000
    8      H       1.285868     2.055085     1.000000
    9      H       1.285868    -2.055085     1.000000
   10      H      -1.196477    -2.150561     1.000000
   11      H      -1.196477     2.150561     1.000000
 ----------------------------------------------------
 Nuclear Repulsion Energy =   206.9510056967 hartrees
 There are       21 alpha and       21 beta electrons
 Requested basis set is G3large
 There are 90 shells and 302 basis functions

Total QAlloc Memory Limit   2000 MB
Mega-Array Size       759 MB
MEM_STATIC part       760 MB

                       Distance Matrix (Angstroms)
             N (  1)   C (  2)   C (  3)   C (  4)   C (  5)   C (  6)
   C (  2)  2.786634
   C (  3)  1.331142  2.382670
   C (  4)  1.331142  2.382670  2.273516
   C (  5)  2.396214  1.385513  2.709617  1.387577
   C (  6)  2.396214  1.385513  1.387577  2.709617  2.382501
   H (  7)  3.873760  1.087126  3.378147  3.378147  2.154017  2.154017
   H (  8)  2.057819  3.377706  1.089672  3.245292  3.798910  2.153888
   H (  9)  2.057819  3.377706  3.245292  1.089672  2.153888  3.798910
   H ( 10)  3.365220  2.159678  3.794791  2.149830  1.086109  3.380394
   H ( 11)  3.365220  2.159678  2.149830  3.794791  3.380394  1.086109
             H (  7)   H (  8)   H (  9)   H ( 10)
   H (  8)  4.291736
   H (  9)  4.291736  4.110169
   H ( 10)  2.505409  4.883594  2.484180
   H ( 11)  2.505408  2.484181  4.883594  4.301122
 
 A cutoff of  1.0D-11 yielded   3790 shell pairs
 There are  43402 function pairs ( 54647 Cartesian)
Evaluating contribution to one-electron hamiltonian from nuclear
 Smallest overlap matrix eigenvalue = 6.37E-06
 Multipole matrices computed through 2nd order
 Guess MOs from SCF MO coefficient file
Reading MOs from coefficient file
Reading MOs from coefficient file
 Long-range K will be added via erf
 Coulomb attenuation parameter = 0.31 bohr**(-1)
 A restricted Kohn-Sham SCF calculation will be
 performed using Pulay DIIS extrapolation
 Exchange:  wPBE + LR-HF      Correlation:  PBE
 Using SG-1 standard quadrature grid
 SCF converges when DIIS error is below 1.0E-08
 ---------------------------------------
  Cycle       Energy         DIIS Error
 ---------------------------------------
    1    -248.1365095533      1.28E-09
    2    -248.1365095543      1.03E-09 Convergence criterion met
 ---------------------------------------
 One-Electron    Energy =  -743.5995182278
 Total Coulomb   Energy =   324.2205143735
 Alpha Exchange  Energy =    -3.3709789161
 Beta  Exchange  Energy =    -3.3709789161
 DFT   Exchange  Energy =   -27.5800679881
 DFT Correlation Energy =    -1.3864855764
 Nuclear Repu.   Energy =   206.9510056967
 Nuclear Attr.   Energy =  -990.7356758513
 Kinetic         Energy =   247.1361576235
 SCF time:  CPU 114.19 s  wall 114.54 s
 Final Alpha MO Eigenvalues
            1           2           3           4           5           6
    1 -14.1507072 -10.0922513 -10.0922452 -10.0804197 -10.0690970 -10.0690737
            7           8           9          10          11          12
    1  -1.0487336  -0.9145485  -0.8717759  -0.7376351  -0.7356162  -0.6408366
           13          14          15          16          17          18
    1  -0.5857329  -0.5715509  -0.5303272  -0.5201508  -0.5043810  -0.4602394
           19          20          21          22          23          24
    1  -0.3918408  -0.3642490  -0.3538314   0.0345708   0.0361812   0.0443404
           25          26
    1   0.0497818   0.0507519
 Analysis of SCF Wavefunction
 
 --------------------------------------------------------------
                    Orbital Energies (a.u.)
 --------------------------------------------------------------
 
 Alpha MOs
 -- Occupied --
-14.151 -10.092 -10.092 -10.080 -10.069 -10.069  -1.049  -0.915
 -0.872  -0.738  -0.736  -0.641  -0.586  -0.572  -0.530  -0.520
 -0.504  -0.460  -0.392  -0.364  -0.354
 -- Virtual --
  0.035   0.036   0.044   0.050   0.051   0.065   0.075   0.106
  0.116   0.133   0.136   0.139   0.144   0.163   0.165   0.167
  0.171   0.180   0.189   0.198   0.198   0.203   0.206   0.207
  0.238   0.247   0.264   0.270   0.288   0.307   0.309   0.332
  0.339   0.356   0.359   0.363   0.373   0.400   0.424   0.432
  0.433   0.520   0.536   0.560   0.595   0.603   0.606   0.609
  0.611   0.637   0.645   0.653   0.683   0.688   0.697   0.699
  0.702   0.735   0.739   0.773   0.776   0.791   0.799   0.812
  0.838   0.841   0.862   0.872   0.875   0.883   0.895   0.901
  0.919   0.978   1.004   1.019   1.041   1.042   1.096   1.125
  1.135   1.147   1.189   1.200   1.215   1.254   1.262   1.285
  1.360   1.363   1.364   1.398   1.412   1.418   1.443   1.443
  1.477   1.489   1.492   1.500   1.532   1.536   1.575   1.674
  1.741   1.753   1.794   1.832   1.837   1.877   1.949   1.954
  2.063   2.075   2.135   2.162   2.312   2.578   2.578   2.634
  2.654   2.669   2.691   2.733   2.750   2.765   2.776   2.816
  2.845   2.866   2.873   2.880   2.902   2.905   2.912   2.932
  2.949   2.953   2.998   3.071   3.085   3.139   3.170   3.191
  3.191   3.196   3.245   3.248   3.250   3.257   3.286   3.312
  3.321   3.335   3.362   3.382   3.406   3.415   3.443   3.460
  3.473   3.497   3.515   3.532   3.560   3.628   3.634   3.642
  3.678   3.680   3.706   3.748   3.780   3.830   3.873   3.891
  3.897   3.902   3.949   3.971   4.010   4.050   4.068   4.104
  4.137   4.170   4.182   4.200   4.227   4.330   4.349   4.356
  4.446   4.455   4.456   4.519   4.564   4.566   4.601   4.606
  4.655   4.666   4.679   4.808   4.880   4.944   5.030   5.108
  5.109   5.143   5.178   5.191   5.319   5.323   5.348   5.416
  5.530   5.572   5.751   5.765   5.824   5.914   6.012   6.043
  6.160   6.263   6.855  23.850  24.221  24.432  24.620  24.900
 27.181  27.259  27.305  27.377  27.551  27.911  28.032  28.054
 28.193  28.224  28.237  28.413  28.426  28.476  28.778  35.894
 37.437  37.859  38.474  40.526  40.597  40.618  40.660  40.756
 40.791  40.831  40.849  40.917  40.927  40.985  41.013  41.024
 41.051  41.069  41.093  41.094  41.108  41.121  41.142  41.146
 41.151  41.160  41.164  41.169  41.206  41.301  41.343  41.380
 41.462
 --------------------------------------------------------------
 
          Ground-State Mulliken Net Atomic Charges

     Atom                 Charge (a.u.)
  ----------------------------------------
      1 N                    -0.203623
      2 C                    -0.167260
      3 C                    -0.186566
      4 C                    -0.186566
      5 C                    -0.028394
      6 C                    -0.028394
      7 H                     0.167330
      8 H                     0.163553
      9 H                     0.163553
     10 H                     0.153185
     11 H                     0.153185
  ----------------------------------------
  Sum of atomic charges =     0.000000

 -----------------------------------------------------------------
                    Cartesian Multipole Moments
 -----------------------------------------------------------------
    Charge (ESU x 10^10)
                 0.0000
    Dipole Moment (Debye)
         X      -2.3099      Y       0.0000      Z       0.0000
       Tot       2.3099
    Quadrupole Moments (Debye-Ang)
        XX     -36.2719     XY       0.0000     YY     -29.1867
        XZ      -2.3099     YZ       0.0000     ZZ     -37.7557
    Octapole Moments (Debye-Ang^2)
       XXX     -14.2967    XXY       0.0000    XYY       2.4728
       YYY       0.0000    XXZ     -36.2719    XYZ       0.0000
       YYZ     -29.1867    XZZ      -0.3960    YZZ       0.0000
       ZZZ    -113.2670
    Hexadecapole Moments (Debye-Ang^3)
      XXXX    -284.8599   XXXY       0.0000   XXYY     -79.9369
      XYYY       0.0000   YYYY    -249.8649   XXXZ     -14.2967
      XXYZ       0.0000   XYYZ       2.4728   YYYZ       0.0000
      XXZZ     -93.5726   XYZZ       0.0000   YYZZ     -87.8749
      XZZZ       3.4319   YZZZ       0.0000   ZZZZ    -268.9884
 -----------------------------------------------------------------
 Calculating analytic gradient of the SCF energy
 Gradient of AOints
            1           2           3           4           5           6
    1 -13.4796124   9.8494611  -4.9135494  -4.9135538   4.6767626   4.6767587
    2   0.0000012   0.0000023  -7.4624436   7.4624419   8.4334375  -8.4334398
    3  -0.0000000   0.0000000   0.0000000   0.0000000  -0.0000000  -0.0000000
            7           8           9          10          11
    1   4.9405537  -2.6969783  -2.6969779   2.2785675   2.2785680
    2  -0.0000001  -4.0480952   4.0480957   4.3986754  -4.3986754
    3   0.0000000   0.0000000   0.0000000  -0.0000000   0.0000000
 Gradient of XC Energy
            1           2           3           4           5           6
    1   0.2792291  -0.0953248   0.0310572   0.0310573  -0.0387494  -0.0387493
    2  -0.0000001  -0.0000001   0.0791448  -0.0791448  -0.0821735   0.0821736
    3   0.0000000   0.0000000  -0.0000000  -0.0000000   0.0000000   0.0000000
            7           8           9          10          11
    1  -0.1993970   0.1066949   0.1066949  -0.0912564  -0.0912565
    2   0.0000000   0.1621860  -0.1621860  -0.1752719   0.1752719
    3  -0.0000000  -0.0000000  -0.0000000   0.0000000  -0.0000000
 Gradient of SCF Energy
            1           2           3           4           5           6
    1  -0.0000600  -0.0001044   0.0001306   0.0001306  -0.0000440  -0.0000442
    2   0.0000000   0.0000001   0.0000670  -0.0000670  -0.0000609   0.0000608
    3  -0.0000000  -0.0000000   0.0000000   0.0000000   0.0000000  -0.0000000
            7           8           9          10          11
    1  -0.0000313   0.0000200   0.0000200  -0.0000086  -0.0000086
    2   0.0000000   0.0000446  -0.0000446  -0.0000268   0.0000268
    3  -0.0000000  -0.0000000  -0.0000000   0.0000000  -0.0000000
 Max gradient component =       1.306E-04
 RMS gradient           =       4.806E-05
 Gradient time:  CPU 287.96 s  wall 288.12 s
 ######################################################
 ######################################################
 # Starting finite difference calculation for IDERIV  #
 Finite diff step size: 1.89e-03 a.u.
 Writing REM_CC_EA           11
 ----------------------------------------------------
       Standard Nuclear Orientation (Angstroms)
    I     Atom         X            Y            Z
 ----------------------------------------------------
    1      N       1.392919     0.000000     1.000000
    2      C      -1.394715     0.000000     1.000000
    3      C       0.699300     1.136758     1.000000
    4      C       0.699300    -1.136758     1.000000
    5      C      -0.687207    -1.191251     1.000000
    6      C      -0.687207     1.191251     1.000000
    7      H      -2.481841     0.000000     1.000000
    8      H       1.285868     2.055085     1.000000
    9      H       1.285868    -2.055085     1.000000
   10      H      -1.196477    -2.150561     1.000000
   11      H      -1.196477     2.150561     1.000000
 ----------------------------------------------------
 Nuclear Repulsion Energy =   206.9275345100 hartrees
 There are       21 alpha and       21 beta electrons

                       Distance Matrix (Angstroms)
             N (  1)   C (  2)   C (  3)   C (  4)   C (  5)   C (  6)
   C (  2)  2.787634
   C (  3)  1.331663  2.382670
   C (  4)  1.331663  2.382670  2.273516
   C (  5)  2.397082  1.385513  2.709617  1.387577
   C (  6)  2.397082  1.385513  1.387577  2.709617  2.382501
   H (  7)  3.874760  1.087126  3.378147  3.378147  2.154017  2.154017
   H (  8)  2.057871  3.377706  1.089672  3.245292  3.798910  2.153888
   H (  9)  2.057871  3.377706  3.245292  1.089672  2.153888  3.798910
   H ( 10)  3.365990  2.159678  3.794791  2.149830  1.086109  3.380394
   H ( 11)  3.365990  2.159678  2.149830  3.794791  3.380394  1.086109
             H (  7)   H (  8)   H (  9)   H ( 10)
   H (  8)  4.291736
   H (  9)  4.291736  4.110169
   H ( 10)  2.505409  4.883594  2.484180
   H ( 11)  2.505408  2.484181  4.883594  4.301122
 
 Requested basis set is G3large
 There are 90 shells and 302 basis functions
 A cutoff of  1.0D-11 yielded   3790 shell pairs
 There are  43402 function pairs ( 54647 Cartesian)
Evaluating contribution to one-electron hamiltonian from nuclear
 Smallest overlap matrix eigenvalue = 6.36E-06
 Multipole matrices computed through 2nd order
 Guess MOs from SCF MO coefficient file
Reading MOs from coefficient file
Reading MOs from coefficient file
 Long-range K will be added via erf
 Coulomb attenuation parameter = 0.31 bohr**(-1)
 A restricted Kohn-Sham SCF calculation will be
 performed using Pulay DIIS extrapolation
 Exchange:  wPBE + LR-HF      Correlation:  PBE
 Using SG-1 standard quadrature grid
 SCF converges when DIIS error is below 1.0E-08
 ---------------------------------------
  Cycle       Energy         DIIS Error
 ---------------------------------------
    1    -248.1365297671      1.84E-05
    2    -248.1365089700      2.27E-06
    3    -248.1365089344      1.75E-06
    4    -248.1365088024      3.56E-07
    5    -248.1365087872      1.69E-07
    6    -248.1365088013      7.81E-08
    7    -248.1365087924      1.57E-08
    8    -248.1365087908      6.41E-09 Convergence criterion met
 ---------------------------------------
 One-Electron    Energy =  -743.5529794732
 Total Coulomb   Energy =   324.1967983527
 Alpha Exchange  Energy =    -3.3709547056
 Beta  Exchange  Energy =    -3.3709547056
 DFT   Exchange  Energy =   -27.5795067512
 DFT Correlation Energy =    -1.3864460180
 Nuclear Repu.   Energy =   206.9275345100
 Nuclear Attr.   Energy =  -990.6866544569
 Kinetic         Energy =   247.1336749837
 SCF time:  CPU 357.48 s  wall 358.22 s
 Final Alpha MO Eigenvalues
            1           2           3           4           5           6
    1 -14.1508421 -10.0923005 -10.0922944 -10.0804509 -10.0691256 -10.0691023
            7           8           9          10          11          12
    1  -1.0485653  -0.9145709  -0.8717342  -0.7375587  -0.7356541  -0.6408201
           13          14          15          16          17          18
    1  -0.5856696  -0.5715600  -0.5303008  -0.5200646  -0.5043780  -0.4601585
           19          20          21          22          23          24
    1  -0.3918130  -0.3642519  -0.3540188   0.0345634   0.0360899   0.0443380
           25          26
    1   0.0497856   0.0507535
 Analysis of SCF Wavefunction
 
 --------------------------------------------------------------
                    Orbital Energies (a.u.)
 --------------------------------------------------------------
 
 Alpha MOs
 -- Occupied --
-14.151 -10.092 -10.092 -10.080 -10.069 -10.069  -1.049  -0.915
 -0.872  -0.738  -0.736  -0.641  -0.586  -0.572  -0.530  -0.520
 -0.504  -0.460  -0.392  -0.364  -0.354
 -- Virtual --
  0.035   0.036   0.044   0.050   0.051   0.065   0.075   0.106
  0.116   0.133   0.136   0.139   0.144   0.163   0.165   0.167
  0.171   0.180   0.189   0.198   0.198   0.203   0.206   0.207
  0.238   0.247   0.264   0.270   0.288   0.307   0.309   0.332
  0.339   0.356   0.359   0.363   0.373   0.400   0.424   0.432
  0.433   0.520   0.536   0.560   0.595   0.603   0.606   0.609
  0.611   0.637   0.645   0.653   0.683   0.688   0.697   0.699
  0.702   0.735   0.739   0.773   0.776   0.791   0.799   0.812
  0.838   0.841   0.862   0.872   0.875   0.883   0.895   0.901
  0.919   0.978   1.004   1.019   1.041   1.042   1.096   1.125
  1.135   1.147   1.189   1.200   1.215   1.254   1.262   1.286
  1.360   1.363   1.364   1.398   1.412   1.418   1.443   1.443
  1.477   1.489   1.492   1.500   1.532   1.536   1.575   1.674
  1.740   1.752   1.794   1.832   1.837   1.877   1.949   1.954
  2.063   2.075   2.135   2.162   2.311   2.578   2.578   2.635
  2.654   2.668   2.691   2.733   2.750   2.765   2.776   2.816
  2.845   2.866   2.873   2.879   2.902   2.905   2.912   2.932
  2.949   2.953   2.998   3.071   3.085   3.138   3.170   3.191
  3.191   3.196   3.245   3.248   3.250   3.257   3.286   3.312
  3.321   3.334   3.362   3.382   3.406   3.415   3.443   3.461
  3.473   3.497   3.515   3.532   3.560   3.628   3.634   3.642
  3.678   3.680   3.705   3.748   3.780   3.830   3.873   3.891
  3.896   3.902   3.949   3.971   4.010   4.050   4.068   4.104
  4.137   4.170   4.182   4.200   4.227   4.330   4.349   4.355
  4.446   4.455   4.456   4.518   4.564   4.566   4.601   4.606
  4.655   4.665   4.679   4.807   4.880   4.944   5.030   5.107
  5.108   5.143   5.178   5.191   5.319   5.323   5.347   5.416
  5.529   5.572   5.751   5.765   5.824   5.913   6.011   6.042
  6.159   6.262   6.854  23.850  24.221  24.431  24.620  24.899
 27.181  27.259  27.305  27.377  27.551  27.911  28.032  28.054
 28.193  28.224  28.236  28.413  28.425  28.476  28.778  35.892
 37.437  37.859  38.473  40.526  40.597  40.617  40.659  40.756
 40.790  40.831  40.849  40.917  40.927  40.984  41.013  41.024
 41.051  41.069  41.093  41.094  41.108  41.120  41.142  41.146
 41.151  41.160  41.164  41.169  41.206  41.301  41.343  41.379
 41.462
 --------------------------------------------------------------
 
          Ground-State Mulliken Net Atomic Charges

     Atom                 Charge (a.u.)
  ----------------------------------------
      1 N                    -0.203727
      2 C                    -0.167248
      3 C                    -0.186606
      4 C                    -0.186605
      5 C                    -0.028371
      6 C                    -0.028371
      7 H                     0.167335
      8 H                     0.163573
      9 H                     0.163573
     10 H                     0.153223
     11 H                     0.153223
  ----------------------------------------
  Sum of atomic charges =     0.000000

 -----------------------------------------------------------------
                    Cartesian Multipole Moments
 -----------------------------------------------------------------
    Charge (ESU x 10^10)
                 0.0000
    Dipole Moment (Debye)
         X      -2.3122      Y       0.0000      Z       0.0000
       Tot       2.3122
    Quadrupole Moments (Debye-Ang)
        XX     -36.2754     XY       0.0000     YY     -29.1866
        XZ      -2.3122     YZ       0.0000     ZZ     -37.7579
    Octapole Moments (Debye-Ang^2)
       XXX     -14.3320    XXY       0.0000    XYY       2.4631
       YYY       0.0000    XXZ     -36.2754    XYZ       0.0000
       YYZ     -29.1866    XZZ      -0.4069    YZZ       0.0000
       ZZZ    -113.2737
    Hexadecapole Moments (Debye-Ang^3)
      XXXX    -284.9876   XXXY       0.0000   XXYY     -79.9483
      XYYY       0.0000   YYYY    -249.8572   XXXZ     -14.3320
      XXYZ       0.0000   XYYZ       2.4631   YYYZ       0.0000
      XXZZ     -93.5947   XYZZ       0.0000   YYZZ     -87.8764
      XZZZ       3.4036   YZZZ       0.0000   ZZZZ    -269.0063
 -----------------------------------------------------------------
 Calculating analytic gradient of the SCF energy
 Gradient of AOints
            1           2           3           4           5           6
    1 -13.4918942   9.8488631  -4.9088258  -4.9088287   4.6779625   4.6779599
    2   0.0000012   0.0000023  -7.4547919   7.4547901   8.4329821  -8.4329846
    3  -0.0000000   0.0000000   0.0000000   0.0000000  -0.0000000  -0.0000000
            7           8           9          10          11
    1   4.9403623  -2.6967071  -2.6967065   2.2789070   2.2789073
    2  -0.0000001  -4.0478399   4.0478405   4.3986118  -4.3986116
    3  -0.0000000  -0.0000000  -0.0000000   0.0000000   0.0000000
 Gradient of XC Energy
            1           2           3           4           5           6
    1   0.2796055  -0.0953258   0.0309383   0.0309384  -0.0388061  -0.0388060
    2  -0.0000001  -0.0000001   0.0788768  -0.0788768  -0.0822050   0.0822051
    3   0.0000000  -0.0000000  -0.0000000  -0.0000000   0.0000000   0.0000000
            7           8           9          10          11
    1  -0.1993954   0.1066959   0.1066959  -0.0912705  -0.0912705
    2   0.0000000   0.1621797  -0.1621797  -0.1752744   0.1752744
    3   0.0000000   0.0000000   0.0000000  -0.0000000  -0.0000000
 Gradient of SCF Energy
            1           2           3           4           5           6
    1   0.0007281  -0.0000956  -0.0002297  -0.0002297  -0.0000959  -0.0000960
    2   0.0000000   0.0000001   0.0003001  -0.0003002  -0.0001280   0.0001279
    3  -0.0000000  -0.0000000   0.0000000   0.0000000  -0.0000000  -0.0000000
            7           8           9          10          11
    1  -0.0000302   0.0000461   0.0000461  -0.0000216  -0.0000216
    2   0.0000000   0.0000310  -0.0000310  -0.0000265   0.0000265
    3  -0.0000000   0.0000000  -0.0000000   0.0000000   0.0000000
 Max gradient component =       7.281E-04
 RMS gradient           =       1.638E-04
 Gradient time:  CPU 289.02 s  wall 289.18 s
 Writing REM_CC_EA           11
 ----------------------------------------------------
       Standard Nuclear Orientation (Angstroms)
    I     Atom         X            Y            Z
 ----------------------------------------------------
    1      N       1.390919     0.000000     1.000000
    2      C      -1.394715     0.000000     1.000000
    3      C       0.699300     1.136758     1.000000
    4      C       0.699300    -1.136758     1.000000
    5      C      -0.687207    -1.191251     1.000000
    6      C      -0.687207     1.191251     1.000000
    7      H      -2.481841     0.000000     1.000000
    8      H       1.285868     2.055085     1.000000
    9      H       1.285868    -2.055085     1.000000
   10      H      -1.196477    -2.150561     1.000000
   11      H      -1.196477     2.150561     1.000000
 ----------------------------------------------------
 Nuclear Repulsion Energy =   206.9744788991 hartrees
 There are       21 alpha and       21 beta electrons

                       Distance Matrix (Angstroms)
             N (  1)   C (  2)   C (  3)   C (  4)   C (  5)   C (  6)
   C (  2)  2.785634
   C (  3)  1.330622  2.382670
   C (  4)  1.330622  2.382670  2.273516
   C (  5)  2.395346  1.385513  2.709617  1.387577
   C (  6)  2.395347  1.385513  1.387577  2.709617  2.382501
   H (  7)  3.872760  1.087126  3.378147  3.378147  2.154017  2.154017
   H (  8)  2.057768  3.377706  1.089672  3.245292  3.798910  2.153888
   H (  9)  2.057768  3.377706  3.245292  1.089672  2.153888  3.798910
   H ( 10)  3.364451  2.159678  3.794791  2.149830  1.086109  3.380394
   H ( 11)  3.364451  2.159678  2.149830  3.794791  3.380394  1.086109
             H (  7)   H (  8)   H (  9)   H ( 10)
   H (  8)  4.291736
   H (  9)  4.291736  4.110169
   H ( 10)  2.505409  4.883594  2.484180
   H ( 11)  2.505408  2.484181  4.883594  4.301122
 
 Requested basis set is G3large
 There are 90 shells and 302 basis functions
 A cutoff of  1.0D-11 yielded   3790 shell pairs
 There are  43402 function pairs ( 54647 Cartesian)
Evaluating contribution to one-electron hamiltonian from nuclear
 Smallest overlap matrix eigenvalue = 6.37E-06
 Multipole matrices computed through 2nd order
 Guess MOs from SCF MO coefficient file
Reading MOs from coefficient file
Reading MOs from coefficient file
 Long-range K will be added via erf
 Coulomb attenuation parameter = 0.31 bohr**(-1)
 A restricted Kohn-Sham SCF calculation will be
 performed using Pulay DIIS extrapolation
 Exchange:  wPBE + LR-HF      Correlation:  PBE
 Using SG-1 standard quadrature grid
 SCF converges when DIIS error is below 1.0E-08
 ---------------------------------------
  Cycle       Energy         DIIS Error
 ---------------------------------------
    1    -248.1364716388      3.68E-05
    2    -248.1365084467      4.52E-06
    3    -248.1365086037      3.47E-06
    4    -248.1365086477      7.06E-07
    5    -248.1365086825      3.34E-07
    6    -248.1365086198      1.56E-07
    7    -248.1365087421      3.12E-08
    8    -248.1365087521      1.28E-08
    9    -248.1365087524      4.01E-09 Convergence criterion met
 ---------------------------------------
 One-Electron    Energy =  -743.6460645627
 Total Coulomb   Energy =   324.2442379166
 Alpha Exchange  Energy =    -3.3710030866
 Beta  Exchange  Energy =    -3.3710030866
 DFT   Exchange  Energy =   -27.5806296963
 DFT Correlation Energy =    -1.3865251358
 Nuclear Repu.   Energy =   206.9744788991
 Nuclear Attr.   Energy =  -990.7847112812
 Kinetic         Energy =   247.1386467185
 SCF time:  CPU 400.95 s  wall 402.00 s
 Final Alpha MO Eigenvalues
            1           2           3           4           5           6
    1 -14.1505723 -10.0922021 -10.0921961 -10.0803882 -10.0690684 -10.0690451
            7           8           9          10          11          12
    1  -1.0489018  -0.9145259  -0.8718179  -0.7377114  -0.7355783  -0.6408532
           13          14          15          16          17          18
    1  -0.5857963  -0.5715417  -0.5303536  -0.5202371  -0.5043840  -0.4603199
           19          20          21          22          23          24
    1  -0.3918686  -0.3642461  -0.3536439   0.0345782   0.0362724   0.0443429
           25          26
    1   0.0497780   0.0507503
 Analysis of SCF Wavefunction
 
 --------------------------------------------------------------
                    Orbital Energies (a.u.)
 --------------------------------------------------------------
 
 Alpha MOs
 -- Occupied --
-14.151 -10.092 -10.092 -10.080 -10.069 -10.069  -1.049  -0.915
 -0.872  -0.738  -0.736  -0.641  -0.586  -0.572  -0.530  -0.520
 -0.504  -0.460  -0.392  -0.364  -0.354
 -- Virtual --
  0.035   0.036   0.044   0.050   0.051   0.065   0.075   0.106
  0.116   0.133   0.136   0.139   0.144   0.163   0.165   0.167
  0.171   0.180   0.189   0.198   0.198   0.203   0.206   0.207
  0.238   0.247   0.264   0.270   0.288   0.307   0.309   0.332
  0.339   0.356   0.359   0.363   0.373   0.400   0.424   0.433
  0.433   0.520   0.536   0.560   0.595   0.603   0.606   0.609
  0.611   0.637   0.645   0.654   0.683   0.688   0.697   0.699
  0.702   0.735   0.739   0.773   0.776   0.791   0.799   0.812
  0.839   0.842   0.862   0.872   0.875   0.883   0.895   0.901
  0.919   0.978   1.004   1.019   1.041   1.042   1.097   1.125
  1.135   1.147   1.189   1.200   1.215   1.254   1.262   1.285
  1.360   1.363   1.365   1.398   1.412   1.418   1.443   1.443
  1.477   1.489   1.493   1.500   1.532   1.536   1.576   1.674
  1.741   1.753   1.794   1.832   1.837   1.877   1.949   1.954
  2.063   2.075   2.135   2.163   2.312   2.578   2.578   2.634
  2.654   2.669   2.691   2.733   2.750   2.765   2.776   2.816
  2.845   2.867   2.873   2.880   2.902   2.905   2.912   2.932
  2.949   2.953   2.998   3.071   3.085   3.139   3.170   3.191
  3.191   3.196   3.245   3.248   3.250   3.257   3.286   3.313
  3.321   3.335   3.362   3.382   3.406   3.415   3.444   3.460
  3.473   3.497   3.516   3.532   3.560   3.629   3.634   3.642
  3.678   3.680   3.707   3.749   3.780   3.830   3.873   3.891
  3.897   3.902   3.950   3.971   4.010   4.050   4.069   4.104
  4.137   4.170   4.183   4.200   4.227   4.331   4.350   4.356
  4.446   4.455   4.456   4.519   4.564   4.567   4.602   4.606
  4.655   4.666   4.679   4.809   4.880   4.945   5.030   5.108
  5.110   5.143   5.178   5.191   5.320   5.323   5.350   5.415
  5.530   5.572   5.751   5.765   5.824   5.915   6.012   6.045
  6.162   6.263   6.857  23.851  24.221  24.432  24.621  24.900
 27.181  27.259  27.305  27.377  27.551  27.911  28.032  28.054
 28.194  28.224  28.237  28.413  28.426  28.476  28.778  35.895
 37.438  37.860  38.476  40.527  40.597  40.618  40.660  40.756
 40.791  40.831  40.849  40.918  40.927  40.985  41.014  41.024
 41.051  41.069  41.093  41.094  41.108  41.121  41.142  41.146
 41.151  41.160  41.165  41.169  41.206  41.301  41.343  41.381
 41.463
 --------------------------------------------------------------
 
          Ground-State Mulliken Net Atomic Charges

     Atom                 Charge (a.u.)
  ----------------------------------------
      1 N                    -0.203516
      2 C                    -0.167276
      3 C                    -0.186530
      4 C                    -0.186530
      5 C                    -0.028414
      6 C                    -0.028414
      7 H                     0.167324
      8 H                     0.163532
      9 H                     0.163532
     10 H                     0.153147
     11 H                     0.153147
  ----------------------------------------
  Sum of atomic charges =     0.000000

 -----------------------------------------------------------------
                    Cartesian Multipole Moments
 -----------------------------------------------------------------
    Charge (ESU x 10^10)
                 0.0000
    Dipole Moment (Debye)
         X      -2.3076      Y       0.0000      Z       0.0000
       Tot       2.3076
    Quadrupole Moments (Debye-Ang)
        XX     -36.2684     XY       0.0000     YY     -29.1868
        XZ      -2.3076     YZ       0.0000     ZZ     -37.7534
    Octapole Moments (Debye-Ang^2)
       XXX     -14.2613    XXY       0.0000    XYY       2.4825
       YYY       0.0000    XXZ     -36.2684    XYZ       0.0000
       YYZ     -29.1868    XZZ      -0.3850    YZZ       0.0000
       ZZZ    -113.2603
    Hexadecapole Moments (Debye-Ang^3)
      XXXX    -284.7321   XXXY       0.0000   XXYY     -79.9256
      XYYY       0.0000   YYYY    -249.8727   XXXZ     -14.2613
      XXYZ       0.0000   XYYZ       2.4825   YYYZ       0.0000
      XXZZ     -93.5504   XYZZ       0.0000   YYZZ     -87.8733
      XZZZ       3.4603   YZZZ       0.0000   ZZZZ    -268.9705
 -----------------------------------------------------------------
 Calculating analytic gradient of the SCF energy
 Gradient of AOints
            1           2           3           4           5           6
    1 -13.4673108   9.8500638  -4.9182755  -4.9182798   4.6755511   4.6755473
    2   0.0000011   0.0000019  -7.4700936   7.4700920   8.4338873  -8.4338892
    3   0.0000000   0.0000000  -0.0000000  -0.0000000   0.0000000   0.0000000
            7           8           9          10          11
    1   4.9407459  -2.6972486  -2.6972482   2.2782271   2.2782276
    2  -0.0000002  -4.0483499   4.0483505   4.3987382  -4.3987382
    3   0.0000000   0.0000000  -0.0000000  -0.0000000  -0.0000000
 Gradient of XC Energy
            1           2           3           4           5           6
    1   0.2788519  -0.0953241   0.0311762   0.0311763  -0.0386924  -0.0386922
    2  -0.0000001  -0.0000001   0.0794127  -0.0794127  -0.0821419   0.0821420
    3  -0.0000000  -0.0000000   0.0000000   0.0000000  -0.0000000  -0.0000000
            7           8           9          10          11
    1  -0.1993987   0.1066939   0.1066939  -0.0912424  -0.0912424
    2   0.0000000   0.1621923  -0.1621923  -0.1752694   0.1752694
    3   0.0000000  -0.0000000   0.0000000   0.0000000   0.0000000
 Gradient of SCF Energy
            1           2           3           4           5           6
    1  -0.0008487  -0.0001131   0.0004911   0.0004910   0.0000080   0.0000078
    2   0.0000000   0.0000001  -0.0001673   0.0001673   0.0000064  -0.0000065
    3  -0.0000000  -0.0000000   0.0000000   0.0000000  -0.0000000  -0.0000000
            7           8           9          10          11
    1  -0.0000325  -0.0000062  -0.0000062   0.0000044   0.0000044
    2   0.0000000   0.0000581  -0.0000581  -0.0000270   0.0000270
    3   0.0000000   0.0000000   0.0000000  -0.0000000   0.0000000
 Max gradient component =       8.487E-04
 RMS gradient           =       1.970E-04
 Gradient time:  CPU 288.71 s  wall 288.86 s
 Writing REM_CC_EA           11
 ----------------------------------------------------
       Standard Nuclear Orientation (Angstroms)
    I     Atom         X            Y            Z
 ----------------------------------------------------
    1      N       1.391919     0.001000     1.000000
    2      C      -1.394715     0.000000     1.000000
    3      C       0.699300     1.136758     1.000000
    4      C       0.699300    -1.136758     1.000000
    5      C      -0.687207    -1.191251     1.000000
    6      C      -0.687207     1.191251     1.000000
    7      H      -2.481841     0.000000     1.000000
    8      H       1.285868     2.055085     1.000000
    9      H       1.285868    -2.055085     1.000000
   10      H      -1.196477    -2.150561     1.000000
   11      H      -1.196477     2.150561     1.000000
 ----------------------------------------------------
 Nuclear Repulsion Energy =   206.9510167963 hartrees
 There are       21 alpha and       21 beta electrons

                       Distance Matrix (Angstroms)
             N (  1)   C (  2)   C (  3)   C (  4)   C (  5)   C (  6)
   C (  2)  2.786634
   C (  3)  1.330288  2.382670
   C (  4)  1.331996  2.382670  2.273516
   C (  5)  2.396711  1.385513  2.709617  1.387577
   C (  6)  2.395717  1.385513  1.387577  2.709617  2.382501
   H (  7)  3.873760  1.087126  3.378147  3.378147  2.154017  2.154017
   H (  8)  2.056820  3.377706  1.089672  3.245292  3.798910  2.153888
   H (  9)  2.058818  3.377706  3.245292  1.089672  2.153888  3.798910
   H ( 10)  3.365859  2.159678  3.794791  2.149830  1.086109  3.380394
   H ( 11)  3.364581  2.159678  2.149830  3.794791  3.380394  1.086109
             H (  7)   H (  8)   H (  9)   H ( 10)
   H (  8)  4.291736
   H (  9)  4.291736  4.110169
   H ( 10)  2.505409  4.883594  2.484180
   H ( 11)  2.505408  2.484181  4.883594  4.301122
 
 Requested basis set is G3large
 There are 90 shells and 302 basis functions
 A cutoff of  1.0D-11 yielded   3790 shell pairs
 There are  43402 function pairs ( 54647 Cartesian)
Evaluating contribution to one-electron hamiltonian from nuclear
 Smallest overlap matrix eigenvalue = 6.37E-06
 Multipole matrices computed through 2nd order
 Guess MOs from SCF MO coefficient file
Reading MOs from coefficient file
Reading MOs from coefficient file
 Long-range K will be added via erf
 Coulomb attenuation parameter = 0.31 bohr**(-1)
 A restricted Kohn-Sham SCF calculation will be
 performed using Pulay DIIS extrapolation
 Exchange:  wPBE + LR-HF      Correlation:  PBE
 Using SG-1 standard quadrature grid
 SCF converges when DIIS error is below 1.0E-08
 ---------------------------------------
  Cycle       Energy         DIIS Error
 ---------------------------------------
    1    -248.1365314698      3.05E-05
    2    -248.1365081120      4.32E-06
    3    -248.1365080982      3.33E-06
    4    -248.1365083495      7.40E-07
    5    -248.1365083417      2.92E-07
    6    -248.1365083951      2.01E-07
    7    -248.1365083771      6.52E-08
    8    -248.1365083696      3.48E-08
    9    -248.1365083741      8.44E-09 Convergence criterion met
 ---------------------------------------
 One-Electron    Energy =  -743.5995362251
 Total Coulomb   Energy =   324.2205233625
 Alpha Exchange  Energy =    -3.3709789371
 Beta  Exchange  Energy =    -3.3709789371
 DFT   Exchange  Energy =   -27.5800688481
 DFT Correlation Energy =    -1.3864855854
 Nuclear Repu.   Energy =   206.9510167963
 Nuclear Attr.   Energy =  -990.7357005110
 Kinetic         Energy =   247.1361642859
 SCF time:  CPU 408.82 s  wall 410.12 s
 Final Alpha MO Eigenvalues
            1           2           3           4           5           6
    1 -14.1507070 -10.0923348 -10.0921614 -10.0804194 -10.0691078 -10.0690625
            7           8           9          10          11          12
    1  -1.0487340  -0.9145487  -0.8717755  -0.7376383  -0.7356127  -0.6408366
           13          14          15          16          17          18
    1  -0.5857327  -0.5715508  -0.5303272  -0.5201509  -0.5043809  -0.4602394
           19          20          21          22          23          24
    1  -0.3918414  -0.3642485  -0.3538311   0.0345708   0.0361805   0.0443404
           25          26
    1   0.0497829   0.0507519
 Analysis of SCF Wavefunction
 
 --------------------------------------------------------------
                    Orbital Energies (a.u.)
 --------------------------------------------------------------
 
 Alpha MOs
 -- Occupied --
-14.151 -10.092 -10.092 -10.080 -10.069 -10.069  -1.049  -0.915
 -0.872  -0.738  -0.736  -0.641  -0.586  -0.572  -0.530  -0.520
 -0.504  -0.460  -0.392  -0.364  -0.354
 -- Virtual --
  0.035   0.036   0.044   0.050   0.051   0.065   0.075   0.106
  0.116   0.133   0.136   0.139   0.144   0.163   0.165   0.167
  0.171   0.180   0.189   0.198   0.198   0.203   0.206   0.207
  0.238   0.247   0.264   0.270   0.288   0.307   0.309   0.332
  0.339   0.356   0.359   0.363   0.373   0.400   0.424   0.432
  0.433   0.520   0.536   0.560   0.595   0.603   0.606   0.609
  0.611   0.637   0.645   0.653   0.683   0.688   0.697   0.699
  0.702   0.735   0.739   0.773   0.776   0.791   0.799   0.812
  0.838   0.841   0.862   0.872   0.875   0.883   0.895   0.901
  0.919   0.978   1.004   1.019   1.041   1.042   1.096   1.125
  1.135   1.147   1.189   1.200   1.215   1.254   1.262   1.285
  1.360   1.363   1.364   1.398   1.412   1.418   1.443   1.443
  1.477   1.489   1.492   1.500   1.532   1.536   1.575   1.674
  1.741   1.753   1.794   1.832   1.837   1.877   1.949   1.954
  2.063   2.075   2.135   2.162   2.312   2.578   2.578   2.634
  2.654   2.669   2.691   2.733   2.750   2.765   2.776   2.816
  2.845   2.866   2.873   2.880   2.902   2.905   2.912   2.932
  2.949   2.953   2.998   3.071   3.085   3.139   3.170   3.191
  3.191   3.196   3.245   3.248   3.250   3.257   3.286   3.312
  3.321   3.335   3.362   3.382   3.406   3.415   3.443   3.460
  3.473   3.497   3.515   3.532   3.560   3.628   3.634   3.642
  3.678   3.680   3.706   3.748   3.780   3.830   3.873   3.891
  3.897   3.902   3.949   3.971   4.010   4.050   4.068   4.104
  4.137   4.170   4.182   4.200   4.227   4.330   4.349   4.356
  4.446   4.455   4.456   4.519   4.564   4.566   4.601   4.606
  4.655   4.666   4.679   4.808   4.880   4.944   5.030   5.108
  5.109   5.143   5.178   5.191   5.319   5.323   5.348   5.416
  5.530   5.572   5.751   5.765   5.824   5.914   6.012   6.043
  6.160   6.263   6.855  23.850  24.221  24.432  24.620  24.900
 27.181  27.259  27.305  27.377  27.551  27.911  28.032  28.054
 28.193  28.224  28.237  28.413  28.426  28.476  28.778  35.894
 37.437  37.859  38.474  40.526  40.597  40.618  40.660  40.756
 40.791  40.831  40.849  40.917  40.927  40.985  41.013  41.024
 41.051  41.069  41.093  41.094  41.108  41.121  41.142  41.146
 41.151  41.160  41.164  41.169  41.206  41.301  41.343  41.380
 41.462
 --------------------------------------------------------------
 
          Ground-State Mulliken Net Atomic Charges

     Atom                 Charge (a.u.)
  ----------------------------------------
      1 N                    -0.203623
      2 C                    -0.167261
      3 C                    -0.186425
      4 C                    -0.186709
      5 C                    -0.028284
      6 C                    -0.028504
      7 H                     0.167329
      8 H                     0.163554
      9 H                     0.163551
     10 H                     0.153190
     11 H                     0.153180
  ----------------------------------------
  Sum of atomic charges =     0.000000

 -----------------------------------------------------------------
                    Cartesian Multipole Moments
 -----------------------------------------------------------------
    Charge (ESU x 10^10)
                 0.0000
    Dipole Moment (Debye)
         X      -2.3099      Y      -0.0019      Z       0.0000
       Tot       2.3099
    Quadrupole Moments (Debye-Ang)
        XX     -36.2719     XY      -0.0022     YY     -29.1867
        XZ      -2.3099     YZ      -0.0019     ZZ     -37.7557
    Octapole Moments (Debye-Ang^2)
       XXX     -14.2966    XXY      -0.0147    XYY       2.4728
       YYY      -0.0253    XXZ     -36.2719    XYZ      -0.0022
       YYZ     -29.1867    XZZ      -0.3960    YZZ      -0.0045
       ZZZ    -113.2670
    Hexadecapole Moments (Debye-Ang^3)
      XXXX    -284.8599   XXXY      -0.0296   XXYY     -79.9369
      XYYY      -0.0348   YYYY    -249.8650   XXXZ     -14.2966
      XXYZ      -0.0147   XYYZ       2.4728   YYYZ      -0.0253
      XXZZ     -93.5726   XYZZ      -0.0063   YYZZ     -87.8749
      XZZZ       3.4319   YZZZ      -0.0098   ZZZZ    -268.9884
 -----------------------------------------------------------------
 Calculating analytic gradient of the SCF energy
 Gradient of AOints
            1           2           3           4           5           6
    1 -13.4796103   9.8494587  -4.9018859  -4.9252084   4.6825467   4.6709675
    2  -0.0015003   0.0070566  -7.4670643   7.4578107   8.4329136  -8.4339524
    3   0.0000000   0.0000000  -0.0000000  -0.0000000   0.0000000  -0.0000000
            7           8           9          10          11
    1   4.9405541  -2.6987663  -2.6951929   2.2783691   2.2787678
    2  -0.0000553  -4.0456264   4.0505585   4.3986045  -4.3987452
    3   0.0000000   0.0000000  -0.0000000  -0.0000000   0.0000000
 Gradient of XC Energy
            1           2           3           4           5           6
    1   0.2792291  -0.0953248   0.0306303   0.0314838  -0.0389520  -0.0385463
    2  -0.0001986  -0.0001765   0.0793818  -0.0789075  -0.0821471   0.0821997
    3  -0.0000000  -0.0000000   0.0000000   0.0000000  -0.0000000   0.0000000
            7           8           9          10          11
    1  -0.1993971   0.1067423   0.1066476  -0.0912542  -0.0912587
    2   0.0000029   0.1621068  -0.1622650  -0.1752701   0.1752737
    3  -0.0000000  -0.0000000   0.0000000   0.0000000  -0.0000000
 Gradient of SCF Energy
            1           2           3           4           5           6
    1  -0.0000625  -0.0001044   0.0002781  -0.0000145  -0.0002586   0.0001705
    2   0.0012666  -0.0001888  -0.0004867  -0.0006173   0.0000108   0.0001325
    3   0.0000000   0.0000000  -0.0000000   0.0000000  -0.0000000   0.0000000
            7           8           9          10          11
    1  -0.0000314   0.0000547  -0.0000147  -0.0000108  -0.0000064
    2  -0.0000020  -0.0000165  -0.0001054  -0.0000234   0.0000302
    3   0.0000000   0.0000000   0.0000000  -0.0000000   0.0000000
 Max gradient component =       1.267E-03
 RMS gradient           =       2.742E-04
 Gradient time:  CPU 288.67 s  wall 288.80 s
 Writing REM_CC_EA           11
 ----------------------------------------------------
[...]
Order 1, Length 33
   0.0071637  -0.0322433  -0.0000017  -0.0006413   0.0011247   0.0000000  -0.0021695  -0.0024776   0.0000007   0.1280932  -0.2367214  -0.0000040  -0.0026694   0.0045464   0.0000000  -0.0003063  -0.0000380   0.0000019  -0.0002008   0.0001113   0.0000000   0.0005101  -0.0007250   0.0000000  -0.1305356   0.2659691  -0.0000018   0.0005438   0.0004520  -0.0000019   0.0002096   0.0000167  -0.0000018
Order 1, Length 33
  -0.0000007   0.0000020  -0.0035373   0.0000063   0.0000067   0.0071683   0.0000005   0.0000047   0.0108594  -0.0000005  -0.0000034  -0.0433559  -0.0000027   0.0000006   0.0076233  -0.0000038  -0.0000030  -0.0005386   0.0000033  -0.0000002  -0.0004792   0.0000063  -0.0000012   0.0003167   0.0000018  -0.0000018   0.0270191   0.0000081   0.0000000  -0.0032566   0.0000018   0.0000000  -0.0018044
Order 1, Length 33
  -0.0068776  -0.0011691   0.0000185   0.0121125   0.0154075  -0.0000017  -0.0014616   0.0021017  -0.0000119  -0.0057697  -0.0293581  -0.0000067  -0.1209613  -0.1166944  -0.0000157  -0.0007251   0.0035133   0.0000042   0.0008122  -0.0005946   0.0000041   0.0001198  -0.0002082  -0.0000028   0.0005983   0.0005438   0.0000081   0.1217206   0.1256687  -0.0000007   0.0004337   0.0008029   0.0000046
Order 1, Length 33
   0.0001408   0.0018212   0.0000006  -0.0147808  -0.0168398   0.0000000   0.0010182   0.0001604   0.0000029   0.0023766   0.0028398   0.0000000  -0.1170436  -0.2768193   0.0000000   0.0036958  -0.0028628   0.0000046   0.0002721   0.0009149   0.0000000  -0.0000733   0.0000124   0.0000000  -0.0004749   0.0004520   0.0000000   0.1256687   0.2911456  -0.0000004  -0.0007997  -0.0007980  -0.0000018
Order 1, Length 33
  -0.0000002   0.0000023   0.0078181   0.0000021  -0.0000032   0.0033516   0.0000042  -0.0000035  -0.0002852  -0.0000043   0.0000039   0.0017006   0.0000035   0.0000016  -0.0373012   0.0000012  -0.0000007   0.0080116  -0.0000050   0.0000003  -0.0041449   0.0000025   0.0000001  -0.0018046   0.0000033  -0.0000019  -0.0032566  -0.0000007  -0.0000004   0.0256579   0.0000047   0.0000000   0.0002634
Order 1, Length 33
  -0.0068765   0.0011615   0.0000053   0.0121131  -0.0154103  -0.0000040  -0.0057707   0.0293582  -0.0000023  -0.0014625  -0.0021032  -0.0000076  -0.0007246  -0.0035137   0.0000043  -0.1209629   0.1167016  -0.0000130   0.0008121   0.0005967   0.0000033   0.0005928  -0.0005404   0.0000063   0.0001156   0.0002096   0.0000018   0.0004337  -0.0007997   0.0000047   0.1217220  -0.1256665   0.0000005
Order 1, Length 33
  -0.0001374   0.0018065   0.0000002   0.0147872  -0.0168548   0.0000000  -0.0023931   0.0028519   0.0000000  -0.0010105   0.0001616  -0.0000026  -0.0037109  -0.0028502   0.0000007   0.1170474  -0.2768210   0.0000000  -0.0002702   0.0009112   0.0000000   0.0004906   0.0004498   0.0000000   0.0000840   0.0000167   0.0000000   0.0008029  -0.0007980   0.0000000  -0.1256665   0.2911434  -0.0000031
Order 1, Length 33
  -0.0000006   0.0000019   0.0078182  -0.0000001   0.0000045   0.0033516   0.0000010  -0.0000008   0.0017003   0.0000028   0.0000048  -0.0002853   0.0000008  -0.0000016   0.0080116   0.0000046   0.0000001  -0.0373011   0.0000010  -0.0000003  -0.0041448   0.0000015  -0.0000019  -0.0032566  -0.0000009  -0.0000018  -0.0018044   0.0000046  -0.0000018   0.0002634   0.0000005  -0.0000031   0.0256580


 # Finishing finite difference calculation for IDERIV #
 ######################################################
 ######################################################
 Requested basis set is G3large
 There are 90 shells and 302 basis functions
 **********************************************************************
 **                                                                  **
 **                       VIBRATIONAL ANALYSIS                       **
 **                       --------------------                       **
 **                                                                  **
 **        VIBRATIONAL FREQUENCIES (CM**-1) AND NORMAL MODES         **
 **     FORCE CONSTANTS (mDYN/ANGSTROM) AND REDUCED MASSES (AMU)     **
 **                  INFRARED INTENSITIES (KM/MOL)                   **
 **                                                                  **
 **********************************************************************
 

 Mode:                 1                      2                      3
 Frequency:       378.29                 412.74                 605.21
 Force Cnst:      0.2133                 0.3738                 1.5270
 Red. Mass:       2.5295                 3.7243                 7.0759
 IR Active:          YES                    YES                    YES
 IR Intens:        0.000                  3.828                  3.896
 Raman Active:       YES                    YES                    YES
               X      Y      Z        X      Y      Z        X      Y      Z
 N          0.000  0.000  0.000    0.000  0.000  0.278    0.397  0.000  0.000
 C          0.000  0.000  0.000    0.000  0.000  0.273   -0.399  0.000  0.000
 C          0.000  0.000  0.184    0.000  0.000 -0.119    0.022 -0.210  0.000
 C          0.000  0.000 -0.184    0.000  0.000 -0.119    0.022  0.210  0.000
 C          0.000  0.000  0.188    0.000  0.000 -0.163   -0.038  0.239  0.000
 C          0.000  0.000 -0.188    0.000  0.000 -0.163   -0.038 -0.239  0.000
 H          0.000  0.000  0.000    0.000  0.000  0.678   -0.399  0.000  0.000
 H          0.000  0.000  0.514    0.000  0.000 -0.237   -0.275 -0.023  0.000
 H          0.000  0.000 -0.514    0.000  0.000 -0.237   -0.275  0.023  0.000
 H          0.000  0.000  0.408    0.000  0.000 -0.313    0.278  0.072  0.000
 H          0.000  0.000 -0.408    0.000  0.000 -0.313    0.278 -0.072  0.000
 TransDip   0.000  0.000  0.000    0.000  0.000 -0.063   -0.063  0.000  0.000

 Mode:                 4                      5                      6
 Frequency:       662.82                 717.83                 768.62
 Force Cnst:      1.6370                 0.3965                 0.8025
 Red. Mass:       6.3242                 1.3059                 2.3054
 IR Active:          YES                    YES                    YES
 IR Intens:        0.273                 65.040                  7.986
 Raman Active:       YES                    YES                    YES
               X      Y      Z        X      Y      Z        X      Y      Z
 N          0.000 -0.137  0.000    0.000  0.000 -0.061    0.000  0.000  0.168
 C          0.000  0.156  0.000    0.000  0.000  0.010    0.000  0.000 -0.164
 C         -0.228 -0.229  0.000    0.000  0.000  0.039    0.000  0.000 -0.151
 C          0.228 -0.229  0.000    0.000  0.000  0.039    0.000  0.000 -0.151
 C          0.241  0.237  0.000    0.000  0.000 -0.099    0.000  0.000  0.078
 C         -0.241  0.237  0.000    0.000  0.000 -0.099    0.000  0.000  0.078
 H          0.000 -0.280  0.000    0.000  0.000  0.540    0.000  0.000  0.193
 H         -0.148 -0.282  0.000    0.000  0.000  0.475    0.000  0.000 -0.064
 H          0.148 -0.282  0.000    0.000  0.000  0.475    0.000  0.000 -0.064
 H          0.044  0.342  0.000    0.000  0.000  0.339    0.000  0.000  0.649
 H         -0.044  0.342  0.000    0.000  0.000  0.339    0.000  0.000  0.649
 TransDip   0.000 -0.017  0.000    0.000  0.000  0.258    0.000  0.000  0.090

 Mode:                 7                      8                      9
 Frequency:       900.92                 970.15                1013.70
 Force Cnst:      0.5971                 0.7492                 4.2619
 Red. Mass:       1.2487                 1.3511                 7.0394
 IR Active:          YES                    YES                    YES
 IR Intens:        0.000                  0.000                  7.644
 Raman Active:       YES                    YES                    YES
               X      Y      Z        X      Y      Z        X      Y      Z
 N          0.000  0.000  0.000    0.000  0.000  0.028    0.430  0.000  0.000
 C          0.000  0.000  0.000    0.000  0.000  0.087    0.171  0.000  0.000
 C          0.000  0.000 -0.056    0.000  0.000 -0.103   -0.089 -0.057  0.000
 C          0.000  0.000  0.056    0.000  0.000 -0.103   -0.089  0.057  0.000
 C          0.000  0.000  0.088    0.000  0.000  0.027   -0.207 -0.310  0.000
 C          0.000  0.000 -0.088    0.000  0.000  0.027   -0.207  0.310  0.000
 H          0.000  0.000  0.000    0.000  0.000 -0.548    0.163  0.000  0.001
 H          0.000  0.000  0.341    0.000  0.000  0.569   -0.173 -0.001  0.001
 H          0.000  0.000 -0.341    0.000  0.000  0.569   -0.173  0.001 -0.001
 H          0.000  0.000 -0.611    0.000  0.000 -0.105   -0.382 -0.230  0.000
 H          0.000  0.000  0.611    0.000  0.000 -0.105   -0.383  0.230 -0.002
 TransDip   0.000  0.000  0.000    0.000  0.000  0.000   -0.089  0.000  0.000

 Mode:                10                     11                     12
 Frequency:      1018.58                1031.60                1057.24
 Force Cnst:      0.9041                 0.8481                 3.2419
 Red. Mass:       1.4791                 1.3526                 4.9226
 IR Active:          YES                    YES                    YES
 IR Intens:        0.000                  0.030                  2.254
 Raman Active:       YES                    YES                    YES
               X      Y      Z        X      Y      Z        X      Y      Z
 N          0.000  0.000  0.000    0.000  0.000 -0.002   -0.041  0.000  0.000
 C          0.000  0.000  0.000    0.000  0.000 -0.119    0.360  0.000  0.000
 C          0.000  0.000  0.123    0.000  0.000 -0.033   -0.188 -0.231  0.000
 C          0.000  0.000 -0.123    0.000  0.000 -0.033   -0.188  0.231  0.000
 C          0.000  0.000  0.080    0.000  0.000  0.087    0.055  0.144  0.000
 C          0.000  0.000 -0.080    0.000  0.000  0.087    0.054 -0.144  0.000
 H          0.000  0.000  0.000    0.000  0.000  0.660    0.387  0.000  0.000
 H          0.000  0.000 -0.605    0.000  0.000  0.219   -0.442 -0.091 -0.001
 H          0.000  0.000  0.605    0.000  0.000  0.219   -0.442  0.091  0.000
 H         -0.001  0.000 -0.335    0.000  0.000 -0.467   -0.011  0.208  0.000
 H          0.000  0.000  0.335    0.000  0.000 -0.467   -0.012 -0.208  0.000
 TransDip   0.000  0.000  0.000    0.000  0.000 -0.006   -0.048  0.000  0.000

 Mode:                13                     14                     15
 Frequency:      1085.80                1096.31                1155.45
 Force Cnst:      1.1409                 1.0885                 0.9187
 Red. Mass:       1.6425                 1.5372                 1.1679
 IR Active:          YES                    YES                    YES
 IR Intens:        0.027                  6.419                  3.251
 Raman Active:       YES                    YES                    YES
               X      Y      Z        X      Y      Z        X      Y      Z
 N          0.000  0.073  0.000   -0.063  0.000  0.000    0.000  0.013  0.000
 C          0.000  0.070  0.000   -0.042  0.000  0.000    0.000  0.083  0.000
 C         -0.106 -0.053  0.000   -0.023 -0.101  0.000    0.014 -0.027  0.000
 C          0.106 -0.052  0.000   -0.024  0.101  0.000   -0.014 -0.027  0.000
 C         -0.071 -0.066  0.000    0.030 -0.096  0.000    0.045 -0.028  0.000
 C          0.071 -0.065  0.000    0.030  0.096  0.000   -0.045 -0.028  0.000
 H          0.000  0.539  0.000   -0.048  0.000  0.000    0.000  0.712  0.000
 H         -0.391  0.124  0.000    0.085 -0.173  0.000    0.062 -0.057  0.000
 H          0.392  0.124  0.000    0.084  0.173  0.000   -0.062 -0.057  0.000
 H         -0.385  0.092  0.000    0.547 -0.374  0.000    0.423 -0.230  0.000
 H          0.387  0.093  0.000    0.546  0.373  0.000   -0.424 -0.230  0.000
 TransDip   0.000  0.005  0.000    0.081  0.000  0.000    0.000  0.058  0.000

 Mode:                16                     17                     18
 Frequency:      1239.68                1280.70                1370.63
 Force Cnst:      1.1318                 5.5970                 1.3300
 Red. Mass:       1.2499                 5.7917                 1.2016
 IR Active:          YES                    YES                    YES
 IR Intens:        4.163                  0.388                  0.054
 Raman Active:       YES                    YES                    YES
               X      Y      Z        X      Y      Z        X      Y      Z
 N         -0.029  0.000  0.000    0.000  0.326  0.000    0.000  0.049  0.000
 C         -0.009  0.000  0.000    0.000  0.210  0.000    0.000 -0.078  0.000
 C          0.034 -0.093  0.000    0.234 -0.164  0.000   -0.049  0.026  0.000
 C          0.034  0.092  0.000   -0.234 -0.165  0.000    0.049  0.026  0.000
 C         -0.028 -0.001  0.000    0.189 -0.123  0.000    0.033 -0.015  0.000
 C         -0.028  0.001  0.000   -0.189 -0.123  0.000   -0.033 -0.015  0.000
 H         -0.011  0.000  0.000    0.000 -0.486  0.000    0.000  0.348  0.000
 H          0.482 -0.386  0.000    0.059 -0.025  0.000    0.487 -0.322  0.000
 H          0.482  0.386  0.000   -0.060 -0.027  0.000   -0.487 -0.322  0.000
 H         -0.296  0.142  0.000   -0.374  0.175  0.000   -0.264  0.143  0.000
 H         -0.296 -0.142  0.000    0.374  0.174  0.000    0.264  0.143  0.000
 TransDip   0.065  0.000  0.000    0.000  0.020  0.000    0.000 -0.007  0.000

 Mode:                19                     20                     21
 Frequency:      1476.13                1517.37                1657.16
 Force Cnst:      2.8342                 2.9636                10.6234
 Red. Mass:       2.2077                 2.1847                 6.5657
 IR Active:          YES                    YES                    YES
 IR Intens:       27.859                  2.843                 13.059
 Raman Active:       YES                    YES                    YES
               X      Y      Z        X      Y      Z        X      Y      Z
 N          0.000  0.149  0.000    0.091  0.000  0.000    0.000 -0.264  0.000
 C          0.000  0.104  0.000    0.099  0.000  0.000    0.000  0.434  0.000
 C         -0.099 -0.062  0.000   -0.091  0.123  0.000   -0.110  0.205  0.000
 C          0.099 -0.063  0.000   -0.092 -0.122  0.000    0.109  0.205  0.000
 C         -0.149 -0.006  0.000   -0.088  0.112  0.000    0.094 -0.235  0.000
 C          0.149 -0.006  0.000   -0.089 -0.112  0.000   -0.093 -0.235  0.000
 H          0.000 -0.552  0.000    0.124  0.001  0.000    0.000 -0.511  0.000
 H          0.249 -0.308  0.000    0.454 -0.225  0.000    0.248 -0.033  0.000
 H         -0.248 -0.307  0.000    0.455  0.226  0.000   -0.248 -0.033  0.000
 H          0.275 -0.253  0.000    0.404 -0.135  0.000   -0.224 -0.100  0.000
 H         -0.273 -0.252  0.000    0.405  0.136  0.000    0.223 -0.101  0.000
 TransDip   0.000 -0.169  0.000    0.054  0.001  0.000    0.000  0.116  0.000

 Mode:                22                     23                     24
 Frequency:      1660.75                3148.61                3150.77
 Force Cnst:      9.4570                 6.3586                 6.3828
 Red. Mass:       5.8196                 1.0886                 1.0913
 IR Active:          YES                    YES                    YES
 IR Intens:       25.624                 23.157                  2.342
 Raman Active:       YES                    YES                    YES
               X      Y      Z        X      Y      Z        X      Y      Z
 N          0.129  0.000  0.000    0.000  0.000  0.000   -0.001  0.000  0.000
 C         -0.169  0.000  0.000    0.000  0.000  0.000   -0.008  0.000  0.000
 C         -0.289  0.090  0.000   -0.034 -0.049  0.000    0.033  0.049  0.000
 C         -0.289 -0.090  0.000    0.034 -0.049  0.000    0.033 -0.049  0.000
 C          0.310 -0.084  0.000    0.003  0.010  0.000    0.005  0.014  0.000
 C          0.310  0.084  0.000   -0.003  0.010  0.000    0.005 -0.014  0.000
 H         -0.196  0.000  0.000   -0.001  0.000  0.000    0.102  0.000  0.000
 H          0.228 -0.281  0.000    0.377  0.581  0.000   -0.367 -0.565  0.000
 H          0.229  0.281  0.000   -0.376  0.579  0.000   -0.368  0.567  0.000
 H         -0.273  0.240  0.000   -0.060 -0.120  0.000   -0.085 -0.169  0.000
 H         -0.273 -0.240  0.000    0.061 -0.120  0.000   -0.086  0.169  0.000
 TransDip  -0.162  0.000  0.000    0.000 -0.154  0.000    0.049  0.000  0.000

 Mode:                25                     26                     27
 Frequency:      3173.47                3191.06                3198.57
 Force Cnst:      6.4647                 6.5668                 6.6301
 Red. Mass:       1.0895                 1.0945                 1.0999
 IR Active:          YES                    YES                    YES
 IR Intens:        3.670                 14.644                  3.682
 Raman Active:       YES                    YES                    YES
               X      Y      Z        X      Y      Z        X      Y      Z
 N          0.000  0.000  0.000    0.000  0.001  0.000    0.000  0.000  0.000
 C         -0.073  0.000  0.000    0.000  0.005  0.000   -0.049  0.000  0.000
 C         -0.009 -0.012  0.000   -0.009 -0.009  0.000    0.009  0.009  0.000
 C         -0.009  0.012  0.000    0.009 -0.009  0.000    0.009 -0.009  0.000
 C          0.016  0.024  0.000   -0.030 -0.054  0.000   -0.024 -0.048  0.000
 C          0.016 -0.024  0.000    0.030 -0.054  0.000   -0.024  0.048  0.000
 H          0.841  0.000  0.000    0.000 -0.005  0.000    0.524  0.000  0.000
 H          0.087  0.132  0.000    0.075  0.109  0.000   -0.069 -0.101  0.000
 H          0.086 -0.131  0.000   -0.074  0.109  0.000   -0.069  0.101  0.000
 H         -0.165 -0.302  0.000    0.326  0.610  0.000    0.274  0.518  0.000
 H         -0.164  0.302  0.000   -0.326  0.610  0.000    0.274 -0.518  0.000
 TransDip  -0.061  0.000  0.000    0.000 -0.123  0.000   -0.061  0.000  0.000

 STANDARD THERMODYNAMIC QUANTITIES AT   298.18 K  AND     1.00 ATM

   This Molecule has  0 Imaginary Frequencies
   Zero point vibrational energy:       55.668 kcal/mol

   Atom    1 Element N  Has Mass   14.00307
   Atom    2 Element C  Has Mass   12.00000
   Atom    3 Element C  Has Mass   12.00000
   Atom    4 Element C  Has Mass   12.00000
   Atom    5 Element C  Has Mass   12.00000
   Atom    6 Element C  Has Mass   12.00000
   Atom    7 Element H  Has Mass    1.00783
   Atom    8 Element H  Has Mass    1.00783
   Atom    9 Element H  Has Mass    1.00783
   Atom   10 Element H  Has Mass    1.00783
   Atom   11 Element H  Has Mass    1.00783
   Molecular Mass:    79.042220 amu
   Principal axes and moments of inertia in atomic units:
                             1           2           3
    Eigenvalues --      296.06359   306.97906   603.04265
          X               1.00000     0.00000     0.00000
          Y               0.00000     1.00000     0.00000
          Z               0.00000     0.00000     1.00000
   Rotational Symmetry Number is   1
   The Molecule is an Asymmetric Top
   Translational Enthalpy:        0.889 kcal/mol
   Rotational Enthalpy:           0.889 kcal/mol
   Vibrational Enthalpy:         56.581 kcal/mol
   gas constant (RT):             0.593 kcal/mol
   Translational Entropy:        39.017  cal/mol.K
   Rotational Entropy:           25.508  cal/mol.K
   Vibrational Entropy:           4.154  cal/mol.K

   Total Enthalpy:               58.952 kcal/mol
   Total Entropy:                68.680  cal/mol.K
 Total job time:  44188.49s(wall), 44112.77s(cpu) 
 Fri Jul  5 12:43:19 2013

        *************************************************************
        *                                                           *
        *  Thank you very much for using Q-Chem.  Have a nice day.  *
        *                                                           *
        *************************************************************


0 sent ACK to 0 
now end server 0 ... 
