Process 0 of 1 is on cl124.stfx.acenet.ca - thread support 1
initial socket setup ...start
initial socket setup ...done 
now start server 0 ... 

cmd = /usr/bin/ssh clhead /usr/local/qchem/bin/get_hostid 390848900 > /scratch/tmp/6064121.1.short.q/qchem27803/lic.dat
                  Welcome to Q-Chem
     A Quantum Leap Into The Future Of Chemistry

 Y. Shao, L. Fusti-Molnar, Y. Jung, J. Kussmann, C. Ochsenfeld,
 S. T. Brown, A. T. B. Gilbert, L. V. Slipchenko,S. V. Levchenko,
 D. P. O'Neill, R. A. DiStasio Jr., R. C. Lochan, T. Wang,
 G. J. O. Beran, N. A. Besley, J. M. Herbert, C. Y. Lin,
 T. Van Voorhis, S. H. Chien, A. Sodt, R. P. Steele, 
 V. A. Rassolov, P. E. Maslen, P. P. Korambath, R. D. Adamson,
 B. Austin, J. Baker, E. F. C. Byrd, H. Dachsel, R. J. Doerksen,
 A. Dreuw, B. D. Dunietz, A. D. Dutoi, T. R. Furlani,
 S. R. Gwaltney, A. Heyden, S. Hirata, C.-P. Hsu, G. Kedziora,
 R. Z. Khaliullin, P. Klunzinger, A. M. Lee, M. S. Lee, W. Liang,
 I. Lotan, N. Nair, B. Peters, E. I. Proynov, P. A. Pieniazek, 
 Y. M. Rhee, J. Ritchie, E. Rosta, C. D. Sherrill, 
 A. C. Simmonett, J. E. Subotnik, H. L. Woodcock III,
 W. Zhang, A. T. Bell, A. K. Chakraborty, D. M. Chipman,
 F. J. Keil, A. Warshel, W. J. Hehre, H. F. Schaefer III,
 J. Kong, A. I. Krylov, P. M. W. Gill, M. Head-Gordon,
 Q-Chem, Version 3.1, Q-Chem, Inc., Pittsburgh, PA (2007).

 Additional authors for Version 3.1: 
 Z. Gan, Y. Zhao, N. E. Schultz, D. Truhlar, E. Epifanovsky and M. Oana.

 Additional authors for Version 3.2: 
 R. Baer, B. R. Brooks, D. Casanova, J.-D. Chai, C.-L. Cheng, 
 C. Cramer, D. Crittenden, A. Ghysels, G. Hawkins, E. G. Hohenstein, 
 C. Kelley, W. Kurlancheek, D. Liotard, E. Livshits, P. Manohar, 
 A. Marenich, D. Neuhauser, R. Olson, M. A. Rohrdanz, K. S. Thanthiriwatte, 
 A. J. W. Thom, V. Vanovschi, C. F. Williams, Q. Wu and Z.-Q. You. 


 Intel X86 Linux Version

 Q-chem begins on Sun Jul  7 09:42:04 2013  

 Parallel job on  1  processors
Processing $rem in /usr/local/qchem/config/preferences.

theFileMan(): MAXOPENFILES=974 MAX_SUB_FILE_NUM=16
Maximum size of a physical file is 2.0 GB, maximum size of a tmp-file is 32.0 GB


--------------------------------------------------------------
User input:
--------------------------------------------------------------

$molecule
-1,2
N          1.39192        0.00000        1.00000
C         -1.39471        0.00000        1.00000
C          0.69930        1.13676        1.00000
C          0.69930       -1.13676        1.00000
C         -0.68721       -1.19125        1.00000
C         -0.68721        1.19125        1.00000
H         -2.48184        0.00000        1.00000
H          1.28587        2.05509        1.00000
H          1.28587       -2.05509        1.00000
H         -1.19648       -2.15056        1.00000
H         -1.19648        2.15056        1.00000
$end

$comment
negative
$end

$xc_functional
C PBE   1.00
X wPBE  1.00
$end

$rem
SYMMETRY_DECOMPOSITION	0
exchange 		general
LRC_DFT                 true
BASIS                   g3large
omega			350
mem_static              760
max_scf_cycles          200
scf_final_print         1
sym_ignore              true
$end

--------------------------------------------------------------
 Writing REM_CC_EA           11
 ----------------------------------------------------
       Standard Nuclear Orientation (Angstroms)
    I     Atom         X            Y            Z
 ----------------------------------------------------
    1      N       1.391920     0.000000     1.000000
    2      C      -1.394710     0.000000     1.000000
    3      C       0.699300     1.136760     1.000000
    4      C       0.699300    -1.136760     1.000000
    5      C      -0.687210    -1.191250     1.000000
    6      C      -0.687210     1.191250     1.000000
    7      H      -2.481840     0.000000     1.000000
    8      H       1.285870     2.055090     1.000000
    9      H       1.285870    -2.055090     1.000000
   10      H      -1.196480    -2.150560     1.000000
   11      H      -1.196480     2.150560     1.000000
 ----------------------------------------------------
 Nuclear Repulsion Energy =   206.9509065727 hartrees
 There are       22 alpha and       21 beta electrons
 Requested basis set is G3large
 There are 90 shells and 302 basis functions

Total QAlloc Memory Limit   2000 MB
Mega-Array Size       743 MB
MEM_STATIC part       760 MB

                       Distance Matrix (Angstroms)
             N (  1)   C (  2)   C (  3)   C (  4)   C (  5)   C (  6)
   C (  2)  2.786630
   C (  3)  1.331145  2.382667
   C (  4)  1.331145  2.382667  2.273520
   C (  5)  2.396217  1.385508  2.709620  1.387580
   C (  6)  2.396217  1.385508  1.387580  2.709620  2.382500
   H (  7)  3.873760  1.087130  3.378147  3.378147  2.154013  2.154013
   H (  8)  2.057824  3.377707  1.089676  3.245300  3.798917  2.153895
   H (  9)  2.057824  3.377707  3.245300  1.089676  2.153895  3.798917
   H ( 10)  3.365223  2.159677  3.794793  2.149831  1.086108  3.380392
   H ( 11)  3.365223  2.159677  2.149831  3.794793  3.380392  1.086108
             H (  7)   H (  8)   H (  9)   H ( 10)
   H (  8)  4.291740
   H (  9)  4.291740  4.110180
   H ( 10)  2.505406  4.883600  2.484185
   H ( 11)  2.505406  2.484185  4.883600  4.301120
 
 A cutoff of  1.0D-08 yielded   3663 shell pairs
 There are  42102 function pairs ( 53042 Cartesian)
Evaluating contribution to one-electron hamiltonian from nuclear
 Smallest overlap matrix eigenvalue = 6.37E-06

 Q-Chem warning in module mkSTV.C, line 194:

 Overlap eigenvalue is smaller than square root of threshold

 Multipole matrices computed through 2nd order

  Scale SEOQF with 1.000000e-01/1.000000e-01/1.000000e-01

 Standard Electronic Orientation quadrupole field applied
 Nucleus-field energy     =     0.0000000008 hartrees
 Guess from superposition of atomic densities
 Warning:  Energy on first SCF cycle will be non-variational
 Long-range K will be added via erf
 Coulomb attenuation parameter = 0.35 bohr**(-1)
 An unrestricted Kohn-Sham SCF calculation will be
 performed using Pulay DIIS extrapolation
 Exchange:  wPBE + LR-HF      Correlation:  PBE
 Using SG-1 standard quadrature grid
 SCF converges when DIIS error is below 1.0E-05
 Requested basis set is G3large
 There are 90 shells and 302 basis functions
 A cutoff of  1.0D-08 yielded   3663 shell pairs
 There are  42102 function pairs ( 53042 Cartesian)
 Warning!  Inaccurate integrated density:
   Number of electrons =    43
   Numerical integral  =    42.000577100364
   Relative error      =    -2.3242393015 %
 ---------------------------------------
  Cycle       Energy         DIIS Error
 ---------------------------------------
    1    -250.1763605339      2.88E-02
    2    -247.9502708054      3.47E-03
    3    -248.0128553185      3.10E-03
    4    -248.1113094326      4.46E-04
    5    -248.1130851509      2.45E-04
    6    -248.1138831150      6.23E-05
    7    -248.1140070211      1.92E-05
    8    -248.1140394412      1.12E-05
    9    -248.1140680241      7.26E-06 Convergence criterion met
 ---------------------------------------
 One-Electron    Energy =  -752.6648836513
 Total Coulomb   Energy =   333.5973679584
 Alpha Exchange  Energy =    -3.8934989298
 Beta  Exchange  Energy =    -3.7242887293
 DFT   Exchange  Energy =   -26.9622233544
 DFT Correlation Energy =    -1.4174478911
 Nuclear Repu.   Energy =   206.9509065735
 Nuclear Attr.   Energy = -1000.0577190645
 Kinetic         Energy =   247.3928354132
 <S^2> = 0.7653
 SCF time:  CPU 446.75 s  wall 447.53 s
 Final Alpha MO Eigenvalues
            1           2           3           4           5           6
    1 -13.9280848  -9.9017116  -9.8935837  -9.8798904  -9.8734981  -9.8578209
            7           8           9          10          11          12
    1  -0.8491402  -0.7160208  -0.6781534  -0.5424705  -0.5408083  -0.4452045
           13          14          15          16          17          18
    1  -0.3833472  -0.3794357  -0.3359936  -0.3234082  -0.3002805  -0.2619765
           19          20          21          22          23          24
    1  -0.2043651  -0.1777315  -0.1508747   0.0232764   0.1492800   0.1500811
           25          26          27
    1   0.1560569   0.1643762   0.1771365
 Final Beta MO Eigenvalues
            1           2           3           4           5           6
    1 -13.9213621  -9.9016233  -9.8918493  -9.8807637  -9.8728857  -9.8518540
            7           8           9          10          11          12
    1  -0.8410962  -0.7070612  -0.6735628  -0.5396503  -0.5285209  -0.4422320
           13          14          15          16          17          18
    1  -0.3799825  -0.3755497  -0.3351739  -0.3033312  -0.2961438  -0.2596083
           19          20          21          22          23          24
    1  -0.1617495  -0.1536804  -0.1432008   0.1496768   0.1503695   0.1565047
           25          26
    1   0.1644741   0.1772838
 Analysis of SCF Wavefunction
 
 --------------------------------------------------------------
                    Orbital Energies (a.u.)
 --------------------------------------------------------------
 
 Alpha MOs
 -- Occupied --
-13.928  -9.902  -9.894  -9.880  -9.873  -9.858  -0.849  -0.716
 -0.678  -0.542  -0.541  -0.445  -0.383  -0.379  -0.336  -0.323
 -0.300  -0.262  -0.204  -0.178  -0.151   0.023
 -- Virtual --
  0.149   0.150   0.156   0.164   0.177   0.246   0.248   0.248
  0.269   0.272   0.275   0.278   0.296   0.299   0.299   0.306
  0.313   0.322   0.324   0.337   0.338   0.353   0.354   0.367
  0.403   0.408   0.422   0.451   0.466   0.479   0.488   0.508
  0.523   0.526   0.529   0.538   0.584   0.606   0.623   0.624
  0.723   0.728   0.753   0.785   0.799   0.802   0.803   0.806
  0.833   0.837   0.857   0.876   0.877   0.885   0.887   0.891
  0.932   0.945   0.965   0.974   0.991   0.996   1.010   1.021
  1.025   1.052   1.064   1.077   1.086   1.098   1.108   1.126
  1.174   1.197   1.214   1.235   1.243   1.294   1.324   1.341
  1.344   1.388   1.406   1.422   1.445   1.458   1.485   1.561
  1.574   1.574   1.602   1.620   1.626   1.650   1.657   1.687
  1.701   1.705   1.708   1.729   1.735   1.780   1.878   1.955
  1.964   2.004   2.040   2.054   2.085   2.157   2.164   2.276
  2.291   2.350   2.385   2.532   2.795   2.812   2.861   2.885
  2.885   2.908   2.964   2.975   2.994   3.002   3.043   3.072
  3.097   3.098   3.106   3.129   3.137   3.139   3.163   3.179
  3.182   3.226   3.297   3.313   3.371   3.396   3.420   3.420
  3.427   3.473   3.475   3.479   3.485   3.514   3.539   3.550
  3.562   3.588   3.607   3.634   3.646   3.668   3.684   3.702
  3.722   3.746   3.757   3.785   3.852   3.865   3.873   3.901
  3.911   3.935   3.979   4.009   4.061   4.095   4.122   4.124
  4.130   4.181   4.196   4.232   4.278   4.295   4.330   4.363
  4.395   4.410   4.416   4.452   4.560   4.575   4.585   4.679
  4.679   4.684   4.750   4.796   4.797   4.833   4.839   4.890
  4.892   4.912   5.041   5.108   5.178   5.264   5.339   5.349
  5.374   5.404   5.428   5.548   5.559   5.584   5.648   5.764
  5.807   5.981   5.999   6.057   6.148   6.244   6.284   6.398
  6.492   7.094  24.096  24.459  24.681  24.859  25.144  27.424
 27.495  27.553  27.614  27.795  28.154  28.273  28.296  28.438
 28.464  28.475  28.656  28.672  28.717  29.021  36.159  37.699
 38.124  38.739  40.790  40.861  40.882  40.926  41.016  41.034
 41.072  41.100  41.160  41.169  41.248  41.256  41.273  41.291
 41.309  41.336  41.342  41.346  41.360  41.382  41.386  41.397
 41.399  41.405  41.416  41.450  41.540  41.581  41.621  41.714
 
 Beta MOs
 -- Occupied --
-13.921  -9.902  -9.892  -9.881  -9.873  -9.852  -0.841  -0.707
 -0.674  -0.540  -0.529  -0.442  -0.380  -0.376  -0.335  -0.303
 -0.296  -0.260  -0.162  -0.154  -0.143
 -- Virtual --
  0.150   0.150   0.157   0.164   0.177   0.243   0.247   0.248
  0.260   0.271   0.272   0.280   0.281   0.297   0.299   0.301
  0.307   0.322   0.325   0.336   0.339   0.339   0.355   0.356
  0.367   0.404   0.413   0.450   0.452   0.481   0.483   0.490
  0.508   0.524   0.528   0.533   0.539   0.589   0.607   0.626
  0.627   0.724   0.735   0.758   0.789   0.800   0.806   0.815
  0.816   0.835   0.848   0.860   0.880   0.881   0.887   0.888
  0.905   0.933   0.962   0.969   0.978   0.994   1.006   1.013
  1.023   1.037   1.055   1.066   1.083   1.090   1.101   1.119
  1.130   1.190   1.199   1.221   1.238   1.247   1.297   1.332
  1.348   1.350   1.393   1.410   1.427   1.447   1.459   1.488
  1.563   1.579   1.583   1.603   1.623   1.627   1.653   1.669
  1.688   1.704   1.714   1.718   1.730   1.739   1.784   1.880
  1.966   1.966   2.013   2.041   2.066   2.087   2.161   2.172
  2.280   2.294   2.357   2.388   2.536   2.800   2.819   2.866
  2.888   2.891   2.912   2.978   2.986   2.999   3.009   3.050
  3.073   3.102   3.104   3.112   3.135   3.142   3.147   3.170
  3.184   3.195   3.235   3.303   3.316   3.381   3.399   3.424
  3.425   3.437   3.475   3.482   3.483   3.493   3.520   3.544
  3.552   3.565   3.602   3.610   3.640   3.652   3.672   3.687
  3.713   3.729   3.751   3.762   3.797   3.854   3.871   3.881
  3.904   3.926   3.941   3.985   4.010   4.071   4.097   4.127
  4.135   4.135   4.197   4.201   4.235   4.290   4.298   4.339
  4.370   4.397   4.414   4.417   4.455   4.567   4.576   4.591
  4.680   4.686   4.688   4.759   4.802   4.803   4.838   4.851
  4.894   4.899   4.918   5.053   5.111   5.182   5.266   5.344
  5.370   5.377   5.406   5.455   5.553   5.579   5.599   5.653
  5.777   5.809   5.983   6.002   6.060   6.150   6.247   6.290
  6.401   6.494   7.097  24.098  24.459  24.684  24.860  25.146
 27.428  27.497  27.563  27.615  27.802  28.155  28.274  28.296
 28.440  28.464  28.475  28.657  28.673  28.718  29.022  36.167
 37.718  38.128  38.743  40.807  40.875  40.897  40.928  41.018
 41.036  41.073  41.106  41.163  41.169  41.253  41.258  41.278
 41.293  41.311  41.338  41.344  41.349  41.362  41.384  41.387
 41.399  41.405  41.406  41.423  41.450  41.540  41.581  41.622
 41.715
 --------------------------------------------------------------
 
          Ground-State Mulliken Net Atomic Charges

     Atom                 Charge (a.u.)    Spin (a.u.)
  --------------------------------------------------------
      1 N                    -0.354481       0.301465
      2 C                    -0.284169       0.459260
      3 C                    -0.228092       0.052682
      4 C                    -0.286215       0.191721
      5 C                    -0.163162      -0.026749
      6 C                    -0.221733       0.103116
      7 H                     0.116884      -0.047199
      8 H                     0.112578      -0.009179
      9 H                     0.112585      -0.019778
     10 H                     0.097893       0.002087
     11 H                     0.097913      -0.007427
  --------------------------------------------------------
  Sum of atomic charges =    -1.000000
  Sum of spin   charges =     1.000000

 -----------------------------------------------------------------
                    Cartesian Multipole Moments
 -----------------------------------------------------------------
    Charge (ESU x 10^10)
                -4.8032
    Dipole Moment (Debye)
         X      -1.6067      Y       0.0318      Z      -4.8032
       Tot       5.0649
    Quadrupole Moments (Debye-Ang)
        XX     -50.2703     XY       0.3655     YY     -42.5551
        XZ      -1.5978     YZ       0.0221     ZZ     -49.4406
    Octapole Moments (Debye-Ang^2)
       XXX      -6.9944    XXY       0.2621    XYY       2.2610
       YYY      -0.1039    XXZ     -50.2986    XYZ       0.3599
       YYZ     -42.5359    XZZ       2.0274    YZZ       0.0933
       ZZZ    -138.7125
    Hexadecapole Moments (Debye-Ang^3)
      XXXX    -377.2664   XXXY       0.1906   XXYY    -104.6760
      XYYY       2.6572   YYYY    -340.6736   XXXZ      -6.8712
      XXYZ       0.2570   XYYZ       2.2703   YYYZ      -0.2387
      XXZZ    -126.3108   XYZZ       1.0940   YYZZ    -121.9154
      XZZZ       9.3245   YZZZ       0.1787   ZZZZ    -344.1463
 -----------------------------------------------------------------
 Total job time:  448.04s(wall), 447.25s(cpu) 
 Sun Jul  7 09:49:32 2013

        *************************************************************
        *                                                           *
        *  Thank you very much for using Q-Chem.  Have a nice day.  *
        *                                                           *
        *************************************************************


0 sent ACK to 0 
now end server 0 ... 
 
**********************************************************************
Job 2 of 3 
**********************************************************************
 
Process 0 of 1 is on cl124.stfx.acenet.ca - thread support 1
initial socket setup ...start
initial socket setup ...done 
now start server 0 ... 

cmd = /usr/bin/ssh clhead /usr/local/qchem/bin/get_hostid 662144464 > /scratch/tmp/6064121.1.short.q/qchem27803/lic.dat
                  Welcome to Q-Chem
     A Quantum Leap Into The Future Of Chemistry

 Y. Shao, L. Fusti-Molnar, Y. Jung, J. Kussmann, C. Ochsenfeld,
 S. T. Brown, A. T. B. Gilbert, L. V. Slipchenko,S. V. Levchenko,
 D. P. O'Neill, R. A. DiStasio Jr., R. C. Lochan, T. Wang,
 G. J. O. Beran, N. A. Besley, J. M. Herbert, C. Y. Lin,
 T. Van Voorhis, S. H. Chien, A. Sodt, R. P. Steele, 
 V. A. Rassolov, P. E. Maslen, P. P. Korambath, R. D. Adamson,
 B. Austin, J. Baker, E. F. C. Byrd, H. Dachsel, R. J. Doerksen,
 A. Dreuw, B. D. Dunietz, A. D. Dutoi, T. R. Furlani,
 S. R. Gwaltney, A. Heyden, S. Hirata, C.-P. Hsu, G. Kedziora,
 R. Z. Khaliullin, P. Klunzinger, A. M. Lee, M. S. Lee, W. Liang,
 I. Lotan, N. Nair, B. Peters, E. I. Proynov, P. A. Pieniazek, 
 Y. M. Rhee, J. Ritchie, E. Rosta, C. D. Sherrill, 
 A. C. Simmonett, J. E. Subotnik, H. L. Woodcock III,
 W. Zhang, A. T. Bell, A. K. Chakraborty, D. M. Chipman,
 F. J. Keil, A. Warshel, W. J. Hehre, H. F. Schaefer III,
 J. Kong, A. I. Krylov, P. M. W. Gill, M. Head-Gordon,
 Q-Chem, Version 3.1, Q-Chem, Inc., Pittsburgh, PA (2007).

 Additional authors for Version 3.1: 
 Z. Gan, Y. Zhao, N. E. Schultz, D. Truhlar, E. Epifanovsky and M. Oana.

 Additional authors for Version 3.2: 
 R. Baer, B. R. Brooks, D. Casanova, J.-D. Chai, C.-L. Cheng, 
 C. Cramer, D. Crittenden, A. Ghysels, G. Hawkins, E. G. Hohenstein, 
 C. Kelley, W. Kurlancheek, D. Liotard, E. Livshits, P. Manohar, 
 A. Marenich, D. Neuhauser, R. Olson, M. A. Rohrdanz, K. S. Thanthiriwatte, 
 A. J. W. Thom, V. Vanovschi, C. F. Williams, Q. Wu and Z.-Q. You. 


 Intel X86 Linux Version

 Q-chem begins on Sun Jul  7 09:49:35 2013  

 Parallel job on  1  processors
Processing $rem in /usr/local/qchem/config/preferences.

theFileMan(): MAXOPENFILES=974 MAX_SUB_FILE_NUM=16
Maximum size of a physical file is 2.0 GB, maximum size of a tmp-file is 32.0 GB


--------------------------------------------------------------
User input:
--------------------------------------------------------------

$molecule
0,1
N          1.39192        0.00000        1.00000
C         -1.39471        0.00000        1.00000
C          0.69930        1.13676        1.00000
C          0.69930       -1.13676        1.00000
C         -0.68721       -1.19125        1.00000
C         -0.68721        1.19125        1.00000
H         -2.48184        0.00000        1.00000
H          1.28587        2.05509        1.00000
H          1.28587       -2.05509        1.00000
H         -1.19648       -2.15056        1.00000
H         -1.19648        2.15056        1.00000
$end

$comment
neutral
$end

$xc_functional
C PBE   1.00
X wPBE  1.00
$end


$rem
SYMMETRY_DECOMPOSITION	0
LRC_DFT                 true
exchange 		general
BASIS                   g3large
omega			350
mem_static              760
max_scf_cycles          200
scf_final_print         1
sym_ignore              true
$end

--------------------------------------------------------------
 Writing REM_CC_EA           11
 ----------------------------------------------------
       Standard Nuclear Orientation (Angstroms)
    I     Atom         X            Y            Z
 ----------------------------------------------------
    1      N       1.391920     0.000000     1.000000
    2      C      -1.394710     0.000000     1.000000
    3      C       0.699300     1.136760     1.000000
    4      C       0.699300    -1.136760     1.000000
    5      C      -0.687210    -1.191250     1.000000
    6      C      -0.687210     1.191250     1.000000
    7      H      -2.481840     0.000000     1.000000
    8      H       1.285870     2.055090     1.000000
    9      H       1.285870    -2.055090     1.000000
   10      H      -1.196480    -2.150560     1.000000
   11      H      -1.196480     2.150560     1.000000
 ----------------------------------------------------
 Nuclear Repulsion Energy =   206.9509065727 hartrees
 There are       21 alpha and       21 beta electrons
 Requested basis set is G3large
 There are 90 shells and 302 basis functions

Total QAlloc Memory Limit   2000 MB
Mega-Array Size       743 MB
MEM_STATIC part       760 MB

                       Distance Matrix (Angstroms)
             N (  1)   C (  2)   C (  3)   C (  4)   C (  5)   C (  6)
   C (  2)  2.786630
   C (  3)  1.331145  2.382667
   C (  4)  1.331145  2.382667  2.273520
   C (  5)  2.396217  1.385508  2.709620  1.387580
   C (  6)  2.396217  1.385508  1.387580  2.709620  2.382500
   H (  7)  3.873760  1.087130  3.378147  3.378147  2.154013  2.154013
   H (  8)  2.057824  3.377707  1.089676  3.245300  3.798917  2.153895
   H (  9)  2.057824  3.377707  3.245300  1.089676  2.153895  3.798917
   H ( 10)  3.365223  2.159677  3.794793  2.149831  1.086108  3.380392
   H ( 11)  3.365223  2.159677  2.149831  3.794793  3.380392  1.086108
             H (  7)   H (  8)   H (  9)   H ( 10)
   H (  8)  4.291740
   H (  9)  4.291740  4.110180
   H ( 10)  2.505406  4.883600  2.484185
   H ( 11)  2.505406  2.484185  4.883600  4.301120
 
 A cutoff of  1.0D-08 yielded   3663 shell pairs
 There are  42102 function pairs ( 53042 Cartesian)
Evaluating contribution to one-electron hamiltonian from nuclear
 Smallest overlap matrix eigenvalue = 6.37E-06

 Q-Chem warning in module mkSTV.C, line 194:

 Overlap eigenvalue is smaller than square root of threshold

 Multipole matrices computed through 2nd order

  Scale SEOQF with 1.000000e-01/1.000000e-01/1.000000e-01

 Standard Electronic Orientation quadrupole field applied
 Nucleus-field energy     =     0.0000000008 hartrees
 Guess from superposition of atomic densities
 Warning:  Energy on first SCF cycle will be non-variational
 Long-range K will be added via erf
 Coulomb attenuation parameter = 0.35 bohr**(-1)
 A restricted Kohn-Sham SCF calculation will be
 performed using Pulay DIIS extrapolation
 Exchange:  wPBE + LR-HF      Correlation:  PBE
 Using SG-1 standard quadrature grid
 SCF converges when DIIS error is below 1.0E-05
 Requested basis set is G3large
 There are 90 shells and 302 basis functions
 A cutoff of  1.0D-08 yielded   3663 shell pairs
 There are  42102 function pairs ( 53042 Cartesian)
 ---------------------------------------
  Cycle       Energy         DIIS Error
 ---------------------------------------
    1    -250.1763605339      2.88E-02
    2    -248.0731646083      2.45E-03
    3    -248.1170037366      1.75E-03
    4    -248.1440554749      4.56E-04
    5    -248.1458727880      1.50E-04
    6    -248.1461346048      4.76E-05
    7    -248.1461573133      1.29E-05
    8    -248.1461579917      4.47E-06 Convergence criterion met
 ---------------------------------------
 One-Electron    Energy =  -743.6059783330
 Total Coulomb   Energy =   324.2273190682
 Alpha Exchange  Energy =    -3.7385453661
 Beta  Exchange  Energy =    -3.7385453661
 DFT   Exchange  Energy =   -26.8545603582
 DFT Correlation Energy =    -1.3867542099
 Nuclear Repu.   Energy =   206.9509065735
 Nuclear Attr.   Energy =  -990.7125714169
 Kinetic         Energy =   247.1065930838
 SCF time:  CPU 304.66 s  wall 305.78 s
 Final Alpha MO Eigenvalues
            1           2           3           4           5           6
    1 -14.1721255 -10.1151917 -10.1150818 -10.1031573 -10.0912055 -10.0911783
            7           8           9          10          11          12
    1  -1.0705658  -0.9347887  -0.8914415  -0.7539087  -0.7521060  -0.6553303
           13          14          15          16          17          18
    1  -0.5986774  -0.5846327  -0.5425760  -0.5319324  -0.5166008  -0.4711330
           19          20          21          22          23          24
    1  -0.3987867  -0.3702181  -0.3648244   0.0352346   0.0400280   0.0447269
           25          26
    1   0.0511230   0.0538784
 Analysis of SCF Wavefunction
 
 --------------------------------------------------------------
                    Orbital Energies (a.u.)
 --------------------------------------------------------------
 
 Alpha MOs
 -- Occupied --
-14.172 -10.115 -10.115 -10.103 -10.091 -10.091  -1.071  -0.935
 -0.891  -0.754  -0.752  -0.655  -0.599  -0.585  -0.543  -0.532
 -0.517  -0.471  -0.399  -0.370  -0.365
 -- Virtual --
  0.035   0.040   0.045   0.051   0.054   0.066   0.075   0.107
  0.117   0.134   0.137   0.140   0.145   0.165   0.166   0.169
  0.173   0.182   0.190   0.199   0.199   0.204   0.208   0.208
  0.247   0.247   0.265   0.272   0.292   0.311   0.312   0.335
  0.345   0.361   0.364   0.369   0.378   0.405   0.429   0.439
  0.440   0.528   0.543   0.568   0.604   0.611   0.614   0.617
  0.619   0.646   0.654   0.662   0.692   0.695   0.705   0.708
  0.709   0.745   0.748   0.782   0.785   0.800   0.807   0.822
  0.846   0.849   0.872   0.879   0.885   0.892   0.905   0.912
  0.930   0.988   1.012   1.028   1.050   1.052   1.105   1.135
  1.145   1.157   1.199   1.211   1.226   1.264   1.272   1.296
  1.372   1.373   1.376   1.410   1.425   1.430   1.455   1.456
  1.489   1.502   1.505   1.513   1.544   1.548   1.588   1.686
  1.754   1.766   1.806   1.845   1.850   1.889   1.961   1.966
  2.076   2.088   2.149   2.177   2.326   2.593   2.595   2.650
  2.671   2.684   2.707   2.749   2.766   2.782   2.792   2.832
  2.862   2.883   2.889   2.896   2.919   2.922   2.928   2.948
  2.965   2.970   3.014   3.087   3.102   3.156   3.186   3.207
  3.208   3.212   3.262   3.264   3.267   3.273   3.303   3.329
  3.338   3.352   3.379   3.398   3.423   3.432   3.460   3.477
  3.489   3.513   3.533   3.549   3.576   3.646   3.652   3.660
  3.695   3.697   3.723   3.765   3.797   3.848   3.889   3.908
  3.914   3.919   3.967   3.988   4.027   4.068   4.086   4.122
  4.154   4.187   4.200   4.217   4.244   4.348   4.367   4.373
  4.464   4.473   4.474   4.536   4.582   4.584   4.619   4.624
  4.672   4.684   4.697   4.826   4.898   4.963   5.048   5.126
  5.128   5.161   5.196   5.211   5.338   5.341   5.367   5.434
  5.548   5.590   5.770   5.783   5.843   5.933   6.031   6.063
  6.179   6.281   6.874  23.873  24.243  24.453  24.642  24.922
 27.202  27.280  27.326  27.398  27.572  27.932  28.053  28.075
 28.214  28.245  28.257  28.434  28.446  28.497  28.799  35.917
 37.460  37.882  38.497  40.550  40.620  40.641  40.684  40.779
 40.814  40.855  40.872  40.940  40.951  41.008  41.036  41.047
 41.072  41.089  41.114  41.114  41.128  41.141  41.162  41.167
 41.171  41.183  41.187  41.189  41.227  41.322  41.364  41.401
 41.483
 --------------------------------------------------------------
 
          Ground-State Mulliken Net Atomic Charges

     Atom                 Charge (a.u.)
  ----------------------------------------
      1 N                    -0.207292
      2 C                    -0.164607
      3 C                    -0.178234
      4 C                    -0.179127
      5 C                    -0.034183
      6 C                    -0.035212
      7 H                     0.166830
      8 H                     0.162754
      9 H                     0.162751
     10 H                     0.153203
     11 H                     0.153118
  ----------------------------------------
  Sum of atomic charges =     0.000000

 -----------------------------------------------------------------
                    Cartesian Multipole Moments
 -----------------------------------------------------------------
    Charge (ESU x 10^10)
                 0.0000
    Dipole Moment (Debye)
         X      -2.3201      Y       0.0010      Z       0.0000
       Tot       2.3201
    Quadrupole Moments (Debye-Ang)
        XX     -36.1781     XY       0.0011     YY     -29.0557
        XZ      -2.3201     YZ       0.0011     ZZ     -37.7530
    Octapole Moments (Debye-Ang^2)
       XXX     -14.4273    XXY      -0.0012    XYY       2.5225
       YYY       0.0024    XXZ     -36.1779    XYZ       0.0011
       YYZ     -29.0557    XZZ      -0.3979    YZZ       0.0019
       ZZZ    -113.2591
    Hexadecapole Moments (Debye-Ang^3)
      XXXX    -283.7041   XXXY       0.0015   XXYY     -79.4582
      XYYY       0.0054   YYYY    -248.4311   XXXZ     -14.4276
      XXYZ      -0.0011   XYYZ       2.5223   YYYZ       0.0027
      XXZZ     -93.3315   XYZZ       0.0022   YYZZ     -87.6075
      XZZZ       3.4467   YZZZ       0.0034   ZZZZ    -268.8242
 -----------------------------------------------------------------
 Total job time:  306.26s(wall), 305.12s(cpu) 
 Sun Jul  7 09:54:41 2013

        *************************************************************
        *                                                           *
        *  Thank you very much for using Q-Chem.  Have a nice day.  *
        *                                                           *
        *************************************************************


0 sent ACK to 0 
now end server 0 ... 
 
**********************************************************************
Job 3 of 3 
**********************************************************************
 
Process 0 of 1 is on cl124.stfx.acenet.ca - thread support 1
initial socket setup ...start
initial socket setup ...done 
now start server 0 ... 

cmd = /usr/bin/ssh clhead /usr/local/qchem/bin/get_hostid 117055397 > /scratch/tmp/6064121.1.short.q/qchem27803/lic.dat
                  Welcome to Q-Chem
     A Quantum Leap Into The Future Of Chemistry

 Y. Shao, L. Fusti-Molnar, Y. Jung, J. Kussmann, C. Ochsenfeld,
 S. T. Brown, A. T. B. Gilbert, L. V. Slipchenko,S. V. Levchenko,
 D. P. O'Neill, R. A. DiStasio Jr., R. C. Lochan, T. Wang,
 G. J. O. Beran, N. A. Besley, J. M. Herbert, C. Y. Lin,
 T. Van Voorhis, S. H. Chien, A. Sodt, R. P. Steele, 
 V. A. Rassolov, P. E. Maslen, P. P. Korambath, R. D. Adamson,
 B. Austin, J. Baker, E. F. C. Byrd, H. Dachsel, R. J. Doerksen,
 A. Dreuw, B. D. Dunietz, A. D. Dutoi, T. R. Furlani,
 S. R. Gwaltney, A. Heyden, S. Hirata, C.-P. Hsu, G. Kedziora,
 R. Z. Khaliullin, P. Klunzinger, A. M. Lee, M. S. Lee, W. Liang,
 I. Lotan, N. Nair, B. Peters, E. I. Proynov, P. A. Pieniazek, 
 Y. M. Rhee, J. Ritchie, E. Rosta, C. D. Sherrill, 
 A. C. Simmonett, J. E. Subotnik, H. L. Woodcock III,
 W. Zhang, A. T. Bell, A. K. Chakraborty, D. M. Chipman,
 F. J. Keil, A. Warshel, W. J. Hehre, H. F. Schaefer III,
 J. Kong, A. I. Krylov, P. M. W. Gill, M. Head-Gordon,
 Q-Chem, Version 3.1, Q-Chem, Inc., Pittsburgh, PA (2007).

 Additional authors for Version 3.1: 
 Z. Gan, Y. Zhao, N. E. Schultz, D. Truhlar, E. Epifanovsky and M. Oana.

 Additional authors for Version 3.2: 
 R. Baer, B. R. Brooks, D. Casanova, J.-D. Chai, C.-L. Cheng, 
 C. Cramer, D. Crittenden, A. Ghysels, G. Hawkins, E. G. Hohenstein, 
 C. Kelley, W. Kurlancheek, D. Liotard, E. Livshits, P. Manohar, 
 A. Marenich, D. Neuhauser, R. Olson, M. A. Rohrdanz, K. S. Thanthiriwatte, 
 A. J. W. Thom, V. Vanovschi, C. F. Williams, Q. Wu and Z.-Q. You. 


 Intel X86 Linux Version

 Q-chem begins on Sun Jul  7 09:54:44 2013  

 Parallel job on  1  processors
Processing $rem in /usr/local/qchem/config/preferences.

theFileMan(): MAXOPENFILES=974 MAX_SUB_FILE_NUM=16
Maximum size of a physical file is 2.0 GB, maximum size of a tmp-file is 32.0 GB


--------------------------------------------------------------
User input:
--------------------------------------------------------------

$molecule
1,2
N          1.39192        0.00000        1.00000
C         -1.39471        0.00000        1.00000
C          0.69930        1.13676        1.00000
C          0.69930       -1.13676        1.00000
C         -0.68721       -1.19125        1.00000
C         -0.68721        1.19125        1.00000
H         -2.48184        0.00000        1.00000
H          1.28587        2.05509        1.00000
H          1.28587       -2.05509        1.00000
H         -1.19648       -2.15056        1.00000
H         -1.19648        2.15056        1.00000
$end

$comment
positive
$end

$xc_functional
C PBE   1.00
X wPBE  1.00
$end

$rem
SYMMETRY_DECOMPOSITION	0
LRC_DFT                 true
exchange 		general
BASIS                   g3large
omega			350
mem_static              760
max_scf_cycles          200
scf_final_print         1
sym_ignore              true
$end

--------------------------------------------------------------
 Writing REM_CC_EA           11
 ----------------------------------------------------
       Standard Nuclear Orientation (Angstroms)
    I     Atom         X            Y            Z
 ----------------------------------------------------
    1      N       1.391920     0.000000     1.000000
    2      C      -1.394710     0.000000     1.000000
    3      C       0.699300     1.136760     1.000000
    4      C       0.699300    -1.136760     1.000000
    5      C      -0.687210    -1.191250     1.000000
    6      C      -0.687210     1.191250     1.000000
    7      H      -2.481840     0.000000     1.000000
    8      H       1.285870     2.055090     1.000000
    9      H       1.285870    -2.055090     1.000000
   10      H      -1.196480    -2.150560     1.000000
   11      H      -1.196480     2.150560     1.000000
 ----------------------------------------------------
 Nuclear Repulsion Energy =   206.9509065727 hartrees
 There are       21 alpha and       20 beta electrons
 Requested basis set is G3large
 There are 90 shells and 302 basis functions

Total QAlloc Memory Limit   2000 MB
Mega-Array Size       743 MB
MEM_STATIC part       760 MB

                       Distance Matrix (Angstroms)
             N (  1)   C (  2)   C (  3)   C (  4)   C (  5)   C (  6)
   C (  2)  2.786630
   C (  3)  1.331145  2.382667
   C (  4)  1.331145  2.382667  2.273520
   C (  5)  2.396217  1.385508  2.709620  1.387580
   C (  6)  2.396217  1.385508  1.387580  2.709620  2.382500
   H (  7)  3.873760  1.087130  3.378147  3.378147  2.154013  2.154013
   H (  8)  2.057824  3.377707  1.089676  3.245300  3.798917  2.153895
   H (  9)  2.057824  3.377707  3.245300  1.089676  2.153895  3.798917
   H ( 10)  3.365223  2.159677  3.794793  2.149831  1.086108  3.380392
   H ( 11)  3.365223  2.159677  2.149831  3.794793  3.380392  1.086108
             H (  7)   H (  8)   H (  9)   H ( 10)
   H (  8)  4.291740
   H (  9)  4.291740  4.110180
   H ( 10)  2.505406  4.883600  2.484185
   H ( 11)  2.505406  2.484185  4.883600  4.301120
 
 A cutoff of  1.0D-08 yielded   3663 shell pairs
 There are  42102 function pairs ( 53042 Cartesian)
Evaluating contribution to one-electron hamiltonian from nuclear
 Smallest overlap matrix eigenvalue = 6.37E-06

 Q-Chem warning in module mkSTV.C, line 194:

 Overlap eigenvalue is smaller than square root of threshold

 Multipole matrices computed through 2nd order

  Scale SEOQF with 1.000000e-01/1.000000e-01/1.000000e-01

 Standard Electronic Orientation quadrupole field applied
 Nucleus-field energy     =     0.0000000008 hartrees
 Guess from superposition of atomic densities
 Warning:  Energy on first SCF cycle will be non-variational
 Long-range K will be added via erf
 Coulomb attenuation parameter = 0.35 bohr**(-1)
 An unrestricted Kohn-Sham SCF calculation will be
 performed using Pulay DIIS extrapolation
 Exchange:  wPBE + LR-HF      Correlation:  PBE
 Using SG-1 standard quadrature grid
 SCF converges when DIIS error is below 1.0E-05
 Requested basis set is G3large
 There are 90 shells and 302 basis functions
 A cutoff of  1.0D-08 yielded   3663 shell pairs
 There are  42102 function pairs ( 53042 Cartesian)
 Warning!  Inaccurate integrated density:
   Number of electrons =    41
   Numerical integral  =    42.000577100364
   Relative error      =     2.4404319521 %
 ---------------------------------------
  Cycle       Energy         DIIS Error
 ---------------------------------------
    1    -250.1763605339      2.88E-02
    2    -247.7130344430      2.11E-03
    3    -247.7513561768      1.62E-03
    4    -247.7815939635      6.66E-04
    5    -247.7882557753      1.79E-04
    6    -247.7896794594      1.24E-04
    7    -247.7905899832      5.18E-05
    8    -247.7909980069      2.91E-05
    9    -247.7910587710      7.13E-06 Convergence criterion met
 ---------------------------------------
 One-Electron    Energy =  -733.4870291557
 Total Coulomb   Energy =   314.1199241909
 Alpha Exchange  Energy =    -3.7550912286
 Beta  Exchange  Energy =    -3.5613270125
 DFT   Exchange  Energy =   -26.7111335306
 DFT Correlation Energy =    -1.3473086080
 Nuclear Repu.   Energy =   206.9509065735
 Nuclear Attr.   Energy =  -980.2147765140
 Kinetic         Energy =   246.7277473584
 <S^2> = 0.7577
 SCF time:  CPU 449.23 s  wall 450.44 s
 Final Alpha MO Eigenvalues
            1           2           3           4           5           6
    1 -14.5215088 -10.3660840 -10.3657471 -10.3193421 -10.3172245 -10.3171639
            7           8           9          10          11          12
    1  -1.3558594  -1.1677863  -1.1321324  -0.9998666  -0.9835501  -0.8958232
           13          14          15          16          17          18
    1  -0.8423302  -0.8003894  -0.7901843  -0.7735633  -0.7695847  -0.6945355
           19          20          21          22          23          24
    1  -0.6729237  -0.6364260  -0.5943011  -0.1946958  -0.1588670  -0.0918262
           25          26
    1  -0.0717338  -0.0685465
 Final Beta MO Eigenvalues
            1           2           3           4           5           6
    1 -14.5042301 -10.3655762 -10.3652959 -10.3198477 -10.3157008 -10.3156247
            7           8           9          10          11          12
    1  -1.3322874  -1.1586689  -1.1263184  -0.9906296  -0.9706464  -0.8732353
           13          14          15          16          17          18
    1  -0.8324109  -0.7931775  -0.7788197  -0.7579999  -0.7209511  -0.6898938
           19          20          21          22          23          24
    1  -0.6293594  -0.5939349  -0.3401851  -0.1866347  -0.1595161  -0.0911163
           25
    1  -0.0714432
 Analysis of SCF Wavefunction
 
 --------------------------------------------------------------
                    Orbital Energies (a.u.)
 --------------------------------------------------------------
 
 Alpha MOs
 -- Occupied --
-14.522 -10.366 -10.366 -10.319 -10.317 -10.317  -1.356  -1.168
 -1.132  -1.000  -0.984  -0.896  -0.842  -0.800  -0.790  -0.774
 -0.770  -0.695  -0.673  -0.636  -0.594
 -- Virtual --
 -0.195  -0.159  -0.092  -0.072  -0.069  -0.047  -0.045  -0.040
 -0.033  -0.006  -0.003  -0.002   0.011   0.011   0.026   0.035
  0.040   0.041   0.049   0.050   0.053   0.061   0.065   0.074
  0.082   0.115   0.116   0.125   0.132   0.135   0.139   0.158
  0.165   0.175   0.179   0.192   0.197   0.231   0.253   0.256
  0.261   0.315   0.360   0.373   0.402   0.418   0.424   0.426
  0.437   0.437   0.450   0.454   0.500   0.508   0.515   0.521
  0.526   0.529   0.562   0.582   0.593   0.598   0.619   0.622
  0.667   0.669   0.674   0.675   0.687   0.691   0.693   0.704
  0.709   0.746   0.790   0.806   0.839   0.855   0.907   0.940
  0.947   0.947   0.992   1.006   1.015   1.073   1.083   1.084
  1.150   1.162   1.174   1.212   1.222   1.229   1.241   1.256
  1.258   1.283   1.288   1.296   1.343   1.343   1.396   1.475
  1.513   1.553   1.603   1.607   1.639   1.675   1.736   1.742
  1.876   1.877   1.909   1.909   2.054   2.363   2.388   2.428
  2.442   2.470   2.482   2.532   2.540   2.556   2.579   2.613
  2.644   2.645   2.670   2.673   2.697   2.703   2.705   2.729
  2.734   2.749   2.781   2.851   2.863   2.897   2.956   2.962
  2.980   2.986   3.029   3.032   3.038   3.053   3.081   3.096
  3.110   3.122   3.161   3.177   3.179   3.200   3.237   3.250
  3.261   3.290   3.294   3.325   3.360   3.400   3.416   3.426
  3.447   3.464   3.483   3.539   3.556   3.625   3.671   3.681
  3.685   3.701   3.703   3.771   3.798   3.822   3.858   3.867
  3.948   3.957   3.961   4.003   4.017   4.095   4.139   4.148
  4.204   4.242   4.253   4.310   4.354   4.355   4.390   4.402
  4.446   4.455   4.474   4.573   4.659   4.716   4.807   4.842
  4.858   4.865   4.946   4.972   5.025   5.071   5.090   5.164
  5.275   5.351   5.506   5.515   5.581   5.681   5.767   5.769
  5.904   6.057   6.598  23.647  24.009  24.218  24.400  24.691
 26.973  27.039  27.092  27.165  27.345  27.701  27.819  27.838
 27.982  28.002  28.013  28.207  28.220  28.264  28.568  35.571
 37.118  37.516  38.157  40.197  40.262  40.305  40.338  40.436
 40.577  40.612  40.645  40.692  40.724  40.782  40.788  40.824
 40.831  40.849  40.880  40.882  40.889  40.898  40.932  40.936
 40.945  40.947  40.947  40.964  41.003  41.078  41.128  41.142
 41.261
 
 Beta MOs
 -- Occupied --
-14.504 -10.366 -10.365 -10.320 -10.316 -10.316  -1.332  -1.159
 -1.126  -0.991  -0.971  -0.873  -0.832  -0.793  -0.779  -0.758
 -0.721  -0.690  -0.629  -0.594
 -- Virtual --
 -0.340  -0.187  -0.160  -0.091  -0.071  -0.068  -0.046  -0.043
 -0.039  -0.033  -0.005  -0.002  -0.002   0.011   0.015   0.027
  0.036   0.041   0.042   0.049   0.050   0.054   0.062   0.066
  0.075   0.083   0.119   0.120   0.125   0.133   0.138   0.142
  0.162   0.173   0.178   0.184   0.199   0.201   0.238   0.258
  0.259   0.263   0.317   0.365   0.377   0.409   0.422   0.425
  0.426   0.438   0.442   0.454   0.456   0.501   0.509   0.520
  0.525   0.527   0.530   0.563   0.583   0.597   0.600   0.623
  0.624   0.670   0.672   0.676   0.677   0.691   0.694   0.699
  0.706   0.719   0.762   0.812   0.819   0.847   0.857   0.909
  0.941   0.948   0.949   0.997   1.007   1.017   1.076   1.086
  1.090   1.157   1.172   1.177   1.214   1.226   1.232   1.244
  1.258   1.275   1.283   1.297   1.302   1.344   1.347   1.399
  1.478   1.531   1.561   1.610   1.613   1.641   1.678   1.751
  1.754   1.879   1.879   1.922   1.934   2.080   2.368   2.390
  2.431   2.445   2.473   2.489   2.531   2.540   2.559   2.580
  2.617   2.647   2.652   2.675   2.678   2.704   2.704   2.706
  2.730   2.740   2.750   2.786   2.855   2.870   2.905   2.964
  2.972   2.981   2.989   3.033   3.037   3.041   3.055   3.085
  3.106   3.116   3.126   3.164   3.182   3.192   3.207   3.240
  3.258   3.262   3.291   3.300   3.329   3.363   3.411   3.430
  3.432   3.457   3.469   3.493   3.542   3.568   3.631   3.674
  3.687   3.689   3.705   3.714   3.775   3.805   3.835   3.864
  3.881   3.952   3.966   3.972   4.007   4.022   4.112   4.149
  4.155   4.214   4.247   4.256   4.314   4.359   4.363   4.396
  4.405   4.449   4.461   4.478   4.590   4.667   4.732   4.816
  4.853   4.899   4.937   4.950   4.976   5.061   5.106   5.106
  5.189   5.298   5.364   5.535   5.543   5.599   5.699   5.786
  5.797   5.928   6.065   6.617  23.648  24.010  24.219  24.402
 24.692  26.973  27.039  27.091  27.165  27.345  27.703  27.821
 27.839  27.984  28.003  28.014  28.208  28.222  28.265  28.570
 35.590  37.132  37.560  38.169  40.228  40.296  40.311  40.360
 40.465  40.579  40.615  40.646  40.691  40.725  40.783  40.788
 40.825  40.831  40.851  40.881  40.881  40.889  40.898  40.934
 40.939  40.947  40.948  40.950  40.965  41.005  41.080  41.131
 41.146  41.262
 --------------------------------------------------------------
 
          Ground-State Mulliken Net Atomic Charges

     Atom                 Charge (a.u.)    Spin (a.u.)
  --------------------------------------------------------
      1 N                     0.161956       0.817692
      2 C                    -0.096603      -0.045577
      3 C                    -0.129421      -0.008755
      4 C                    -0.130095      -0.010695
      5 C                     0.052512       0.085101
      6 C                     0.051129       0.084063
      7 H                     0.216789       0.009332
      8 H                     0.228845       0.025475
      9 H                     0.228806       0.027232
     10 H                     0.208148       0.007829
     11 H                     0.207934       0.008304
  --------------------------------------------------------
  Sum of atomic charges =     1.000000
  Sum of spin   charges =     1.000000

 -----------------------------------------------------------------
                    Cartesian Multipole Moments
 -----------------------------------------------------------------
    Charge (ESU x 10^10)
                 4.8032
    Dipole Moment (Debye)
         X       0.0160      Y      -0.0041      Z       4.8056
       Tot       4.8056
    Quadrupole Moments (Debye-Ang)
        XX     -20.4952     XY      -0.0072     YY     -18.2381
        XZ       0.0231     YZ      -0.0024     ZZ     -29.8982
    Octapole Moments (Debye-Ang^2)
       XXX      -3.3878    XXY      -0.0072    XYY       3.2781
       YYY      -0.0166    XXZ     -20.4798    XYZ      -0.0065
       YYZ     -18.2397    XZZ       2.1268    YZZ       0.0001
       ZZZ     -99.3059
    Hexadecapole Moments (Debye-Ang^3)
      XXXX    -197.0496   XXXY      -0.0150   XXYY     -57.1459
      XYYY      -0.0372   YYYY    -183.9514   XXXZ      -3.3500
      XXYZ      -0.0014   XYYZ       3.2729   YYYZ      -0.0015
      XXZZ     -69.2563   XYZZ      -0.0072   YYZZ     -70.0994
      XZZZ       6.3334   YZZZ       0.0052   ZZZZ    -238.2595
 -----------------------------------------------------------------
 Total job time:  450.93s(wall), 449.70s(cpu) 
 Sun Jul  7 10:02:14 2013

        *************************************************************
        *                                                           *
        *  Thank you very much for using Q-Chem.  Have a nice day.  *
        *                                                           *
        *************************************************************


0 sent ACK to 0 
now end server 0 ... 
