Process 0 of 1 is on cl247.stfx.acenet.ca - thread support 1
initial socket setup ...start
initial socket setup ...done 
now start server 0 ... 

cmd = /usr/bin/ssh clhead /usr/local/qchem/bin/get_hostid 611921488 > /scratch/tmp/5997799.1.long.q/qchem17647/lic.dat
                  Welcome to Q-Chem
     A Quantum Leap Into The Future Of Chemistry

 Y. Shao, L. Fusti-Molnar, Y. Jung, J. Kussmann, C. Ochsenfeld,
 S. T. Brown, A. T. B. Gilbert, L. V. Slipchenko,S. V. Levchenko,
 D. P. O'Neill, R. A. DiStasio Jr., R. C. Lochan, T. Wang,
 G. J. O. Beran, N. A. Besley, J. M. Herbert, C. Y. Lin,
 T. Van Voorhis, S. H. Chien, A. Sodt, R. P. Steele, 
 V. A. Rassolov, P. E. Maslen, P. P. Korambath, R. D. Adamson,
 B. Austin, J. Baker, E. F. C. Byrd, H. Dachsel, R. J. Doerksen,
 A. Dreuw, B. D. Dunietz, A. D. Dutoi, T. R. Furlani,
 S. R. Gwaltney, A. Heyden, S. Hirata, C.-P. Hsu, G. Kedziora,
 R. Z. Khaliullin, P. Klunzinger, A. M. Lee, M. S. Lee, W. Liang,
 I. Lotan, N. Nair, B. Peters, E. I. Proynov, P. A. Pieniazek, 
 Y. M. Rhee, J. Ritchie, E. Rosta, C. D. Sherrill, 
 A. C. Simmonett, J. E. Subotnik, H. L. Woodcock III,
 W. Zhang, A. T. Bell, A. K. Chakraborty, D. M. Chipman,
 F. J. Keil, A. Warshel, W. J. Hehre, H. F. Schaefer III,
 J. Kong, A. I. Krylov, P. M. W. Gill, M. Head-Gordon,
 Q-Chem, Version 3.1, Q-Chem, Inc., Pittsburgh, PA (2007).

 Additional authors for Version 3.1: 
 Z. Gan, Y. Zhao, N. E. Schultz, D. Truhlar, E. Epifanovsky and M. Oana.

 Additional authors for Version 3.2: 
 R. Baer, B. R. Brooks, D. Casanova, J.-D. Chai, C.-L. Cheng, 
 C. Cramer, D. Crittenden, A. Ghysels, G. Hawkins, E. G. Hohenstein, 
 C. Kelley, W. Kurlancheek, D. Liotard, E. Livshits, P. Manohar, 
 A. Marenich, D. Neuhauser, R. Olson, M. A. Rohrdanz, K. S. Thanthiriwatte, 
 A. J. W. Thom, V. Vanovschi, C. F. Williams, Q. Wu and Z.-Q. You. 


 Intel X86 Linux Version

 Q-chem begins on Wed May 22 11:06:45 2013  

 Parallel job on  1  processors
Processing $rem in /usr/local/qchem/config/preferences.

theFileMan(): MAXOPENFILES=974 MAX_SUB_FILE_NUM=16
Maximum size of a physical file is 2.0 GB, maximum size of a tmp-file is 32.0 GB


--------------------------------------------------------------
User input:
--------------------------------------------------------------

$molecule
-1,2
C         -0.00002        0.00000        0.00016
F         -0.00009        0.00000        1.30850
F          1.23364        0.00000       -0.43631
F         -0.61677       -1.06834       -0.43618
F         -0.61677        1.06834       -0.43618
$end

$comment
negative
$end

$xc_functional
C PBE   1.00
X wPBE  1.00
$end

$rem
SYMMETRY_DECOMPOSITION	0
exchange 		general
LRC_DFT                 true
BASIS                   g3large
omega			700
mem_static              760
max_scf_cycles          200
scf_final_print         1
sym_ignore              true
$end

--------------------------------------------------------------
 Writing REM_CC_EA            5
 ----------------------------------------------------
       Standard Nuclear Orientation (Angstroms)
    I     Atom         X            Y            Z
 ----------------------------------------------------
    1      C      -0.000020     0.000000     0.000160
    2      F      -0.000090     0.000000     1.308500
    3      F       1.233640     0.000000    -0.436310
    4      F      -0.616770    -1.068340    -0.436180
    5      F      -0.616770     1.068340    -0.436180
 ----------------------------------------------------
 Nuclear Repulsion Energy =   207.7169013469 hartrees
 There are       22 alpha and       21 beta electrons
 Requested basis set is G3large
 There are 50 shells and 210 basis functions

Total QAlloc Memory Limit   2000 MB
Mega-Array Size       743 MB
MEM_STATIC part       760 MB

                       Distance Matrix (Angstroms)
             C (  1)   F (  2)   F (  3)   F (  4)
   F (  2)  1.308340
   F (  3)  1.308596  2.136926
   F (  4)  1.308481  2.136715  2.136672
   F (  5)  1.308481  2.136715  2.136672  2.136680
 
 A cutoff of  1.0D-08 yielded   1069 shell pairs
 There are  19577 function pairs ( 25569 Cartesian)
Evaluating contribution to one-electron hamiltonian from nuclear
 Smallest overlap matrix eigenvalue = 1.11E-03
 Multipole matrices computed through 2nd order

  Scale SEOQF with 1.000000e-01/1.000000e-01/1.000000e-01

 Standard Electronic Orientation quadrupole field applied
 Guess from superposition of atomic densities
 Warning:  Energy on first SCF cycle will be non-variational
 Long-range K will be added via erf
 Coulomb attenuation parameter = 0.7 bohr**(-1)
 An unrestricted Kohn-Sham SCF calculation will be
 performed using Pulay DIIS extrapolation
 Exchange:  wPBE + LR-HF      Correlation:  PBE
 Using SG-1 standard quadrature grid
 SCF converges when DIIS error is below 1.0E-05
 Requested basis set is G3large
 There are 50 shells and 210 basis functions
 A cutoff of  1.0D-08 yielded   1069 shell pairs
 There are  19577 function pairs ( 25569 Cartesian)
 Warning!  Inaccurate integrated density:
   Number of electrons =    43
   Numerical integral  =    42.000206550446
   Relative error      =    -2.3251010455 %
 ---------------------------------------
  Cycle       Energy         DIIS Error
 ---------------------------------------
    1    -438.6630525674      3.26E-02
    2    -437.2170530343      6.88E-03
    3    -437.3060203628      5.50E-03
    4    -437.3940913584      4.02E-04
    5    -437.3951709131      1.60E-04
    6    -437.3953286170      4.14E-05
    7    -437.3953404280      2.10E-05
    8    -437.3953423852      2.96E-06 Convergence criterion met
 ---------------------------------------
 One-Electron    Energy = -1027.6441143080
 Total Coulomb   Energy =   429.8258395250
 Alpha Exchange  Energy =    -7.0512152686
 Beta  Exchange  Energy =    -6.9721778736
 DFT   Exchange  Energy =   -31.7873747604
 DFT Correlation Energy =    -1.4832010466
 Nuclear Repu.   Energy =   207.7169013469
 Nuclear Attr.   Energy = -1464.2417828367
 Kinetic         Energy =   436.5976685287
 <S^2> = 0.7502
 SCF time:  CPU 92.75 s  wall 93.33 s
 Final Alpha MO Eigenvalues
            1           2           3           4           5           6
    1 -24.5180135 -24.5179950 -24.5179155 -24.5178841 -10.4620980  -1.4977899
            7           8           9          10          11          12
    1  -1.3583435  -1.3582670  -1.3581921  -0.7957265  -0.6967254  -0.6967063
           13          14          15          16          17          18
    1  -0.6966751  -0.5578028  -0.5577895  -0.5173751  -0.5173261  -0.5173246
           19          20          21          22          23          24
    1  -0.4753493  -0.4753172  -0.4752991   0.0674418   0.1996405   0.1996446
           25          26          27
    1   0.1996866   0.4160458   0.4161063
 Final Beta MO Eigenvalues
            1           2           3           4           5           6
    1 -24.5177670 -24.5177491 -24.5176674 -24.5176364 -10.4619892  -1.4970561
            7           8           9          10          11          12
    1  -1.3573455  -1.3572693  -1.3571912  -0.7947520  -0.6962863  -0.6962661
           13          14          15          16          17          18
    1  -0.6962334  -0.5576338  -0.5576195  -0.5167748  -0.5167262  -0.5167247
           19          20          21          22          23          24
    1  -0.4754130  -0.4753838  -0.4753621   0.2015252   0.2203014   0.2204160
           25          26
    1   0.2204682   0.4180591
 Analysis of SCF Wavefunction
 
 --------------------------------------------------------------
                    Orbital Energies (a.u.)
 --------------------------------------------------------------
 
 Alpha MOs
 -- Occupied --
-24.518 -24.518 -24.518 -24.518 -10.462  -1.498  -1.358  -1.358
 -1.358  -0.796  -0.697  -0.697  -0.697  -0.558  -0.558  -0.517
 -0.517  -0.517  -0.475  -0.475  -0.475   0.067
 -- Virtual --
  0.200   0.200   0.200   0.416   0.416   0.416   0.462   0.462
  0.488   0.490   0.518   0.518   0.518   0.550   0.550   0.550
  0.553   0.553   0.553   0.625   0.667   0.667   0.667   0.914
  0.914   0.914   1.144   1.162   1.162   1.392   1.392   1.392
  1.547   1.547   1.547   1.564   1.564   1.655   1.702   1.702
  1.702   1.785   1.785   1.785   2.190   2.190   2.190   2.238
  2.238   2.238   2.300   2.300   2.337   2.337   2.337   2.391
  2.474   2.474   2.474   2.860   2.860   2.861   2.961   2.961
  2.962   3.289   3.508   3.508   3.626   3.626   3.706   3.707
  3.707   3.963   4.000   4.000   4.000   4.055   4.055   4.055
  4.517   4.517   4.517   6.444   6.444   6.570   6.570   6.570
  6.589   6.589   6.589   6.750   6.928   6.928   6.928   6.933
  6.933   6.933   6.944   6.948   6.948   6.948   6.975   6.975
  7.002   7.026   7.026   7.026   7.164   7.165   7.165   7.317
  7.317   7.410   7.423   7.423   7.423   7.886   7.886   7.886
  8.149   8.150   8.150   9.385   9.385   9.411   9.411   9.412
  9.573   9.574   9.574   9.763   9.763   9.763   9.914   9.914
  9.914  10.009  10.341  10.342  10.439  10.439  10.439  25.000
 28.031  28.031  28.031  41.002  41.122  41.151  41.271  41.369
 50.373  50.382  50.386  50.409  50.411  50.431  50.452  50.467
 50.506  50.520  50.524  50.595  50.608  50.609  50.665  50.746
 50.749  50.776  50.781  50.781  55.838  55.838  55.926  55.926
 55.926  55.971  55.971  55.971  56.226  56.482  56.482  56.482
 66.925  66.925  66.925  66.980
 
 Beta MOs
 -- Occupied --
-24.518 -24.518 -24.518 -24.518 -10.462  -1.497  -1.357  -1.357
 -1.357  -0.795  -0.696  -0.696  -0.696  -0.558  -0.558  -0.517
 -0.517  -0.517  -0.475  -0.475  -0.475
 -- Virtual --
  0.202   0.220   0.220   0.220   0.418   0.418   0.418   0.462
  0.462   0.487   0.500   0.520   0.521   0.521   0.545   0.545
  0.546   0.554   0.555   0.555   0.626   0.664   0.664   0.664
  0.914   0.914   0.914   1.142   1.163   1.163   1.391   1.391
  1.391   1.546   1.546   1.546   1.562   1.562   1.654   1.701
  1.701   1.701   1.784   1.784   1.784   2.189   2.189   2.189
  2.238   2.238   2.238   2.300   2.300   2.337   2.337   2.337
  2.391   2.474   2.474   2.474   2.860   2.860   2.861   2.962
  2.962   2.962   3.289   3.509   3.509   3.626   3.626   3.706
  3.706   3.706   3.963   4.001   4.001   4.001   4.055   4.055
  4.055   4.517   4.517   4.517   6.444   6.444   6.570   6.570
  6.570   6.589   6.589   6.589   6.750   6.928   6.928   6.928
  6.933   6.933   6.933   6.944   6.948   6.948   6.948   6.975
  6.975   7.002   7.026   7.026   7.026   7.165   7.165   7.165
  7.318   7.318   7.411   7.423   7.423   7.423   7.886   7.887
  7.887   8.149   8.150   8.150   9.385   9.385   9.412   9.412
  9.412   9.574   9.574   9.574   9.763   9.763   9.763   9.914
  9.914   9.915  10.010  10.342  10.342  10.439  10.439  10.439
 25.000  28.031  28.031  28.031  41.002  41.122  41.151  41.271
 41.369  50.373  50.382  50.385  50.409  50.411  50.431  50.452
 50.466  50.506  50.519  50.524  50.595  50.608  50.609  50.665
 50.745  50.749  50.775  50.781  50.781  55.838  55.838  55.926
 55.926  55.927  55.971  55.971  55.971  56.226  56.482  56.482
 56.482  66.926  66.926  66.926  66.980
 --------------------------------------------------------------
 
          Ground-State Mulliken Net Atomic Charges

     Atom                 Charge (a.u.)    Spin (a.u.)
  --------------------------------------------------------
      1 C                    -1.685777       2.550641
      2 F                     0.172409      -0.388349
      3 F                     0.170827      -0.387182
      4 F                     0.172574      -0.388696
      5 F                     0.169967      -0.386414
  --------------------------------------------------------
  Sum of atomic charges =    -1.000000
  Sum of spin   charges =     1.000000

 -----------------------------------------------------------------
                    Cartesian Multipole Moments
 -----------------------------------------------------------------
    Charge (ESU x 10^10)
                -4.8032
    Dipole Moment (Debye)
         X       0.0028      Y       0.0315      Z      -0.0140
       Tot       0.0345
    Quadrupole Moments (Debye-Ang)
        XX     -42.7753     XY       0.0051     YY     -42.7806
        XZ       0.0024     YZ       0.0038     ZZ     -42.7699
    Octapole Moments (Debye-Ang^2)
       XXX       1.5888    XXY       0.0860    XYY      -1.5369
       YYY       0.2582    XXZ      -1.1385    XYZ       0.0009
       YYZ      -1.1368    XZZ       0.0116    YZZ       0.0854
       ZZZ       2.0681
    Hexadecapole Moments (Debye-Ang^3)
      XXXX    -218.2626   XXXY       0.0073   XXYY     -72.7463
      XYYY       0.0371   YYYY    -218.3013   XXXZ      -0.2560
      XXYZ       0.0091   XYYZ       0.2862   YYYZ       0.0271
      XXZZ     -72.9499   XYZZ       0.0049   YYZZ     -72.9578
      XZZZ       0.0053   YZZZ       0.0008   ZZZZ    -218.0154
 -----------------------------------------------------------------
 Total job time:  93.61s(wall), 93.01s(cpu) 
 Wed May 22 11:08:19 2013

        *************************************************************
        *                                                           *
        *  Thank you very much for using Q-Chem.  Have a nice day.  *
        *                                                           *
        *************************************************************


0 sent ACK to 0 
now end server 0 ... 
 
**********************************************************************
Job 2 of 3 
**********************************************************************
 
Process 0 of 1 is on cl247.stfx.acenet.ca - thread support 1
initial socket setup ...start
initial socket setup ...done 
now start server 0 ... 

cmd = /usr/bin/ssh clhead /usr/local/qchem/bin/get_hostid 1171675404 > /scratch/tmp/5997799.1.long.q/qchem17647/lic.dat
                  Welcome to Q-Chem
     A Quantum Leap Into The Future Of Chemistry

 Y. Shao, L. Fusti-Molnar, Y. Jung, J. Kussmann, C. Ochsenfeld,
 S. T. Brown, A. T. B. Gilbert, L. V. Slipchenko,S. V. Levchenko,
 D. P. O'Neill, R. A. DiStasio Jr., R. C. Lochan, T. Wang,
 G. J. O. Beran, N. A. Besley, J. M. Herbert, C. Y. Lin,
 T. Van Voorhis, S. H. Chien, A. Sodt, R. P. Steele, 
 V. A. Rassolov, P. E. Maslen, P. P. Korambath, R. D. Adamson,
 B. Austin, J. Baker, E. F. C. Byrd, H. Dachsel, R. J. Doerksen,
 A. Dreuw, B. D. Dunietz, A. D. Dutoi, T. R. Furlani,
 S. R. Gwaltney, A. Heyden, S. Hirata, C.-P. Hsu, G. Kedziora,
 R. Z. Khaliullin, P. Klunzinger, A. M. Lee, M. S. Lee, W. Liang,
 I. Lotan, N. Nair, B. Peters, E. I. Proynov, P. A. Pieniazek, 
 Y. M. Rhee, J. Ritchie, E. Rosta, C. D. Sherrill, 
 A. C. Simmonett, J. E. Subotnik, H. L. Woodcock III,
 W. Zhang, A. T. Bell, A. K. Chakraborty, D. M. Chipman,
 F. J. Keil, A. Warshel, W. J. Hehre, H. F. Schaefer III,
 J. Kong, A. I. Krylov, P. M. W. Gill, M. Head-Gordon,
 Q-Chem, Version 3.1, Q-Chem, Inc., Pittsburgh, PA (2007).

 Additional authors for Version 3.1: 
 Z. Gan, Y. Zhao, N. E. Schultz, D. Truhlar, E. Epifanovsky and M. Oana.

 Additional authors for Version 3.2: 
 R. Baer, B. R. Brooks, D. Casanova, J.-D. Chai, C.-L. Cheng, 
 C. Cramer, D. Crittenden, A. Ghysels, G. Hawkins, E. G. Hohenstein, 
 C. Kelley, W. Kurlancheek, D. Liotard, E. Livshits, P. Manohar, 
 A. Marenich, D. Neuhauser, R. Olson, M. A. Rohrdanz, K. S. Thanthiriwatte, 
 A. J. W. Thom, V. Vanovschi, C. F. Williams, Q. Wu and Z.-Q. You. 


 Intel X86 Linux Version

 Q-chem begins on Wed May 22 11:08:22 2013  

 Parallel job on  1  processors
Processing $rem in /usr/local/qchem/config/preferences.

theFileMan(): MAXOPENFILES=974 MAX_SUB_FILE_NUM=16
Maximum size of a physical file is 2.0 GB, maximum size of a tmp-file is 32.0 GB


--------------------------------------------------------------
User input:
--------------------------------------------------------------

$molecule
0,1
C         -0.00002        0.00000        0.00016
F         -0.00009        0.00000        1.30850
F          1.23364        0.00000       -0.43631
F         -0.61677       -1.06834       -0.43618
F         -0.61677        1.06834       -0.43618
$end

$comment
neutral
$end

$xc_functional
C PBE   1.00
X wPBE  1.00
$end


$rem
SYMMETRY_DECOMPOSITION	0
LRC_DFT                 true
exchange 		general
BASIS                   g3large
omega			700
mem_static              760
max_scf_cycles          200
scf_final_print         1
sym_ignore              true
$end

--------------------------------------------------------------
 Writing REM_CC_EA            5
 ----------------------------------------------------
       Standard Nuclear Orientation (Angstroms)
    I     Atom         X            Y            Z
 ----------------------------------------------------
    1      C      -0.000020     0.000000     0.000160
    2      F      -0.000090     0.000000     1.308500
    3      F       1.233640     0.000000    -0.436310
    4      F      -0.616770    -1.068340    -0.436180
    5      F      -0.616770     1.068340    -0.436180
 ----------------------------------------------------
 Nuclear Repulsion Energy =   207.7169013469 hartrees
 There are       21 alpha and       21 beta electrons
 Requested basis set is G3large
 There are 50 shells and 210 basis functions

Total QAlloc Memory Limit   2000 MB
Mega-Array Size       743 MB
MEM_STATIC part       760 MB

                       Distance Matrix (Angstroms)
             C (  1)   F (  2)   F (  3)   F (  4)
   F (  2)  1.308340
   F (  3)  1.308596  2.136926
   F (  4)  1.308481  2.136715  2.136672
   F (  5)  1.308481  2.136715  2.136672  2.136680
 
 A cutoff of  1.0D-08 yielded   1069 shell pairs
 There are  19577 function pairs ( 25569 Cartesian)
Evaluating contribution to one-electron hamiltonian from nuclear
 Smallest overlap matrix eigenvalue = 1.11E-03
 Multipole matrices computed through 2nd order

  Scale SEOQF with 1.000000e-01/1.000000e-01/1.000000e-01

 Standard Electronic Orientation quadrupole field applied
 Guess from superposition of atomic densities
 Warning:  Energy on first SCF cycle will be non-variational
 Long-range K will be added via erf
 Coulomb attenuation parameter = 0.7 bohr**(-1)
 A restricted Kohn-Sham SCF calculation will be
 performed using Pulay DIIS extrapolation
 Exchange:  wPBE + LR-HF      Correlation:  PBE
 Using SG-1 standard quadrature grid
 SCF converges when DIIS error is below 1.0E-05
 Requested basis set is G3large
 There are 50 shells and 210 basis functions
 A cutoff of  1.0D-08 yielded   1069 shell pairs
 There are  19577 function pairs ( 25569 Cartesian)
 ---------------------------------------
  Cycle       Energy         DIIS Error
 ---------------------------------------
    1    -438.6630525674      3.26E-02
    2    -437.2862977682      6.94E-03
    3    -437.3780849800      5.51E-03
    4    -437.4659006225      4.49E-04
    5    -437.4667965890      1.53E-04
    6    -437.4669136388      3.39E-05
    7    -437.4669182682      1.88E-05
    8    -437.4669192997      2.58E-06 Convergence criterion met
 ---------------------------------------
 One-Electron    Energy = -1020.4765015942
 Total Coulomb   Energy =   422.4995224641
 Alpha Exchange  Energy =    -6.9743997018
 Beta  Exchange  Energy =    -6.9743997018
 DFT   Exchange  Energy =   -31.7825853014
 DFT Correlation Energy =    -1.4754568116
 Nuclear Repu.   Energy =   207.7169013469
 Nuclear Attr.   Energy = -1456.9291337628
 Kinetic         Energy =   436.4526321687
 SCF time:  CPU 74.33 s  wall 75.21 s
 Final Alpha MO Eigenvalues
            1           2           3           4           5           6
    1 -24.6908607 -24.6907471 -24.6907312 -24.6906992 -10.6348812  -1.6705890
            7           8           9          10          11          12
    1  -1.5304530  -1.5303326  -1.5302848  -0.9666763  -0.8688057  -0.8687663
           13          14          15          16          17          18
    1  -0.8687599  -0.7305950  -0.7305780  -0.6891470  -0.6891041  -0.6890960
           19          20          21          22          23          24
    1  -0.6481665  -0.6481583  -0.6481165   0.0774028   0.1010191   0.1010206
           25          26
    1   0.1010230   0.2730292
 Analysis of SCF Wavefunction
 
 --------------------------------------------------------------
                    Orbital Energies (a.u.)
 --------------------------------------------------------------
 
 Alpha MOs
 -- Occupied --
-24.691 -24.691 -24.691 -24.691 -10.635  -1.671  -1.530  -1.530
 -1.530  -0.967  -0.869  -0.869  -0.869  -0.731  -0.731  -0.689
 -0.689  -0.689  -0.648  -0.648  -0.648
 -- Virtual --
  0.077   0.101   0.101   0.101   0.273   0.273   0.273   0.318
  0.318   0.336   0.343   0.360   0.360   0.360   0.400   0.400
  0.400   0.404   0.404   0.404   0.465   0.512   0.512   0.512
  0.750   0.750   0.750   0.980   0.989   0.989   1.224   1.224
  1.224   1.385   1.385   1.385   1.400   1.400   1.493   1.535
  1.535   1.535   1.618   1.619   1.619   2.020   2.020   2.020
  2.065   2.065   2.065   2.128   2.128   2.164   2.165   2.165
  2.220   2.301   2.301   2.301   2.688   2.688   2.689   2.790
  2.790   2.790   3.119   3.335   3.335   3.455   3.455   3.534
  3.534   3.534   3.789   3.828   3.828   3.828   3.882   3.882
  3.882   4.347   4.347   4.347   6.273   6.273   6.398   6.398
  6.398   6.418   6.418   6.418   6.579   6.756   6.756   6.756
  6.760   6.760   6.760   6.771   6.775   6.775   6.775   6.802
  6.802   6.830   6.854   6.854   6.854   6.992   6.992   6.992
  7.145   7.145   7.238   7.250   7.251   7.251   7.713   7.714
  7.714   7.977   7.977   7.977   9.212   9.212   9.239   9.239
  9.239   9.401   9.401   9.401   9.591   9.591   9.591   9.742
  9.742   9.742   9.837  10.170  10.170  10.267  10.268  10.268
 24.828  27.858  27.858  27.858  40.829  40.950  40.978  41.099
 41.197  50.200  50.209  50.213  50.236  50.238  50.258  50.280
 50.294  50.333  50.347  50.352  50.422  50.435  50.437  50.492
 50.573  50.577  50.603  50.608  50.608  55.665  55.666  55.754
 55.754  55.754  55.798  55.798  55.798  56.054  56.309  56.309
 56.309  66.752  66.752  66.753  66.807
 --------------------------------------------------------------
 
          Ground-State Mulliken Net Atomic Charges

     Atom                 Charge (a.u.)
  ----------------------------------------
      1 C                     0.845000
      2 F                    -0.211029
      3 F                    -0.211333
      4 F                    -0.211326
      5 F                    -0.211312
  ----------------------------------------
  Sum of atomic charges =     0.000000

 -----------------------------------------------------------------
                    Cartesian Multipole Moments
 -----------------------------------------------------------------
    Charge (ESU x 10^10)
                 0.0000
    Dipole Moment (Debye)
         X      -0.0005      Y       0.0001      Z       0.0021
       Tot       0.0021
    Quadrupole Moments (Debye-Ang)
        XX     -25.4594     XY       0.0000     YY     -25.4588
        XZ       0.0005     YZ       0.0000     ZZ     -25.4575
    Octapole Moments (Debye-Ang^2)
       XXX      -0.9385    XXY       0.0000    XYY       0.9367
       YYY       0.0001    XXZ       0.6634    XYZ       0.0000
       YYZ       0.6629    XZZ      -0.0004    YZZ       0.0000
       ZZZ      -1.3211
    Hexadecapole Moments (Debye-Ang^3)
      XXXX     -82.0514   XXXY       0.0002   XXYY     -27.3503
      XYYY       0.0001   YYYY     -82.0497   XXXZ      -0.0585
      XXYZ       0.0000   XYYZ       0.0653   YYYZ       0.0000
      XXZZ     -27.3953   XYZZ       0.0000   YYZZ     -27.3951
      XZZZ       0.0049   YZZZ       0.0000   ZZZZ     -82.0081
 -----------------------------------------------------------------
 Total job time:  75.47s(wall), 74.58s(cpu) 
 Wed May 22 11:09:38 2013

        *************************************************************
        *                                                           *
        *  Thank you very much for using Q-Chem.  Have a nice day.  *
        *                                                           *
        *************************************************************


0 sent ACK to 0 
now end server 0 ... 
 
**********************************************************************
Job 3 of 3 
**********************************************************************
 
Process 0 of 1 is on cl247.stfx.acenet.ca - thread support 1
initial socket setup ...start
initial socket setup ...done 
now start server 0 ... 

cmd = /usr/bin/ssh clhead /usr/local/qchem/bin/get_hostid 1834883085 > /scratch/tmp/5997799.1.long.q/qchem17647/lic.dat
                  Welcome to Q-Chem
     A Quantum Leap Into The Future Of Chemistry

 Y. Shao, L. Fusti-Molnar, Y. Jung, J. Kussmann, C. Ochsenfeld,
 S. T. Brown, A. T. B. Gilbert, L. V. Slipchenko,S. V. Levchenko,
 D. P. O'Neill, R. A. DiStasio Jr., R. C. Lochan, T. Wang,
 G. J. O. Beran, N. A. Besley, J. M. Herbert, C. Y. Lin,
 T. Van Voorhis, S. H. Chien, A. Sodt, R. P. Steele, 
 V. A. Rassolov, P. E. Maslen, P. P. Korambath, R. D. Adamson,
 B. Austin, J. Baker, E. F. C. Byrd, H. Dachsel, R. J. Doerksen,
 A. Dreuw, B. D. Dunietz, A. D. Dutoi, T. R. Furlani,
 S. R. Gwaltney, A. Heyden, S. Hirata, C.-P. Hsu, G. Kedziora,
 R. Z. Khaliullin, P. Klunzinger, A. M. Lee, M. S. Lee, W. Liang,
 I. Lotan, N. Nair, B. Peters, E. I. Proynov, P. A. Pieniazek, 
 Y. M. Rhee, J. Ritchie, E. Rosta, C. D. Sherrill, 
 A. C. Simmonett, J. E. Subotnik, H. L. Woodcock III,
 W. Zhang, A. T. Bell, A. K. Chakraborty, D. M. Chipman,
 F. J. Keil, A. Warshel, W. J. Hehre, H. F. Schaefer III,
 J. Kong, A. I. Krylov, P. M. W. Gill, M. Head-Gordon,
 Q-Chem, Version 3.1, Q-Chem, Inc., Pittsburgh, PA (2007).

 Additional authors for Version 3.1: 
 Z. Gan, Y. Zhao, N. E. Schultz, D. Truhlar, E. Epifanovsky and M. Oana.

 Additional authors for Version 3.2: 
 R. Baer, B. R. Brooks, D. Casanova, J.-D. Chai, C.-L. Cheng, 
 C. Cramer, D. Crittenden, A. Ghysels, G. Hawkins, E. G. Hohenstein, 
 C. Kelley, W. Kurlancheek, D. Liotard, E. Livshits, P. Manohar, 
 A. Marenich, D. Neuhauser, R. Olson, M. A. Rohrdanz, K. S. Thanthiriwatte, 
 A. J. W. Thom, V. Vanovschi, C. F. Williams, Q. Wu and Z.-Q. You. 


 Intel X86 Linux Version

 Q-chem begins on Wed May 22 11:09:41 2013  

 Parallel job on  1  processors
Processing $rem in /usr/local/qchem/config/preferences.

theFileMan(): MAXOPENFILES=974 MAX_SUB_FILE_NUM=16
Maximum size of a physical file is 2.0 GB, maximum size of a tmp-file is 32.0 GB


--------------------------------------------------------------
User input:
--------------------------------------------------------------

$molecule
1,2
C         -0.00002        0.00000        0.00016
F         -0.00009        0.00000        1.30850
F          1.23364        0.00000       -0.43631
F         -0.61677       -1.06834       -0.43618
F         -0.61677        1.06834       -0.43618
$end

$comment
positive
$end

$xc_functional
C PBE   1.00
X wPBE  1.00
$end

$rem
SYMMETRY_DECOMPOSITION	0
LRC_DFT                 true
exchange 		general
BASIS                   g3large
omega			700
mem_static              760
max_scf_cycles          200
scf_final_print         1
sym_ignore              true
$end

--------------------------------------------------------------
 Writing REM_CC_EA            5
 ----------------------------------------------------
       Standard Nuclear Orientation (Angstroms)
    I     Atom         X            Y            Z
 ----------------------------------------------------
    1      C      -0.000020     0.000000     0.000160
    2      F      -0.000090     0.000000     1.308500
    3      F       1.233640     0.000000    -0.436310
    4      F      -0.616770    -1.068340    -0.436180
    5      F      -0.616770     1.068340    -0.436180
 ----------------------------------------------------
 Nuclear Repulsion Energy =   207.7169013469 hartrees
 There are       21 alpha and       20 beta electrons
 Requested basis set is G3large
 There are 50 shells and 210 basis functions

Total QAlloc Memory Limit   2000 MB
Mega-Array Size       743 MB
MEM_STATIC part       760 MB

                       Distance Matrix (Angstroms)
             C (  1)   F (  2)   F (  3)   F (  4)
   F (  2)  1.308340
   F (  3)  1.308596  2.136926
   F (  4)  1.308481  2.136715  2.136672
   F (  5)  1.308481  2.136715  2.136672  2.136680
 
 A cutoff of  1.0D-08 yielded   1069 shell pairs
 There are  19577 function pairs ( 25569 Cartesian)
Evaluating contribution to one-electron hamiltonian from nuclear
 Smallest overlap matrix eigenvalue = 1.11E-03
 Multipole matrices computed through 2nd order

  Scale SEOQF with 1.000000e-01/1.000000e-01/1.000000e-01

 Standard Electronic Orientation quadrupole field applied
 Guess from superposition of atomic densities
 Warning:  Energy on first SCF cycle will be non-variational
 Long-range K will be added via erf
 Coulomb attenuation parameter = 0.7 bohr**(-1)
 An unrestricted Kohn-Sham SCF calculation will be
 performed using Pulay DIIS extrapolation
 Exchange:  wPBE + LR-HF      Correlation:  PBE
 Using SG-1 standard quadrature grid
 SCF converges when DIIS error is below 1.0E-05
 Requested basis set is G3large
 There are 50 shells and 210 basis functions
 A cutoff of  1.0D-08 yielded   1069 shell pairs
 There are  19577 function pairs ( 25569 Cartesian)
 Warning!  Inaccurate integrated density:
   Number of electrons =    41
   Numerical integral  =    42.000206550446
   Relative error      =     2.4395281718 %
 ---------------------------------------
  Cycle       Energy         DIIS Error
 ---------------------------------------
    1    -438.6630525674      3.26E-02
    2    -436.5814586741      7.49E-03
    3    -436.6820290914      6.69E-03
    4    -436.8200839337      1.50E-03
    5    -436.8275826531      3.27E-04
    6    -436.8292060690      2.25E-04
    7    -436.8300962587      1.34E-04
    8    -436.8310163604      9.89E-05
    9    -436.8319177357      7.13E-05
   10    -436.8326746623      3.49E-05
   11    -436.8328124926      7.82E-05
   12    -436.8329900745      4.98E-05
   13    -436.8331473033      3.09E-05
   14    -436.8333054832      3.44E-05
   15    -436.8333551242      8.85E-06 Convergence criterion met
 ---------------------------------------
 One-Electron    Energy = -1006.5100499768
 Total Coulomb   Energy =   408.6151471715
 Alpha Exchange  Energy =    -7.0204277035
 Beta  Exchange  Energy =    -6.5997792339
 DFT   Exchange  Energy =   -31.6032666522
 DFT Correlation Energy =    -1.4318800761
 Nuclear Repu.   Energy =   207.7169013469
 Nuclear Attr.   Energy = -1442.3824706312
 Kinetic         Energy =   435.8724206544
 <S^2> = 0.7608
 SCF time:  CPU 174.48 s  wall 175.79 s
 Final Alpha MO Eigenvalues
            1           2           3           4           5           6
    1 -25.2062892 -25.0537261 -24.9844464 -24.9641275 -10.9550002  -2.0567588
            7           8           9          10          11          12
    1  -1.9186301  -1.8419792  -1.8070487  -1.3317771  -1.2549054  -1.2086435
           13          14          15          16          17          18
    1  -1.1977028  -1.1213815  -1.0935634  -1.0515094  -1.0058246  -0.9859040
           19          20          21          22          23          24
    1  -0.9656165  -0.9437150  -0.9238166  -0.1128704  -0.0668780  -0.0637088
           25          26
    1  -0.0610064  -0.0124910
 Final Beta MO Eigenvalues
            1           2           3           4           5           6
    1 -25.1845677 -25.0450754 -24.9820691 -24.9636388 -10.9558337  -2.0138542
            7           8           9          10          11          12
    1  -1.8848133  -1.8286460  -1.8039315  -1.3094630  -1.2018299  -1.1854827
           13          14          15          16          17          18
    1  -1.1475465  -1.0815176  -0.9962283  -0.9824324  -0.9668607  -0.9511319
           19          20          21          22          23          24
    1  -0.9293852  -0.9209282  -0.6116551  -0.1110589  -0.0637928  -0.0630086
           25
    1  -0.0594779
 Analysis of SCF Wavefunction
 
 --------------------------------------------------------------
                    Orbital Energies (a.u.)
 --------------------------------------------------------------
 
 Alpha MOs
 -- Occupied --
-25.206 -25.054 -24.984 -24.964 -10.955  -2.057  -1.919  -1.842
 -1.807  -1.332  -1.255  -1.209  -1.198  -1.121  -1.094  -1.052
 -1.006  -0.986  -0.966  -0.944  -0.924
 -- Virtual --
 -0.113  -0.067  -0.064  -0.061  -0.012   0.014   0.025   0.074
  0.087   0.097   0.100   0.118   0.120   0.125   0.183   0.194
  0.202   0.204   0.209   0.218   0.241   0.290   0.301   0.306
  0.486   0.489   0.494   0.675   0.682   0.722   0.936   0.937
  0.951   1.081   1.089   1.111   1.143   1.148   1.224   1.244
  1.259   1.285   1.349   1.353   1.354   1.661   1.704   1.709
  1.735   1.763   1.778   1.805   1.827   1.838   1.849   1.860
  1.935   1.966   1.988   2.027   2.353   2.373   2.374   2.480
  2.482   2.498   2.816   3.025   3.027   3.123   3.143   3.224
  3.226   3.231   3.469   3.512   3.515   3.517   3.556   3.569
  3.584   3.998   4.051   4.073   5.842   5.896   6.012   6.032
  6.086   6.102   6.115   6.138   6.229   6.295   6.298   6.368
  6.376   6.434   6.435   6.459   6.463   6.469   6.490   6.492
  6.497   6.510   6.537   6.545   6.580   6.636   6.653   6.703
  6.786   6.813   6.899   6.920   6.935   6.946   7.352   7.383
  7.415   7.596   7.659   7.687   8.752   8.757   8.884   8.914
  8.945   9.050   9.065   9.106   9.167   9.219   9.290   9.393
  9.403   9.447   9.482   9.832   9.842   9.858   9.955   9.995
 24.508  27.537  27.539  27.540  40.510  40.628  40.658  40.778
 40.877  49.680  49.722  49.839  49.870  49.886  49.909  49.933
 49.958  49.976  49.988  50.012  50.027  50.079  50.096  50.135
 50.205  50.253  50.271  50.277  50.321  55.193  55.232  55.372
 55.375  55.437  55.469  55.488  55.509  55.665  55.887  55.983
 56.024  66.251  66.402  66.467  66.506
 
 Beta MOs
 -- Occupied --
-25.185 -25.045 -24.982 -24.964 -10.956  -2.014  -1.885  -1.829
 -1.804  -1.309  -1.202  -1.185  -1.148  -1.082  -0.996  -0.982
 -0.967  -0.951  -0.929  -0.921
 -- Virtual --
 -0.612  -0.111  -0.064  -0.063  -0.059  -0.002   0.021   0.024
  0.077   0.099   0.101   0.102   0.119   0.120   0.126   0.186
  0.198   0.204   0.205   0.209   0.218   0.242   0.291   0.302
  0.306   0.487   0.489   0.496   0.684   0.686   0.721   0.938
  0.942   0.954   1.089   1.117   1.118   1.147   1.150   1.246
  1.251   1.264   1.287   1.354   1.356   1.358   1.685   1.735
  1.737   1.743   1.765   1.785   1.825   1.837   1.854   1.856
  1.868   1.940   1.985   1.994   2.029   2.363   2.381   2.382
  2.488   2.489   2.505   2.821   3.023   3.026   3.142   3.147
  3.225   3.226   3.231   3.471   3.514   3.516   3.520   3.563
  3.570   3.583   4.005   4.054   4.073   5.915   5.924   6.043
  6.052   6.099   6.113   6.126   6.142   6.247   6.351   6.352
  6.399   6.404   6.452   6.454   6.475   6.480   6.482   6.494
  6.498   6.503   6.512   6.542   6.554   6.582   6.650   6.670
  6.709   6.810   6.820   6.908   6.925   6.943   6.954   7.375
  7.390   7.419   7.608   7.666   7.689   8.828   8.840   8.913
  8.936   8.953   9.071   9.089   9.116   9.225   9.233   9.297
  9.409   9.419   9.457   9.501   9.851   9.855   9.883   9.965
  9.997  24.507  27.536  27.538  27.539  40.509  40.627  40.657
 40.777  40.876  49.741  49.787  49.873  49.888  49.919  49.930
 49.942  49.966  49.984  49.994  50.018  50.050  50.095  50.100
 50.141  50.215  50.260  50.279  50.283  50.322  55.245  55.250
 55.380  55.394  55.442  55.476  55.491  55.510  55.674  55.897
 55.987  56.025  66.274  66.410  66.469  66.507
 --------------------------------------------------------------
 
          Ground-State Mulliken Net Atomic Charges

     Atom                 Charge (a.u.)    Spin (a.u.)
  --------------------------------------------------------
      1 C                     0.724032      -0.092597
      2 F                     0.332982       0.713973
      3 F                    -0.046850       0.077652
      4 F                     0.068193       0.284021
      5 F                    -0.078357       0.016952
  --------------------------------------------------------
  Sum of atomic charges =     1.000000
  Sum of spin   charges =     1.000000

 -----------------------------------------------------------------
                    Cartesian Multipole Moments
 -----------------------------------------------------------------
    Charge (ESU x 10^10)
                 4.8032
    Dipole Moment (Debye)
         X      -0.2241      Y      -0.7249      Z       2.1720
       Tot       2.3008
    Quadrupole Moments (Debye-Ang)
        XX     -21.6914     XY       0.7073     YY     -21.3077
        XZ       0.1715     YZ       0.4993     ZZ     -18.1427
    Octapole Moments (Debye-Ang^2)
       XXX       0.1905    XXY      -0.4137    XYY      -0.7091
       YYY      -1.2429    XXZ       0.1995    XYZ       0.0686
       YYZ       0.0969    XZZ      -0.0709    YZZ      -0.3718
       ZZZ       5.5784
    Hexadecapole Moments (Debye-Ang^3)
      XXXX     -73.0279   XXXY       0.6246   XXYY     -24.1459
      XYYY       0.8278   YYYY     -72.0987   XXXZ      -0.6581
      XXYZ       0.2258   XYYZ       0.9530   YYYZ       0.6835
      XXZZ     -23.3404   XYZZ       0.7145   YYZZ     -23.0391
      XZZZ       0.3627   YZZZ       0.8670   ZZZZ     -62.6465
 -----------------------------------------------------------------
 Total job time:  176.05s(wall), 174.74s(cpu) 
 Wed May 22 11:12:37 2013

        *************************************************************
        *                                                           *
        *  Thank you very much for using Q-Chem.  Have a nice day.  *
        *                                                           *
        *************************************************************


0 sent ACK to 0 
now end server 0 ... 
