Process 0 of 1 is on cl212.stfx.acenet.ca - thread support 1
initial socket setup ...start
initial socket setup ...done 
now start server 0 ... 

cmd = /usr/bin/ssh clhead /usr/local/qchem/bin/get_hostid 1501812970 > /scratch/tmp/5954577.1.medium.q/qchem3278/lic.dat
                  Welcome to Q-Chem
     A Quantum Leap Into The Future Of Chemistry

 Y. Shao, L. Fusti-Molnar, Y. Jung, J. Kussmann, C. Ochsenfeld,
 S. T. Brown, A. T. B. Gilbert, L. V. Slipchenko,S. V. Levchenko,
 D. P. O'Neill, R. A. DiStasio Jr., R. C. Lochan, T. Wang,
 G. J. O. Beran, N. A. Besley, J. M. Herbert, C. Y. Lin,
 T. Van Voorhis, S. H. Chien, A. Sodt, R. P. Steele, 
 V. A. Rassolov, P. E. Maslen, P. P. Korambath, R. D. Adamson,
 B. Austin, J. Baker, E. F. C. Byrd, H. Dachsel, R. J. Doerksen,
 A. Dreuw, B. D. Dunietz, A. D. Dutoi, T. R. Furlani,
 S. R. Gwaltney, A. Heyden, S. Hirata, C.-P. Hsu, G. Kedziora,
 R. Z. Khaliullin, P. Klunzinger, A. M. Lee, M. S. Lee, W. Liang,
 I. Lotan, N. Nair, B. Peters, E. I. Proynov, P. A. Pieniazek, 
 Y. M. Rhee, J. Ritchie, E. Rosta, C. D. Sherrill, 
 A. C. Simmonett, J. E. Subotnik, H. L. Woodcock III,
 W. Zhang, A. T. Bell, A. K. Chakraborty, D. M. Chipman,
 F. J. Keil, A. Warshel, W. J. Hehre, H. F. Schaefer III,
 J. Kong, A. I. Krylov, P. M. W. Gill, M. Head-Gordon,
 Q-Chem, Version 3.1, Q-Chem, Inc., Pittsburgh, PA (2007).

 Additional authors for Version 3.1: 
 Z. Gan, Y. Zhao, N. E. Schultz, D. Truhlar, E. Epifanovsky and M. Oana.

 Additional authors for Version 3.2: 
 R. Baer, B. R. Brooks, D. Casanova, J.-D. Chai, C.-L. Cheng, 
 C. Cramer, D. Crittenden, A. Ghysels, G. Hawkins, E. G. Hohenstein, 
 C. Kelley, W. Kurlancheek, D. Liotard, E. Livshits, P. Manohar, 
 A. Marenich, D. Neuhauser, R. Olson, M. A. Rohrdanz, K. S. Thanthiriwatte, 
 A. J. W. Thom, V. Vanovschi, C. F. Williams, Q. Wu and Z.-Q. You. 


 Intel X86 Linux Version

 Q-chem begins on Wed Apr 24 15:15:35 2013  

 Parallel job on  1  processors
Processing $rem in /usr/local/qchem/config/preferences.

theFileMan(): MAXOPENFILES=974 MAX_SUB_FILE_NUM=16
Maximum size of a physical file is 2.0 GB, maximum size of a tmp-file is 32.0 GB


--------------------------------------------------------------
User input:
--------------------------------------------------------------

$molecule
-1,2
O
O,1,r
O,2,r,1,a

 r=1.26435929
 a=117.92287929

$end

$comment
negative
$end

$xc_functional
C PBE   1.00
X wPBE  1.00
$end

$rem
SYMMETRY_DECOMPOSITION	0
exchange 		general
LRC_DFT                 true
BASIS                   g3large
omega			100
mem_static              760
max_scf_cycles          200
scf_final_print         1
sym_ignore              true
$end

--------------------------------------------------------------
 Writing REM_CC_EA            3
 ----------------------------------------------------
       Standard Nuclear Orientation (Angstroms)
    I     Atom         X            Y            Z
 ----------------------------------------------------
    1      O       0.000000     0.000000     0.000000
    2      O       0.000000     0.000000     1.264359
    3      O       1.117161     0.000000     1.856437
 ----------------------------------------------------
 Nuclear Repulsion Energy =    69.2034819064 hartrees
 There are       13 alpha and       12 beta electrons
 Requested basis set is G3large
 There are 30 shells and 126 basis functions

Total QAlloc Memory Limit   2000 MB
Mega-Array Size       743 MB
MEM_STATIC part       760 MB

                       Distance Matrix (Angstroms)
             O (  1)   O (  2)
   O (  2)  1.264359
   O (  3)  2.166658  1.264359
 
 A cutoff of  1.0D-08 yielded    433 shell pairs
 There are   7808 function pairs ( 10265 Cartesian)
Evaluating contribution to one-electron hamiltonian from nuclear
 Smallest overlap matrix eigenvalue = 6.16E-04
 Multipole matrices computed through 2nd order

  Scale SEOQF with 1.000000e-01/1.000000e+00/1.000000e-01

 Standard Electronic Orientation quadrupole field applied
 Nucleus-field energy     =    -0.0000000040 hartrees
 Guess from superposition of atomic densities
 Warning:  Energy on first SCF cycle will be non-variational
 Long-range K will be added via erf
 Coulomb attenuation parameter = 0.1 bohr**(-1)
 An unrestricted Kohn-Sham SCF calculation will be
 performed using Pulay DIIS extrapolation
 Exchange:  wPBE + LR-HF      Correlation:  PBE
 Using SG-1 standard quadrature grid
 SCF converges when DIIS error is below 1.0E-05
 Requested basis set is G3large
 There are 30 shells and 126 basis functions
 A cutoff of  1.0D-08 yielded    433 shell pairs
 There are   7808 function pairs ( 10265 Cartesian)
 Warning!  Inaccurate integrated density:
   Number of electrons =    25
   Numerical integral  =    23.999914857071
   Relative error      =    -4.0003405717 %
 ---------------------------------------
  Cycle       Energy         DIIS Error
 ---------------------------------------
    1    -225.5420567086      3.52E-02
    2    -225.2404343525      9.33E-03
    3    -225.0429958384      1.56E-02
    4    -225.3708043092      2.46E-03
    5    -225.3766529457      1.35E-03
    6    -225.3788814262      5.73E-04
    7    -225.3793594597      1.10E-04
    8    -225.3793773543      1.53E-05
    9    -225.3793779603      2.52E-06 Convergence criterion met
 ---------------------------------------
 One-Electron    Energy =  -454.3810339846
 Total Coulomb   Energy =   185.4973555823
 Alpha Exchange  Energy =    -0.7276103867
 Beta  Exchange  Energy =    -0.6707522381
 DFT   Exchange  Energy =   -23.4563695059
 DFT Correlation Energy =    -0.8444493298
 Nuclear Repu.   Energy =    69.2034819024
 Nuclear Attr.   Energy =  -679.7773902866
 Kinetic         Energy =   225.3963563020
 <S^2> = 0.7518
 SCF time:  CPU 26.24 s  wall 28.12 s
 Final Alpha MO Eigenvalues
            1           2           3           4           5           6
    1 -18.7165874 -18.5682475 -18.5681941  -0.9932670  -0.7439716  -0.4480342
            7           8           9          10          11          12
    1  -0.2869632  -0.2778255  -0.2697580  -0.0805621  -0.0405664  -0.0324288
           13          14          15          16          17          18
    1   0.0335201   0.3127760   0.3180354   0.3180506   0.3627325   0.3868206
 Final Beta MO Eigenvalues
            1           2           3           4           5           6
    1 -18.7050597 -18.5612133 -18.5611783  -0.9772228  -0.7314753  -0.4270034
            7           8           9          10          11          12
    1  -0.2662837  -0.2605479  -0.2473017  -0.0455089  -0.0338864  -0.0240026
           13          14          15          16          17
    1   0.1865161   0.3165208   0.3208798   0.3214401   0.3702787
 Analysis of SCF Wavefunction
 
 --------------------------------------------------------------
                    Orbital Energies (a.u.)
 --------------------------------------------------------------
 
 Alpha MOs
 -- Occupied --
-18.717 -18.568 -18.568  -0.993  -0.744  -0.448  -0.287  -0.278
 -0.270  -0.081  -0.041  -0.032   0.034
 -- Virtual --
  0.313   0.318   0.318   0.363   0.387   0.408   0.414   0.438
  0.451   0.469   0.482   0.526   0.544   0.578   1.103   1.187
  1.188   1.203   1.232   1.253   1.269   1.286   1.330   1.427
  1.457   1.476   1.540   1.653   1.713   1.764   1.770   1.803
  1.844   2.130   2.298   2.394   2.495   2.507   2.605   2.765
  2.803   4.487   4.590   4.601   4.722   4.734   4.754   4.780
  4.955   4.998   5.057   5.095   5.105   5.133   5.144   5.221
  5.227   5.243   5.259   5.288   5.351   5.366   5.631   5.689
  5.855   6.288   6.675   6.737   6.845   6.869   6.907   6.911
  6.979   7.013   7.021   7.058   7.136   7.250   7.391   7.425
  7.502   7.522   7.641   8.034   8.193   8.447  43.665  43.684
 43.731  43.736  43.737  43.790  43.799  43.805  43.832  43.848
 43.849  43.879  43.890  44.022  44.079  45.485  45.543  45.576
 45.685  45.731  45.736  45.743  46.730  47.495  49.814  49.917
 49.952
 
 Beta MOs
 -- Occupied --
-18.705 -18.561 -18.561  -0.977  -0.731  -0.427  -0.266  -0.261
 -0.247  -0.046  -0.034  -0.024
 -- Virtual --
  0.187   0.317   0.321   0.321   0.370   0.391   0.409   0.422
  0.445   0.458   0.475   0.484   0.536   0.546   0.583   1.107
  1.192   1.207   1.210   1.235   1.259   1.291   1.311   1.335
  1.433   1.472   1.489   1.551   1.663   1.728   1.772   1.785
  1.819   1.864   2.133   2.315   2.413   2.503   2.529   2.610
  2.770   2.808   4.511   4.603   4.607   4.733   4.755   4.766
  4.790   4.969   5.044   5.065   5.128   5.138   5.147   5.165
  5.245   5.250   5.254   5.282   5.310   5.367   5.384   5.644
  5.714   5.875   6.294   6.708   6.770   6.879   6.900   6.929
  6.938   7.001   7.047   7.059   7.094   7.144   7.256   7.411
  7.456   7.527   7.533   7.647   8.041   8.203   8.456  43.693
 43.712  43.752  43.757  43.765  43.796  43.819  43.825  43.837
 43.851  43.867  43.891  43.898  44.028  44.084  45.515  45.549
 45.581  45.707  45.735  45.748  45.763  46.735  47.501  49.822
 49.928  49.959
 --------------------------------------------------------------
 
          Ground-State Mulliken Net Atomic Charges

     Atom                 Charge (a.u.)    Spin (a.u.)
  --------------------------------------------------------
      1 O                    -0.513130       0.333672
      2 O                     0.026499       0.332862
      3 O                    -0.513369       0.333466
  --------------------------------------------------------
  Sum of atomic charges =    -1.000000
  Sum of spin   charges =     1.000000

 -----------------------------------------------------------------
                    Cartesian Multipole Moments
 -----------------------------------------------------------------
    Charge (ESU x 10^10)
                -4.8032
    Dipole Moment (Debye)
         X      -2.7890      Y       0.0000      Z      -4.3951
       Tot       5.2053
    Quadrupole Moments (Debye-Ang)
        XX     -23.1568     XY      -0.0001     YY     -18.4934
        XZ      -5.3976     YZ       0.0003     ZZ     -28.5754
    Octapole Moments (Debye-Ang^2)
       XXX     -27.3347    XXY      -0.0003    XYY      -7.7416
       YYY      -0.0001    XXZ     -25.7643    XYZ       0.0000
       YYZ     -18.7249    XZZ     -18.1610    YZZ       0.0006
       ZZZ     -78.6881
    Hexadecapole Moments (Debye-Ang^3)
      XXXX     -77.0797   XXXY      -0.0007   XXYY     -15.7005
      XYYY      -0.0002   YYYY     -18.5491   XXXZ     -48.5401
      XXYZ      -0.0001   XYYZ     -14.4764   YYYZ       0.0003
      XXZZ     -58.8074   XYZZ       0.0004   YYZZ     -38.4542
      XZZZ     -62.6846   YZZZ       0.0022   ZZZZ    -253.9195
 -----------------------------------------------------------------
 Total job time:  28.30s(wall), 26.36s(cpu) 
 Wed Apr 24 15:16:03 2013

        *************************************************************
        *                                                           *
        *  Thank you very much for using Q-Chem.  Have a nice day.  *
        *                                                           *
        *************************************************************


0 sent ACK to 0 
now end server 0 ... 
 
**********************************************************************
Job 2 of 3 
**********************************************************************
 
Process 0 of 1 is on cl212.stfx.acenet.ca - thread support 1
initial socket setup ...start
initial socket setup ...done 
now start server 0 ... 

cmd = /usr/bin/ssh clhead /usr/local/qchem/bin/get_hostid 657465240 > /scratch/tmp/5954577.1.medium.q/qchem3278/lic.dat
                  Welcome to Q-Chem
     A Quantum Leap Into The Future Of Chemistry

 Y. Shao, L. Fusti-Molnar, Y. Jung, J. Kussmann, C. Ochsenfeld,
 S. T. Brown, A. T. B. Gilbert, L. V. Slipchenko,S. V. Levchenko,
 D. P. O'Neill, R. A. DiStasio Jr., R. C. Lochan, T. Wang,
 G. J. O. Beran, N. A. Besley, J. M. Herbert, C. Y. Lin,
 T. Van Voorhis, S. H. Chien, A. Sodt, R. P. Steele, 
 V. A. Rassolov, P. E. Maslen, P. P. Korambath, R. D. Adamson,
 B. Austin, J. Baker, E. F. C. Byrd, H. Dachsel, R. J. Doerksen,
 A. Dreuw, B. D. Dunietz, A. D. Dutoi, T. R. Furlani,
 S. R. Gwaltney, A. Heyden, S. Hirata, C.-P. Hsu, G. Kedziora,
 R. Z. Khaliullin, P. Klunzinger, A. M. Lee, M. S. Lee, W. Liang,
 I. Lotan, N. Nair, B. Peters, E. I. Proynov, P. A. Pieniazek, 
 Y. M. Rhee, J. Ritchie, E. Rosta, C. D. Sherrill, 
 A. C. Simmonett, J. E. Subotnik, H. L. Woodcock III,
 W. Zhang, A. T. Bell, A. K. Chakraborty, D. M. Chipman,
 F. J. Keil, A. Warshel, W. J. Hehre, H. F. Schaefer III,
 J. Kong, A. I. Krylov, P. M. W. Gill, M. Head-Gordon,
 Q-Chem, Version 3.1, Q-Chem, Inc., Pittsburgh, PA (2007).

 Additional authors for Version 3.1: 
 Z. Gan, Y. Zhao, N. E. Schultz, D. Truhlar, E. Epifanovsky and M. Oana.

 Additional authors for Version 3.2: 
 R. Baer, B. R. Brooks, D. Casanova, J.-D. Chai, C.-L. Cheng, 
 C. Cramer, D. Crittenden, A. Ghysels, G. Hawkins, E. G. Hohenstein, 
 C. Kelley, W. Kurlancheek, D. Liotard, E. Livshits, P. Manohar, 
 A. Marenich, D. Neuhauser, R. Olson, M. A. Rohrdanz, K. S. Thanthiriwatte, 
 A. J. W. Thom, V. Vanovschi, C. F. Williams, Q. Wu and Z.-Q. You. 


 Intel X86 Linux Version

 Q-chem begins on Wed Apr 24 15:16:06 2013  

 Parallel job on  1  processors
Processing $rem in /usr/local/qchem/config/preferences.

theFileMan(): MAXOPENFILES=974 MAX_SUB_FILE_NUM=16
Maximum size of a physical file is 2.0 GB, maximum size of a tmp-file is 32.0 GB


--------------------------------------------------------------
User input:
--------------------------------------------------------------

$molecule
0,1
O
O,1,r
O,2,r,1,a

 r=1.26435929
 a=117.92287929

$end

$comment
neutral
$end

$xc_functional
C PBE   1.00
X wPBE  1.00
$end


$rem
SYMMETRY_DECOMPOSITION	0
LRC_DFT                 true
exchange 		general
BASIS                   g3large
omega			100
mem_static              760
max_scf_cycles          200
scf_final_print         1
sym_ignore              true
$end

--------------------------------------------------------------
 Writing REM_CC_EA            3
 ----------------------------------------------------
       Standard Nuclear Orientation (Angstroms)
    I     Atom         X            Y            Z
 ----------------------------------------------------
    1      O       0.000000     0.000000     0.000000
    2      O       0.000000     0.000000     1.264359
    3      O       1.117161     0.000000     1.856437
 ----------------------------------------------------
 Nuclear Repulsion Energy =    69.2034819064 hartrees
 There are       12 alpha and       12 beta electrons
 Requested basis set is G3large
 There are 30 shells and 126 basis functions

Total QAlloc Memory Limit   2000 MB
Mega-Array Size       743 MB
MEM_STATIC part       760 MB

                       Distance Matrix (Angstroms)
             O (  1)   O (  2)
   O (  2)  1.264359
   O (  3)  2.166658  1.264359
 
 A cutoff of  1.0D-08 yielded    433 shell pairs
 There are   7808 function pairs ( 10265 Cartesian)
Evaluating contribution to one-electron hamiltonian from nuclear
 Smallest overlap matrix eigenvalue = 6.16E-04
 Multipole matrices computed through 2nd order

  Scale SEOQF with 1.000000e-01/1.000000e+00/1.000000e-01

 Standard Electronic Orientation quadrupole field applied
 Nucleus-field energy     =    -0.0000000040 hartrees
 Guess from superposition of atomic densities
 Warning:  Energy on first SCF cycle will be non-variational
 Long-range K will be added via erf
 Coulomb attenuation parameter = 0.1 bohr**(-1)
 A restricted Kohn-Sham SCF calculation will be
 performed using Pulay DIIS extrapolation
 Exchange:  wPBE + LR-HF      Correlation:  PBE
 Using SG-1 standard quadrature grid
 SCF converges when DIIS error is below 1.0E-05
 Requested basis set is G3large
 There are 30 shells and 126 basis functions
 A cutoff of  1.0D-08 yielded    433 shell pairs
 There are   7808 function pairs ( 10265 Cartesian)
 ---------------------------------------
  Cycle       Energy         DIIS Error
 ---------------------------------------
    1    -225.5420567086      3.52E-02
    2    -225.1686074796      1.04E-02
    3    -224.6059867351      2.35E-02
    4    -225.2304553938      7.48E-03
    5    -225.2998459141      3.08E-03
    6    -225.3132759251      2.04E-04
    7    -225.3133282232      3.25E-05
    8    -225.3133293185      8.41E-06 Convergence criterion met
 ---------------------------------------
 One-Electron    Energy =  -446.2695118737
 Total Coulomb   Energy =   177.0706371302
 Alpha Exchange  Energy =    -0.6714170347
 Beta  Exchange  Energy =    -0.6714170347
 DFT   Exchange  Energy =   -23.1613191662
 DFT Correlation Energy =    -0.8137832418
 Nuclear Repu.   Energy =    69.2034819024
 Nuclear Attr.   Energy =  -671.2136099754
 Kinetic         Energy =   224.9440981016
 SCF time:  CPU 19.87 s  wall 21.62 s
 Final Alpha MO Eigenvalues
            1           2           3           4           5           6
    1 -19.0960576 -18.9189948 -18.9189734  -1.3320725  -1.0771604  -0.7687257
            7           8           9          10          11          12
    1  -0.6112380  -0.6001084  -0.5930999  -0.3929903  -0.3549017  -0.3474108
           13          14          15          16          17
    1  -0.1721086   0.0616897   0.1057580   0.1156881   0.1532292
 Analysis of SCF Wavefunction
 
 --------------------------------------------------------------
                    Orbital Energies (a.u.)
 --------------------------------------------------------------
 
 Alpha MOs
 -- Occupied --
-19.096 -18.919 -18.919  -1.332  -1.077  -0.769  -0.611  -0.600
 -0.593  -0.393  -0.355  -0.347
 -- Virtual --
 -0.172   0.062   0.106   0.116   0.153   0.160   0.187   0.223
  0.223   0.226   0.246   0.247   0.304   0.339   0.379   0.843
  0.906   0.919   0.925   0.962   0.986   0.999   1.021   1.064
  1.139   1.146   1.160   1.237   1.363   1.424   1.464   1.468
  1.496   1.544   1.822   1.983   2.086   2.174   2.199   2.308
  2.469   2.498   4.157   4.261   4.272   4.393   4.407   4.422
  4.444   4.625   4.677   4.735   4.778   4.782   4.813   4.816
  4.902   4.908   4.918   4.939   4.964   5.028   5.041   5.307
  5.361   5.527   5.955   6.340   6.404   6.515   6.541   6.581
  6.584   6.647   6.687   6.691   6.726   6.805   6.919   7.061
  7.100   7.174   7.194   7.306   7.699   7.857   8.110  43.300
 43.316  43.371  43.384  43.389  43.423  43.452  43.457  43.472
 43.490  43.500  43.531  43.540  43.667  43.720  45.123  45.177
 45.215  45.339  45.381  45.382  45.392  46.373  47.131  49.455
 49.551  49.602
 --------------------------------------------------------------
 
          Ground-State Mulliken Net Atomic Charges

     Atom                 Charge (a.u.)
  ----------------------------------------
      1 O                    -0.121124
      2 O                     0.242458
      3 O                    -0.121334
  ----------------------------------------
  Sum of atomic charges =     0.000000

 -----------------------------------------------------------------
                    Cartesian Multipole Moments
 -----------------------------------------------------------------
    Charge (ESU x 10^10)
                 0.0000
    Dipole Moment (Debye)
         X      -0.5715      Y       0.0000      Z       0.3432
       Tot       0.6666
    Quadrupole Moments (Debye-Ang)
        XX     -16.9589     XY      -0.0005     YY     -14.7200
        XZ      -0.9879     YZ       0.0006     ZZ     -16.3714
    Octapole Moments (Debye-Ang^2)
       XXX     -19.2029    XXY      -0.0007    XYY      -5.7435
       YYY      -0.0002    XXZ     -17.1460    XYZ      -0.0002
       YYZ     -15.1552    XZZ      -8.0173    YZZ       0.0014
       ZZZ     -52.6151
    Hexadecapole Moments (Debye-Ang^3)
      XXXX     -54.1284   XXXY      -0.0017   XXYY     -10.4244
      XYYY      -0.0005   YYYY     -10.7351   XXXZ     -33.7592
      XXYZ      -0.0005   XYYZ     -10.6748   YYYZ       0.0004
      XXZZ     -38.3624   XYZZ       0.0004   YYZZ     -28.8337
      XZZZ     -37.4580   YZZZ       0.0045   ZZZZ    -181.7364
 -----------------------------------------------------------------
 Total job time:  21.98s(wall), 19.99s(cpu) 
 Wed Apr 24 15:16:28 2013

        *************************************************************
        *                                                           *
        *  Thank you very much for using Q-Chem.  Have a nice day.  *
        *                                                           *
        *************************************************************


0 sent ACK to 0 
now end server 0 ... 
 
**********************************************************************
Job 3 of 3 
**********************************************************************
 
Process 0 of 1 is on cl212.stfx.acenet.ca - thread support 1
initial socket setup ...start
initial socket setup ...done 
now start server 0 ... 

cmd = /usr/bin/ssh clhead /usr/local/qchem/bin/get_hostid 1639837997 > /scratch/tmp/5954577.1.medium.q/qchem3278/lic.dat
                  Welcome to Q-Chem
     A Quantum Leap Into The Future Of Chemistry

 Y. Shao, L. Fusti-Molnar, Y. Jung, J. Kussmann, C. Ochsenfeld,
 S. T. Brown, A. T. B. Gilbert, L. V. Slipchenko,S. V. Levchenko,
 D. P. O'Neill, R. A. DiStasio Jr., R. C. Lochan, T. Wang,
 G. J. O. Beran, N. A. Besley, J. M. Herbert, C. Y. Lin,
 T. Van Voorhis, S. H. Chien, A. Sodt, R. P. Steele, 
 V. A. Rassolov, P. E. Maslen, P. P. Korambath, R. D. Adamson,
 B. Austin, J. Baker, E. F. C. Byrd, H. Dachsel, R. J. Doerksen,
 A. Dreuw, B. D. Dunietz, A. D. Dutoi, T. R. Furlani,
 S. R. Gwaltney, A. Heyden, S. Hirata, C.-P. Hsu, G. Kedziora,
 R. Z. Khaliullin, P. Klunzinger, A. M. Lee, M. S. Lee, W. Liang,
 I. Lotan, N. Nair, B. Peters, E. I. Proynov, P. A. Pieniazek, 
 Y. M. Rhee, J. Ritchie, E. Rosta, C. D. Sherrill, 
 A. C. Simmonett, J. E. Subotnik, H. L. Woodcock III,
 W. Zhang, A. T. Bell, A. K. Chakraborty, D. M. Chipman,
 F. J. Keil, A. Warshel, W. J. Hehre, H. F. Schaefer III,
 J. Kong, A. I. Krylov, P. M. W. Gill, M. Head-Gordon,
 Q-Chem, Version 3.1, Q-Chem, Inc., Pittsburgh, PA (2007).

 Additional authors for Version 3.1: 
 Z. Gan, Y. Zhao, N. E. Schultz, D. Truhlar, E. Epifanovsky and M. Oana.

 Additional authors for Version 3.2: 
 R. Baer, B. R. Brooks, D. Casanova, J.-D. Chai, C.-L. Cheng, 
 C. Cramer, D. Crittenden, A. Ghysels, G. Hawkins, E. G. Hohenstein, 
 C. Kelley, W. Kurlancheek, D. Liotard, E. Livshits, P. Manohar, 
 A. Marenich, D. Neuhauser, R. Olson, M. A. Rohrdanz, K. S. Thanthiriwatte, 
 A. J. W. Thom, V. Vanovschi, C. F. Williams, Q. Wu and Z.-Q. You. 


 Intel X86 Linux Version

 Q-chem begins on Wed Apr 24 15:16:30 2013  

 Parallel job on  1  processors
Processing $rem in /usr/local/qchem/config/preferences.

theFileMan(): MAXOPENFILES=974 MAX_SUB_FILE_NUM=16
Maximum size of a physical file is 2.0 GB, maximum size of a tmp-file is 32.0 GB


--------------------------------------------------------------
User input:
--------------------------------------------------------------

$molecule
1,2
O
O,1,r
O,2,r,1,a

 r=1.26435929
 a=117.92287929

$end

$comment
positive
$end

$xc_functional
C PBE   1.00
X wPBE  1.00
$end

$rem
SYMMETRY_DECOMPOSITION	0
LRC_DFT                 true
exchange 		general
BASIS                   g3large
omega			100
mem_static              760
max_scf_cycles          200
scf_final_print         1
sym_ignore              true
$end

--------------------------------------------------------------
 Writing REM_CC_EA            3
 ----------------------------------------------------
       Standard Nuclear Orientation (Angstroms)
    I     Atom         X            Y            Z
 ----------------------------------------------------
    1      O       0.000000     0.000000     0.000000
    2      O       0.000000     0.000000     1.264359
    3      O       1.117161     0.000000     1.856437
 ----------------------------------------------------
 Nuclear Repulsion Energy =    69.2034819064 hartrees
 There are       12 alpha and       11 beta electrons
 Requested basis set is G3large
 There are 30 shells and 126 basis functions

Total QAlloc Memory Limit   2000 MB
Mega-Array Size       743 MB
MEM_STATIC part       760 MB

                       Distance Matrix (Angstroms)
             O (  1)   O (  2)
   O (  2)  1.264359
   O (  3)  2.166658  1.264359
 
 A cutoff of  1.0D-08 yielded    433 shell pairs
 There are   7808 function pairs ( 10265 Cartesian)
Evaluating contribution to one-electron hamiltonian from nuclear
 Smallest overlap matrix eigenvalue = 6.16E-04
 Multipole matrices computed through 2nd order

  Scale SEOQF with 1.000000e-01/1.000000e+00/1.000000e-01

 Standard Electronic Orientation quadrupole field applied
 Nucleus-field energy     =    -0.0000000040 hartrees
 Guess from superposition of atomic densities
 Warning:  Energy on first SCF cycle will be non-variational
 Long-range K will be added via erf
 Coulomb attenuation parameter = 0.1 bohr**(-1)
 An unrestricted Kohn-Sham SCF calculation will be
 performed using Pulay DIIS extrapolation
 Exchange:  wPBE + LR-HF      Correlation:  PBE
 Using SG-1 standard quadrature grid
 SCF converges when DIIS error is below 1.0E-05
 Requested basis set is G3large
 There are 30 shells and 126 basis functions
 A cutoff of  1.0D-08 yielded    433 shell pairs
 There are   7808 function pairs ( 10265 Cartesian)
 Warning!  Inaccurate integrated density:
   Number of electrons =    23
   Numerical integral  =    23.999914857071
   Relative error      =     4.3474559003 %
 ---------------------------------------
  Cycle       Energy         DIIS Error
 ---------------------------------------
    1    -225.5420567086      3.52E-02
    2    -224.6234429818      1.17E-02
    3    -222.7895806626      3.47E-02
    4    -224.1174911344      2.08E-02
    5    -224.8459929925      1.69E-03
    6    -224.8474215459      1.33E-03
    7    -224.8499137663      1.43E-04
    8    -224.8499494387      1.80E-04
    9    -224.8499762209      1.82E-04
   10    -224.8500193080      1.73E-04
   11    -224.8501342595      6.69E-05
   12    -224.8501461310      7.54E-06 Convergence criterion met
 ---------------------------------------
 One-Electron    Energy =  -437.2448151604
 Total Coulomb   Energy =   168.0852220781
 Alpha Exchange  Energy =    -0.6718985877
 Beta  Exchange  Energy =    -0.6149457333
 DFT   Exchange  Energy =   -22.8317331139
 DFT Correlation Energy =    -0.7754575163
 Nuclear Repu.   Energy =    69.2034819024
 Nuclear Attr.   Energy =  -661.6802402138
 Kinetic         Energy =   224.4354250534
 <S^2> = 0.7571
 SCF time:  CPU 35.70 s  wall 38.40 s
 Final Alpha MO Eigenvalues
            1           2           3           4           5           6
    1 -19.4836423 -19.3395504 -19.3345085  -1.7116535  -1.4664223  -1.1465025
            7           8           9          10          11          12
    1  -0.9748197  -0.9705010  -0.9650575  -0.7592090  -0.7486461  -0.7422745
           13          14          15          16          17
    1  -0.5365934  -0.2984696  -0.2213892  -0.1287154  -0.0681190
 Final Beta MO Eigenvalues
            1           2           3           4           5           6
    1 -19.4799123 -19.3268373 -19.3253806  -1.6999610  -1.4442771  -1.1215777
            7           8           9          10          11          12
    1  -0.9648172  -0.9541111  -0.9449466  -0.7475504  -0.7052284  -0.5823985
           13          14          15          16
    1  -0.5265020  -0.2846981  -0.2006768  -0.1233896
 Analysis of SCF Wavefunction
 
 --------------------------------------------------------------
                    Orbital Energies (a.u.)
 --------------------------------------------------------------
 
 Alpha MOs
 -- Occupied --
-19.484 -19.340 -19.335  -1.712  -1.466  -1.147  -0.975  -0.971
 -0.965  -0.759  -0.749  -0.742
 -- Virtual --
 -0.537  -0.298  -0.221  -0.129  -0.068  -0.066  -0.052   0.009
  0.009   0.020   0.027   0.044   0.096   0.129   0.174   0.552
  0.600   0.603   0.632   0.674   0.690   0.698   0.733   0.763
  0.810   0.820   0.822   0.911   1.033   1.094   1.118   1.132
  1.146   1.212   1.468   1.625   1.751   1.815   1.859   1.975
  2.141   2.154   3.786   3.887   3.896   4.022   4.040   4.047
  4.069   4.259   4.313   4.332   4.403   4.417   4.422   4.441
  4.527   4.534   4.535   4.558   4.585   4.647   4.668   4.922
  4.990   5.155   5.565   5.967   6.012   6.133   6.145   6.170
  6.173   6.267   6.294   6.297   6.348   6.422   6.513   6.675
  6.731   6.807   6.810   6.928   7.322   7.471   7.731  42.906
 42.924  42.959  42.976  42.980  43.024  43.028  43.043  43.059
 43.081  43.088  43.110  43.124  43.255  43.315  44.730  44.777
 44.806  44.928  44.961  44.967  44.980  45.966  46.732  49.050
 49.154  49.188
 
 Beta MOs
 -- Occupied --
-19.480 -19.327 -19.325  -1.700  -1.444  -1.122  -0.965  -0.954
 -0.945  -0.748  -0.705
 -- Virtual --
 -0.582  -0.527  -0.285  -0.201  -0.123  -0.066  -0.058  -0.050
  0.012   0.015   0.022   0.031   0.046   0.099   0.133   0.176
  0.563   0.607   0.619   0.638   0.685   0.703   0.708   0.738
  0.782   0.817   0.827   0.834   0.920   1.052   1.111   1.132
  1.153   1.169   1.224   1.488   1.637   1.757   1.829   1.865
  1.990   2.150   2.171   3.795   3.902   3.914   4.038   4.054
  4.057   4.085   4.272   4.321   4.382   4.418   4.429   4.459
  4.462   4.549   4.555   4.564   4.588   4.611   4.676   4.684
  4.952   5.005   5.169   5.590   5.970   6.040   6.144   6.173
  6.218   6.224   6.278   6.330   6.331   6.353   6.447   6.560
  6.703   6.739   6.817   6.833   6.945   7.333   7.489   7.747
 42.915  42.933  42.985  42.986  42.989  43.034  43.055  43.057
 43.082  43.097  43.098  43.128  43.142  43.269  43.325  44.733
 44.787  44.822  44.934  44.981  44.985  44.996  45.977  46.739
 49.059  49.161  49.199
 --------------------------------------------------------------
 
          Ground-State Mulliken Net Atomic Charges

     Atom                 Charge (a.u.)    Spin (a.u.)
  --------------------------------------------------------
      1 O                     0.280828       0.512139
      2 O                     0.448943       0.111707
      3 O                     0.270229       0.376154
  --------------------------------------------------------
  Sum of atomic charges =     1.000000
  Sum of spin   charges =     1.000000

 -----------------------------------------------------------------
                    Cartesian Multipole Moments
 -----------------------------------------------------------------
    Charge (ESU x 10^10)
                 4.8032
    Dipole Moment (Debye)
         X       1.6602      Y       0.0000      Z       5.0255
       Tot       5.2926
    Quadrupole Moments (Debye-Ang)
        XX     -11.2677     XY      -0.0001     YY     -12.8803
        XZ       2.8138     YZ      -0.0001     ZZ      -5.4518
    Octapole Moments (Debye-Ang^2)
       XXX     -12.1209    XXY       0.0001    XYY      -4.8514
       YYY       0.0000    XXZ      -9.8179    XYZ       0.0000
       YYZ     -13.3556    XZZ       0.2872    YZZ      -0.0004
       ZZZ     -29.8308
    Hexadecapole Moments (Debye-Ang^3)
      XXXX     -37.2894   XXXY       0.0002   XXYY      -8.1307
      XYYY       0.0000   YYYY      -7.9949   XXXZ     -22.1959
      XXYZ       0.0001   XYYZ      -9.1216   YYYZ      -0.0001
      XXZZ     -23.1045   XYZZ      -0.0002   YYZZ     -24.4996
      XZZZ     -18.3468   YZZZ      -0.0010   ZZZZ    -124.5394
 -----------------------------------------------------------------
 Total job time:  38.60s(wall), 35.82s(cpu) 
 Wed Apr 24 15:17:09 2013

        *************************************************************
        *                                                           *
        *  Thank you very much for using Q-Chem.  Have a nice day.  *
        *                                                           *
        *************************************************************


0 sent ACK to 0 
now end server 0 ... 
