Process 0 of 1 is on cl031.stfx.acenet.ca - thread support 1
initial socket setup ...start
initial socket setup ...done 
now start server 0 ... 

cmd = /usr/bin/ssh clhead /usr/local/qchem/bin/get_hostid 249484720 > /scratch/tmp/6027531.1.short.q/qchem11733/lic.dat
                  Welcome to Q-Chem
     A Quantum Leap Into The Future Of Chemistry

 Y. Shao, L. Fusti-Molnar, Y. Jung, J. Kussmann, C. Ochsenfeld,
 S. T. Brown, A. T. B. Gilbert, L. V. Slipchenko,S. V. Levchenko,
 D. P. O'Neill, R. A. DiStasio Jr., R. C. Lochan, T. Wang,
 G. J. O. Beran, N. A. Besley, J. M. Herbert, C. Y. Lin,
 T. Van Voorhis, S. H. Chien, A. Sodt, R. P. Steele, 
 V. A. Rassolov, P. E. Maslen, P. P. Korambath, R. D. Adamson,
 B. Austin, J. Baker, E. F. C. Byrd, H. Dachsel, R. J. Doerksen,
 A. Dreuw, B. D. Dunietz, A. D. Dutoi, T. R. Furlani,
 S. R. Gwaltney, A. Heyden, S. Hirata, C.-P. Hsu, G. Kedziora,
 R. Z. Khaliullin, P. Klunzinger, A. M. Lee, M. S. Lee, W. Liang,
 I. Lotan, N. Nair, B. Peters, E. I. Proynov, P. A. Pieniazek, 
 Y. M. Rhee, J. Ritchie, E. Rosta, C. D. Sherrill, 
 A. C. Simmonett, J. E. Subotnik, H. L. Woodcock III,
 W. Zhang, A. T. Bell, A. K. Chakraborty, D. M. Chipman,
 F. J. Keil, A. Warshel, W. J. Hehre, H. F. Schaefer III,
 J. Kong, A. I. Krylov, P. M. W. Gill, M. Head-Gordon,
 Q-Chem, Version 3.1, Q-Chem, Inc., Pittsburgh, PA (2007).

 Additional authors for Version 3.1: 
 Z. Gan, Y. Zhao, N. E. Schultz, D. Truhlar, E. Epifanovsky and M. Oana.

 Additional authors for Version 3.2: 
 R. Baer, B. R. Brooks, D. Casanova, J.-D. Chai, C.-L. Cheng, 
 C. Cramer, D. Crittenden, A. Ghysels, G. Hawkins, E. G. Hohenstein, 
 C. Kelley, W. Kurlancheek, D. Liotard, E. Livshits, P. Manohar, 
 A. Marenich, D. Neuhauser, R. Olson, M. A. Rohrdanz, K. S. Thanthiriwatte, 
 A. J. W. Thom, V. Vanovschi, C. F. Williams, Q. Wu and Z.-Q. You. 


 Intel X86 Linux Version

 Q-chem begins on Mon Jun  3 15:19:20 2013  

 Parallel job on  1  processors
Processing $rem in /usr/local/qchem/config/preferences.

theFileMan(): MAXOPENFILES=974 MAX_SUB_FILE_NUM=16
Maximum size of a physical file is 2.0 GB, maximum size of a tmp-file is 32.0 GB


--------------------------------------------------------------
User input:
--------------------------------------------------------------

$molecule
1,3
C
C,1,CC
H,1,CH1,2,H1CC
X,1,1.,2,XCC,3,180.,0
H,1,CH2,4,HCX,2,90.,0
H,1,CH2,4,HCX,2,-90.,0
X,2,1.,1,90.,3,0.,0
O,2,CO,7,OCX,1,180.,0

CC=1.51705372
CH1=1.09673202
CH2=1.0950498
CO=1.18915198
H1CC=111.51713621
XCC=122.84016015
HCX=53.57981779
OCX=37.87178741


$end

$comment
negative
$end

$rem
   EXCHANGE B3LYP
   UNRESTRICTED TRUE
   BASIS G3large 
   SCF_PRINT 1
   PDB_PRINT 2
   INCDFT false
   VARTHRESH 0
   MAX_SCF_CYCLES 1000
   MEM_STATIC 256
   MEM_TOTAL 3000
   THRESH 140
   ITHRSH 14
   XC_GRID 75000302
   SCF_CONVERGENCE 6
$end

--------------------------------------------------------------
 Writing REM_CC_EA            0
 ----------------------------------------------------
       Standard Nuclear Orientation (Angstroms)
    I     Atom         X            Y            Z
 ----------------------------------------------------
    1      C       1.170389    -0.099189     0.000000
    2      C      -0.247564     0.440128     0.000000
    3      H       1.183651    -1.195841     0.000000
    4      H       1.694111     0.286024    -0.881170
    5      H       1.694111     0.286024     0.881170
    6      O      -1.263603    -0.177730     0.000000
 ----------------------------------------------------
 Molecular Point Group                 Cs    NOp =  2
 Largest Abelian Subgroup              Cs    NOp =  2
 Nuclear Repulsion Energy =    62.6720648786 hartrees
 There are       12 alpha and       10 beta electrons
 Requested basis set is G3large
 There are 48 shells and 156 basis functions

Total QAlloc Memory Limit   3000 MB
Mega-Array Size       251 MB
MEM_STATIC part       256 MB

                       Distance Matrix (Angstroms)
             C (  1)   C (  2)   H (  3)   H (  4)   H (  5)
   C (  2)  1.517054
   H (  3)  1.096732  2.173654
   H (  4)  1.095050  2.137828  1.798041
   H (  5)  1.095050  2.137828  1.798041  1.762340
   O (  6)  2.435258  1.189152  2.650585  3.120833  3.120833
 
 A cutoff of  1.0D-14 yielded   1149 shell pairs
 There are  12193 function pairs ( 15225 Cartesian)
Evaluating contribution to one-electron hamiltonian from nuclear
 Smallest overlap matrix eigenvalue = 1.57E-04
 Multipole matrices computed through 2nd order

  Scale SEOQF with 1.000000e-01/1.000000e-01/1.000000e-01

 Standard Electronic Orientation quadrupole field applied
 Nucleus-field energy     =     0.0000000011 hartrees
 Guess from superposition of atomic densities
 Warning:  Energy on first SCF cycle will be non-variational
 An unrestricted hybrid HF-DFT SCF calculation will be
 performed using Pulay DIIS extrapolation
 Exchange:     0.2000 Hartree-Fock + 0.0800 Slater + 0.7200 Becke88
 Correlation:  0.8100 LYP + 0.1900 VWN1RPA
 Using Euler-Maclaurin-Lebedev (75,302) quadrature formula
 SCF converges when DIIS error is below 1.0E-06
 Maximum number of SCF iterations = 1000

NRad = 75 NAng = 302
 Warning!  Inaccurate integrated density:
   Number of electrons =    22
   Numerical integral  =    23.000010140740
   Relative error      =     4.5455006397 %
 ---------------------------------------
  Cycle       Energy         DIIS Error
 ---------------------------------------
    1    -153.6701161878      3.74E-02

NRad = 75 NAng = 302
    2    -152.8282557723      9.82E-03

NRad = 75 NAng = 302
    3    -147.6577609659      1.88E-02

NRad = 75 NAng = 302
    4    -153.1231223035      1.35E-02

NRad = 75 NAng = 302
    5    -151.9993253871      1.19E-02

NRad = 75 NAng = 302
    6    -152.3695583198      1.10E-02

NRad = 75 NAng = 302
    7    -151.9603318217      9.81E-03

NRad = 75 NAng = 302
    8    -151.7333233550      8.58E-03

NRad = 75 NAng = 302
    9    -151.6069767926      8.18E-03

NRad = 75 NAng = 302
   10    -151.5941592261      7.30E-03

NRad = 75 NAng = 302
   11    -153.1254596016      8.45E-03

NRad = 75 NAng = 302
   12    -152.6385008056      5.41E-03

NRad = 75 NAng = 302
   13    -152.6807517616      4.38E-03

NRad = 75 NAng = 302
   14    -152.6877771303      3.66E-03

NRad = 75 NAng = 302
   15    -152.6937182468      3.38E-03

NRad = 75 NAng = 302
   16    -152.1871951158      4.74E-03

NRad = 75 NAng = 302
   17    -152.0073090421      3.76E-03

NRad = 75 NAng = 302
   18    -152.9302165156      1.41E-02

NRad = 75 NAng = 302
   19    -152.2244794644      4.25E-03

NRad = 75 NAng = 302
   20    -152.1544554020      4.95E-03

NRad = 75 NAng = 302
   21    -152.1810031430      4.05E-03

NRad = 75 NAng = 302
   22    -152.2015855871      2.96E-03

NRad = 75 NAng = 302
   23    -152.6803380907      4.16E-03

NRad = 75 NAng = 302
   24    -152.7008128009      3.70E-03

NRad = 75 NAng = 302
   25    -152.7066081592      3.74E-03

NRad = 75 NAng = 302
   26    -151.9409948180      3.38E-03

NRad = 75 NAng = 302
   27    -152.0254008866      4.20E-03

NRad = 75 NAng = 302
 Info = 12520

 Q-Chem warning in module diagon.C, line 98:

 Call to dsyevd failed in Diagonalize

   28    -152.1058822705      3.53E-03

NRad = 75 NAng = 302
   29    -152.2059094885      2.95E-03

NRad = 75 NAng = 302
   30    -152.2321509746      2.94E-03

NRad = 75 NAng = 302
   31    -152.2420722846      2.95E-03

NRad = 75 NAng = 302
   32    -151.7992979374      1.50E-03

NRad = 75 NAng = 302
   33    -152.0267291286      4.11E-03

NRad = 75 NAng = 302
   34    -152.1584534548      3.59E-03

NRad = 75 NAng = 302
   35    -152.1296408807      3.68E-03

NRad = 75 NAng = 302
   36    -151.4013678808      3.84E-03

NRad = 75 NAng = 302
   37    -151.8817868352      2.14E-03

NRad = 75 NAng = 302
   38    -152.2423267410      3.20E-03

NRad = 75 NAng = 302
   39    -151.5759471909      2.98E-03

NRad = 75 NAng = 302
   40    -151.4124343560      3.81E-03

NRad = 75 NAng = 302
   41    -152.3238421302      6.17E-03

NRad = 75 NAng = 302
   42    -152.2873212142      2.15E-03

NRad = 75 NAng = 302
   43    -152.2258949168      1.92E-03

NRad = 75 NAng = 302
   44    -152.0541321564      1.14E-03

NRad = 75 NAng = 302
   45    -151.9916000786      7.28E-03

NRad = 75 NAng = 302
   46    -151.6960428481      1.20E-02

NRad = 75 NAng = 302
   47    -151.8713300592      4.81E-03

NRad = 75 NAng = 302
   48    -152.2632391506      3.39E-03

NRad = 75 NAng = 302
   49    -152.9901346328      8.83E-03

NRad = 75 NAng = 302
   50    -152.7597438856      1.19E-02

NRad = 75 NAng = 302
   51    -152.1250660765      3.43E-03

NRad = 75 NAng = 302
   52    -152.2842650512      4.40E-03

NRad = 75 NAng = 302
   53    -152.2373635953      2.44E-03

NRad = 75 NAng = 302
   54    -152.1821265034      1.76E-03

NRad = 75 NAng = 302
   55    -152.0073873091      2.56E-03

NRad = 75 NAng = 302
   56    -152.4567015129      2.83E-03

NRad = 75 NAng = 302
   57    -152.5409825238      2.35E-03

NRad = 75 NAng = 302
   58    -152.2606917759      3.13E-03

NRad = 75 NAng = 302
   59    -152.2198035523      3.32E-03

NRad = 75 NAng = 302
   60    -152.1911469873      3.05E-03

NRad = 75 NAng = 302
   61    -152.2258098782      2.87E-03

NRad = 75 NAng = 302
   62    -152.2234481993      3.63E-03

NRad = 75 NAng = 302
   63    -152.6546939168      4.38E-03

NRad = 75 NAng = 302
   64    -152.6546515166      4.39E-03

NRad = 75 NAng = 302
   65    -152.6552437152      4.37E-03

NRad = 75 NAng = 302
   66    -152.6553971748      4.35E-03

NRad = 75 NAng = 302
   67    -152.6551629152      4.38E-03

NRad = 75 NAng = 302
   68    -152.6445805079      4.72E-03

NRad = 75 NAng = 302
   69    -152.6472083735      4.65E-03

NRad = 75 NAng = 302
   70    -152.6664332453      4.10E-03

NRad = 75 NAng = 302
   71    -152.6713707128      3.99E-03

NRad = 75 NAng = 302
   72    -152.2695937535      3.34E-03

NRad = 75 NAng = 302
   73    -152.2680237619      5.70E-03

NRad = 75 NAng = 302
   74    -153.0409342720      2.46E-02

NRad = 75 NAng = 302
   75    -152.4057625311      1.88E-03

NRad = 75 NAng = 302
   76    -152.3797187468      1.40E-03

NRad = 75 NAng = 302
   77    -152.5746584072      1.64E-03

NRad = 75 NAng = 302
   78    -152.3858016315      1.87E-03

NRad = 75 NAng = 302
   79    -152.3978675172      1.82E-03

NRad = 75 NAng = 302
   80    -152.2851134914      1.70E-03

NRad = 75 NAng = 302
   81    -152.7202255998      2.62E-03

NRad = 75 NAng = 302
   82    -152.2516909009      1.65E-03

NRad = 75 NAng = 302
   83    -152.7215497880      2.61E-03

NRad = 75 NAng = 302
   84    -152.7261909244      2.55E-03

NRad = 75 NAng = 302
   85    -152.7358228655      2.28E-03

NRad = 75 NAng = 302
   86    -152.7496313564      1.78E-03

NRad = 75 NAng = 302
   87    -152.7536731911      1.58E-03

NRad = 75 NAng = 302
   88    -152.7601443711      1.25E-03

NRad = 75 NAng = 302
   89    -152.7649672079      9.24E-04

NRad = 75 NAng = 302
   90    -152.7711785654      1.59E-04

NRad = 75 NAng = 302
   91    -152.7712404664      3.51E-05

NRad = 75 NAng = 302
   92    -152.7711845025      1.72E-05

NRad = 75 NAng = 302
   93    -152.7711800162      3.92E-06

NRad = 75 NAng = 302
   94    -152.7711785697      1.54E-06

NRad = 75 NAng = 302
   95    -152.7711784261      1.11E-07 Convergence criterion met
 ---------------------------------------
 One-Electron    Energy =  -323.9674909414
 Total Coulomb   Energy =   128.6711834419
 Alpha Exchange  Energy =    -2.0517446849
 Beta  Exchange  Energy =    -1.8018611995
 DFT   Exchange  Energy =   -15.3503570833
 DFT Correlation Energy =    -0.9429728386
 Nuclear Repu.   Energy =    62.6720648797
 Nuclear Attr.   Energy =  -476.3373033265
 Kinetic         Energy =   152.3698123852
 <S^2> = 2.0048
 SCF time:  CPU 1411.30 s  wall 1452.34 s
 Analysis of SCF Wavefunction
 
 --------------------------------------------------------------
             Orbital Energies (a.u.) and Symmetries
 --------------------------------------------------------------
 
 Alpha MOs, Unrestricted
 -- Occupied --                  
-19.560 -10.611 -10.490  -1.470  -1.059  -0.881  -0.826  -0.779
  1 A'    2 A'    3 A'    4 A'    5 A'    6 A'    7 A'    8 A'                 
 -0.776  -0.710  -0.696  -0.537
  1 A"    9 A'    2 A"   10 A'                                                 
 -- Virtual --                   
 -0.345  -0.183  -0.140  -0.131  -0.130  -0.120  -0.100  -0.093
  3 A"   11 A'   12 A'    4 A"   13 A'   14 A'    5 A"   15 A'                 
 -0.066  -0.063  -0.033  -0.024  -0.011  -0.004   0.009   0.030
  6 A"   16 A'   17 A'   18 A'   19 A'    7 A"   20 A'   21 A'                 
  0.046   0.061   0.083   0.096   0.170   0.202   0.227   0.244
 22 A'    8 A"   23 A'   24 A'   25 A'    9 A"   26 A'   27 A'                 
  0.244   0.266   0.305   0.321   0.340   0.352   0.380   0.415
 10 A"   28 A'   29 A'   11 A"   12 A"   30 A'   31 A'   32 A'                 
  0.467   0.504   0.529   0.595   0.644   0.697   0.753   0.778
 13 A"   33 A'   34 A'   14 A"   35 A'   15 A"   36 A'   37 A'                 
  0.791   0.818   0.835   0.853   0.882   0.900   0.983   1.039
 16 A"   38 A'   39 A'   17 A"   40 A'   18 A"   41 A'   42 A'                 
  1.086   1.107   1.150   1.159   1.223   1.231   1.304   1.327
 19 A"   43 A'   44 A'   20 A"   45 A'   46 A'   47 A'   21 A"                 
  1.379   1.644   1.796   2.035   2.119   2.135   2.210   2.357
 48 A'   22 A"   49 A'   50 A'   23 A"   51 A'   52 A'   24 A"                 
  2.381   2.395   2.486   2.528   2.572   2.606   2.624   2.737
 53 A'   25 A"   54 A'   55 A'   56 A'   26 A"   27 A"   57 A'                 
  2.762   2.801   2.835   2.846   2.867   2.972   3.028   3.052
 28 A"   58 A'   59 A'   29 A"   60 A'   30 A"   61 A'   31 A"                 
  3.080   3.140   3.228   3.279   3.305   3.436   3.513   3.544
 62 A'   32 A"   63 A'   33 A"   64 A'   65 A'   34 A"   66 A'                 
  3.620   3.727   3.769   3.804   3.896   3.919   4.058   4.104
 67 A'   68 A'   35 A"   69 A'   36 A"   70 A'   71 A'   37 A"                 
  4.164   4.186   4.298   4.602   4.648   4.667   4.695   4.764
 38 A"   72 A'   73 A'   39 A"   74 A'   40 A"   75 A'   76 A'                 
  5.024   5.092   5.267   5.286   5.317   5.967   6.128   6.371
 77 A'   41 A"   78 A'   79 A'   42 A"   43 A"   80 A'   44 A"                 
  6.379   6.553   6.820   6.869   7.187  23.883  24.080  26.960
 81 A'   82 A'   45 A"   83 A'   84 A'   85 A'   86 A'   46 A"                 
 27.094  27.478  27.805  27.810  28.127  40.626  40.638  40.717
 87 A'   88 A'   47 A"   89 A'   90 A'   48 A"   91 A'   49 A"                 
 40.749  40.787  40.791  40.854  40.865  40.868  40.902  43.291
 92 A'   50 A"   93 A'   94 A'   95 A'   51 A"   96 A'   52 A"                 
 43.292  43.429  43.437  43.576  45.412  45.451  46.227  49.741
 97 A'   53 A"   98 A'   99 A'   54 A"  100 A'  101 A'  102 A'                 
 
 Beta MOs, Unrestricted
 -- Occupied --                  
-19.536 -10.596 -10.485  -1.414  -1.033  -0.839  -0.757  -0.754
  1 A'    2 A'    3 A'    4 A'    5 A'    6 A'    1 A"    7 A'                 
 -0.709  -0.684
  8 A'    2 A"                                                                 
 -- Virtual --                   
 -0.577  -0.347  -0.318  -0.176  -0.133  -0.129  -0.126  -0.114
  9 A'   10 A'    3 A"   11 A'   12 A'    4 A"   13 A'   14 A'                 
 -0.097  -0.086  -0.065  -0.059  -0.028  -0.010  -0.002  -0.002
  5 A"   15 A'    6 A"   16 A'   17 A'   18 A'   19 A'    7 A"                 
  0.017   0.035   0.058   0.064   0.091   0.102   0.191   0.208
 20 A'   21 A'   22 A'    8 A"   23 A'   24 A'   25 A'    9 A"                 
  0.236   0.250   0.256   0.289   0.326   0.332   0.347   0.374
 26 A'   10 A"   27 A'   28 A'   29 A'   11 A"   12 A"   30 A'                 
  0.394   0.423   0.485   0.516   0.546   0.602   0.666   0.706
 31 A'   32 A'   13 A"   33 A'   34 A'   14 A"   35 A'   15 A"                 
  0.764   0.800   0.805   0.842   0.851   0.864   0.894   0.911
 36 A'   16 A"   37 A'   38 A'   39 A'   17 A"   40 A'   18 A"                 
  0.998   1.063   1.096   1.128   1.165   1.166   1.241   1.256
 41 A'   42 A'   19 A"   43 A'   44 A'   20 A"   45 A'   46 A'                 
  1.327   1.364   1.421   1.655   1.837   2.062   2.134   2.161
 47 A'   21 A"   48 A'   22 A"   49 A'   50 A'   23 A"   51 A'                 
  2.228   2.372   2.410   2.412   2.517   2.553   2.599   2.624
 52 A'   24 A"   53 A'   25 A"   54 A'   55 A'   56 A'   26 A"                 
  2.643   2.765   2.789   2.823   2.850   2.864   2.916   3.029
 27 A"   57 A'   28 A"   58 A'   59 A'   29 A"   60 A'   30 A"                 
  3.058   3.079   3.118   3.152   3.272   3.293   3.338   3.457
 61 A'   31 A"   62 A'   32 A"   63 A'   33 A"   64 A'   65 A'                 
  3.526   3.560   3.641   3.754   3.784   3.836   3.909   3.939
 34 A"   66 A'   67 A'   68 A'   35 A"   69 A'   36 A"   70 A'                 
  4.074   4.116   4.178   4.212   4.333   4.626   4.715   4.721
 71 A'   37 A"   38 A"   72 A'   73 A'   39 A"   74 A'   40 A"                 
  4.772   4.796   5.040   5.133   5.295   5.326   5.330   5.983
 75 A'   76 A'   77 A'   41 A"   78 A'   79 A'   42 A"   43 A"                 
  6.191   6.457   6.466   6.582   6.836   6.948   7.225  23.891
 80 A'   44 A"   81 A'   82 A'   45 A"   83 A'   84 A'   85 A'                 
 24.096  26.968  27.120  27.489  27.807  27.817  28.134  40.642
 86 A'   46 A"   87 A'   88 A'   47 A"   89 A'   90 A'   48 A"                 
 40.655  40.722  40.763  40.790  40.798  40.864  40.872  40.873
 91 A'   49 A"   92 A'   50 A"   93 A'   94 A'   95 A'   51 A"                 
 40.911  43.341  43.343  43.438  43.489  43.601  45.423  45.503
 96 A'   52 A"   97 A'   53 A"   98 A'   99 A'   54 A"  100 A'                 
 46.242  49.764
101 A'  102 A'                                                                 
 --------------------------------------------------------------
 
          Ground-State Mulliken Net Atomic Charges

     Atom                 Charge (a.u.)    Spin (a.u.)
  --------------------------------------------------------
      1 C                    -0.139291       0.252853
      2 C                     0.268654       0.774368
      3 H                     0.218146       0.104949
      4 H                     0.208823       0.029422
      5 H                     0.208823       0.029422
      6 O                     0.234844       0.808987
  --------------------------------------------------------
  Sum of atomic charges =     1.000000
  Sum of spin   charges =     2.000000

 -----------------------------------------------------------------
                    Cartesian Multipole Moments
 -----------------------------------------------------------------
    Charge (ESU x 10^10)
                 4.8032
    Dipole Moment (Debye)
         X       2.5296      Y       0.1528      Z       0.0000
       Tot       2.5342
    Quadrupole Moments (Debye-Ang)
        XX      -8.1986     XY      -0.8095     YY     -14.3435
        XZ       0.0000     YZ       0.0000     ZZ     -14.2705
    Octapole Moments (Debye-Ang^2)
       XXX       4.5044    XXY       0.7859    XYY       0.4718
       YYY      -4.0132    XXZ       0.0000    XYZ       0.0000
       YYZ       0.0000    XZZ       1.3197    YZZ       0.6174
       ZZZ       0.0000
    Hexadecapole Moments (Debye-Ang^3)
      XXXX    -103.3592   XXXY       1.8142   XXYY     -22.5023
      XYYY      -1.9884   YYYY     -24.5425   XXXZ       0.0000
      XXYZ       0.0000   XYYZ       0.0000   YYYZ       0.0000
      XXZZ     -18.5351   XYZZ       1.6374   YYZZ      -7.4990
      XZZZ       0.0000   YZZZ       0.0000   ZZZZ     -17.2009
 -----------------------------------------------------------------
 Total job time:  1452.87s(wall), 1411.78s(cpu) 
 Mon Jun  3 15:43:33 2013

        *************************************************************
        *                                                           *
        *  Thank you very much for using Q-Chem.  Have a nice day.  *
        *                                                           *
        *************************************************************


0 sent ACK to 0 
now end server 0 ... 
