Process 0 of 1 is on cl079.stfx.acenet.ca - thread support 1
initial socket setup ...start
initial socket setup ...done 
now start server 0 ... 

cmd = /usr/bin/ssh clhead /usr/local/qchem/bin/get_hostid 1591500370 > /scratch/tmp/5955679.1.short.q/qchem27256/lic.dat
                  Welcome to Q-Chem
     A Quantum Leap Into The Future Of Chemistry

 Y. Shao, L. Fusti-Molnar, Y. Jung, J. Kussmann, C. Ochsenfeld,
 S. T. Brown, A. T. B. Gilbert, L. V. Slipchenko,S. V. Levchenko,
 D. P. O'Neill, R. A. DiStasio Jr., R. C. Lochan, T. Wang,
 G. J. O. Beran, N. A. Besley, J. M. Herbert, C. Y. Lin,
 T. Van Voorhis, S. H. Chien, A. Sodt, R. P. Steele, 
 V. A. Rassolov, P. E. Maslen, P. P. Korambath, R. D. Adamson,
 B. Austin, J. Baker, E. F. C. Byrd, H. Dachsel, R. J. Doerksen,
 A. Dreuw, B. D. Dunietz, A. D. Dutoi, T. R. Furlani,
 S. R. Gwaltney, A. Heyden, S. Hirata, C.-P. Hsu, G. Kedziora,
 R. Z. Khaliullin, P. Klunzinger, A. M. Lee, M. S. Lee, W. Liang,
 I. Lotan, N. Nair, B. Peters, E. I. Proynov, P. A. Pieniazek, 
 Y. M. Rhee, J. Ritchie, E. Rosta, C. D. Sherrill, 
 A. C. Simmonett, J. E. Subotnik, H. L. Woodcock III,
 W. Zhang, A. T. Bell, A. K. Chakraborty, D. M. Chipman,
 F. J. Keil, A. Warshel, W. J. Hehre, H. F. Schaefer III,
 J. Kong, A. I. Krylov, P. M. W. Gill, M. Head-Gordon,
 Q-Chem, Version 3.1, Q-Chem, Inc., Pittsburgh, PA (2007).

 Additional authors for Version 3.1: 
 Z. Gan, Y. Zhao, N. E. Schultz, D. Truhlar, E. Epifanovsky and M. Oana.

 Additional authors for Version 3.2: 
 R. Baer, B. R. Brooks, D. Casanova, J.-D. Chai, C.-L. Cheng, 
 C. Cramer, D. Crittenden, A. Ghysels, G. Hawkins, E. G. Hohenstein, 
 C. Kelley, W. Kurlancheek, D. Liotard, E. Livshits, P. Manohar, 
 A. Marenich, D. Neuhauser, R. Olson, M. A. Rohrdanz, K. S. Thanthiriwatte, 
 A. J. W. Thom, V. Vanovschi, C. F. Williams, Q. Wu and Z.-Q. You. 


 Intel X86 Linux Version

 Q-chem begins on Tue Apr 30 21:11:49 2013  

 Parallel job on  1  processors
Processing $rem in /usr/local/qchem/config/preferences.

theFileMan(): MAXOPENFILES=974 MAX_SUB_FILE_NUM=16
Maximum size of a physical file is 2.0 GB, maximum size of a tmp-file is 32.0 GB


--------------------------------------------------------------
User input:
--------------------------------------------------------------

$molecule
-1,2
C
O,1,AB
H,1,AH3,2,H3AB
H,2,BH9,1,H9BA,3,180.,0
X,1,1.,2,BAH12,3,180.,0
H,1,AH1,5,H1AH2,2,90.,0
H,1,AH1,5,H1AH2,2,-90.,0

AB=1.41919435
AH1=1.10117667
AH3=1.09346715
BH9=0.96865998
H1AH2=54.22417123
BAH12=131.27350844
H3AB=106.64369205
H9BA=107.57953769

$end

$comment
negative
$end

$xc_functional
C PBE   1.00
X wPBE  1.00
$end

$rem
SYMMETRY_DECOMPOSITION	0
exchange 		general
LRC_DFT                 true
BASIS                   g3large
omega			450
mem_static              760
max_scf_cycles          200
scf_final_print         1
sym_ignore              true
$end

--------------------------------------------------------------
 Writing REM_CC_EA            6
 ----------------------------------------------------
       Standard Nuclear Orientation (Angstroms)
    I     Atom         X            Y            Z
 ----------------------------------------------------
    1      C       0.000000     0.000000     0.000000
    2      O       0.000000     0.000000     1.419194
    3      H       1.047656     0.000000    -0.313190
    4      H      -0.923422     0.000000     1.711758
    5      H      -0.483834    -0.893396    -0.424662
    6      H      -0.483834     0.893396    -0.424662
 ----------------------------------------------------
 Nuclear Repulsion Energy =    40.2120470818 hartrees
 There are       10 alpha and        9 beta electrons
 Requested basis set is G3large
 There are 44 shells and 124 basis functions

Total QAlloc Memory Limit   2000 MB
Mega-Array Size       743 MB
MEM_STATIC part       760 MB

                       Distance Matrix (Angstroms)
             C (  1)   O (  2)   H (  3)   H (  4)   H (  5)
   O (  2)  1.419194
   H (  3)  1.093467  2.024534
   H (  4)  1.944949  0.968660  2.825874
   H (  5)  1.101177  2.105246  1.776526  2.357050
   H (  6)  1.101177  2.105246  1.776526  2.357050  1.786792
 
 A cutoff of  1.0D-08 yielded    984 shell pairs
 There are   7854 function pairs (  9481 Cartesian)
Evaluating contribution to one-electron hamiltonian from nuclear
 Smallest overlap matrix eigenvalue = 7.96E-04
 Multipole matrices computed through 2nd order

  Scale SEOQF with 1.000000e-01/1.000000e-01/1.000000e-01

 Standard Electronic Orientation quadrupole field applied
 Nucleus-field energy     =    -0.0000000019 hartrees
 Guess from superposition of atomic densities
 Warning:  Energy on first SCF cycle will be non-variational
 Long-range K will be added via erf
 Coulomb attenuation parameter = 0.45 bohr**(-1)
 An unrestricted Kohn-Sham SCF calculation will be
 performed using Pulay DIIS extrapolation
 Exchange:  wPBE + LR-HF      Correlation:  PBE
 Using SG-1 standard quadrature grid
 SCF converges when DIIS error is below 1.0E-05
 Requested basis set is G3large
 There are 44 shells and 124 basis functions
 A cutoff of  1.0D-08 yielded    984 shell pairs
 There are   7854 function pairs (  9481 Cartesian)
 Warning!  Inaccurate integrated density:
   Number of electrons =    19
   Numerical integral  =    18.000036548586
   Relative error      =    -5.2629655338 %
 ---------------------------------------
  Cycle       Energy         DIIS Error
 ---------------------------------------
    1    -115.9569951683      3.80E-02
    2    -115.5739394938      6.44E-03
    3    -115.6031283896      6.68E-03
    4    -115.6613425005      5.63E-04
    5    -115.6646119593      2.78E-04
    6    -115.6657970533      1.30E-04
    7    -115.6664237527      7.30E-05
    8    -115.6668050352      4.81E-05
    9    -115.6670465860      3.40E-05
   10    -115.6672514869      1.81E-05
   11    -115.6673154904      9.24E-06 Convergence criterion met
 ---------------------------------------
 One-Electron    Energy =  -239.4978034660
 Total Coulomb   Energy =    99.1402786816
 Alpha Exchange  Energy =    -2.0540961871
 Beta  Exchange  Energy =    -1.9843303912
 DFT   Exchange  Energy =   -10.8935446587
 DFT Correlation Energy =    -0.5898665489
 Nuclear Repu.   Energy =    40.2120470800
 Nuclear Attr.   Energy =  -354.7624235423
 Kinetic         Energy =   115.2646200763
 <S^2> = 0.7501
 SCF time:  CPU 45.54 s  wall 46.97 s
 Final Alpha MO Eigenvalues
            1           2           3           4           5           6
    1 -18.8384254 -10.0202413  -1.0303234  -0.6945057  -0.5022427  -0.4316405
            7           8           9          10          11          12
    1  -0.4172798  -0.3244561  -0.2625849   0.0274257   0.1471666   0.1598792
           13          14          15
    1   0.1690380   0.2320032   0.2588340
 Final Beta MO Eigenvalues
            1           2           3           4           5           6
    1 -18.8381499 -10.0197280  -1.0296644  -0.6925969  -0.5000817  -0.4311440
            7           8           9          10          11          12
    1  -0.4165126  -0.3239082  -0.2622094   0.1419751   0.1636161   0.1765883
           13          14
    1   0.1794569   0.2308916
 Analysis of SCF Wavefunction
 
 --------------------------------------------------------------
                    Orbital Energies (a.u.)
 --------------------------------------------------------------
 
 Alpha MOs
 -- Occupied --
-18.838 -10.020  -1.030  -0.695  -0.502  -0.432  -0.417  -0.324
 -0.263   0.027
 -- Virtual --
  0.147   0.160   0.169   0.232   0.259   0.266   0.287   0.383
  0.394   0.398   0.401   0.428   0.433   0.452   0.484   0.563
  0.658   0.664   0.750   0.796   0.798   0.822   0.851   0.853
  0.865   0.968   1.019   1.104   1.131   1.226   1.256   1.285
  1.348   1.383   1.385   1.414   1.470   1.533   1.568   1.597
  1.670   1.694   1.715   1.773   1.820   2.101   2.232   2.257
  2.439   2.506   2.655   2.690   2.777   3.047   3.197   3.312
  3.365   3.367   3.384   3.433   3.548   3.586   3.637   3.668
  3.774   3.894   3.972   4.070   4.101   4.129   4.310   4.415
  4.419   4.480   4.542   4.582   4.602   4.645   5.170   5.237
  5.397   5.415   5.573   5.723   5.796   5.829   5.855   6.048
  6.170   6.658   7.210   7.378   7.418   7.441   7.714   7.879
 24.446  28.169  28.202  28.233  41.114  41.162  41.314  41.356
 41.400  43.993  44.007  44.048  44.088  44.159  45.821  46.128
 46.520  50.004
 
 Beta MOs
 -- Occupied --
-18.838 -10.020  -1.030  -0.693  -0.500  -0.431  -0.417  -0.324
 -0.262
 -- Virtual --
  0.142   0.164   0.177   0.179   0.231   0.259   0.265   0.291
  0.385   0.394   0.397   0.402   0.427   0.432   0.449   0.482
  0.561   0.657   0.663   0.746   0.793   0.797   0.820   0.851
  0.853   0.864   0.969   1.019   1.104   1.132   1.226   1.256
  1.286   1.348   1.383   1.385   1.414   1.470   1.533   1.569
  1.598   1.670   1.693   1.715   1.773   1.820   2.101   2.233
  2.258   2.440   2.506   2.655   2.690   2.777   3.047   3.197
  3.312   3.366   3.367   3.384   3.434   3.549   3.586   3.637
  3.669   3.776   3.895   3.972   4.070   4.101   4.130   4.310
  4.416   4.419   4.481   4.542   4.582   4.602   4.644   5.171
  5.237   5.397   5.415   5.573   5.723   5.797   5.830   5.855
  6.048   6.170   6.658   7.211   7.379   7.418   7.442   7.715
  7.879  24.447  28.170  28.202  28.233  41.114  41.163  41.314
 41.356  41.401  43.993  44.007  44.049  44.088  44.160  45.821
 46.128  46.521  50.004
 --------------------------------------------------------------
 
          Ground-State Mulliken Net Atomic Charges

     Atom                 Charge (a.u.)    Spin (a.u.)
  --------------------------------------------------------
      1 C                     2.878594      -2.998433
      2 O                    -0.500054       0.137138
      3 H                    -0.518139       0.578701
      4 H                    -0.446926       0.716486
      5 H                    -1.207058       1.283400
      6 H                    -1.206417       1.282709
  --------------------------------------------------------
  Sum of atomic charges =    -1.000000
  Sum of spin   charges =     1.000000

 -----------------------------------------------------------------
                    Cartesian Multipole Moments
 -----------------------------------------------------------------
    Charge (ESU x 10^10)
                -4.8032
    Dipole Moment (Debye)
         X       4.3325      Y       0.0029      Z      -1.0836
       Tot       4.4660
    Quadrupole Moments (Debye-Ang)
        XX     -37.7447     XY      -0.0027     YY     -38.1480
        XZ       0.5052     YZ      -0.0016     ZZ     -39.4864
    Octapole Moments (Debye-Ang^2)
       XXX      56.5138    XXY       0.0113    XYY      23.3718
       YYY       0.0323    XXZ      -9.8091    XYZ       0.0004
       YYZ      -4.7751    XZZ      21.3821    YZZ       0.0104
       ZZZ     -31.6453
    Hexadecapole Moments (Debye-Ang^3)
      XXXX    -319.6707   XXXY      -0.0211   XXYY    -105.6595
      XYYY      -0.0234   YYYY    -301.1876   XXXZ      34.2711
      XXYZ      -0.0039   XYYZ       8.1099   YYYZ      -0.0141
      XXZZ    -124.3778   XYZZ      -0.0077   YYZZ    -117.1346
      XZZZ      32.6531   YZZZ      -0.0120   ZZZZ    -393.3288
 -----------------------------------------------------------------
 Total job time:  47.12s(wall), 45.66s(cpu) 
 Tue Apr 30 21:12:36 2013

        *************************************************************
        *                                                           *
        *  Thank you very much for using Q-Chem.  Have a nice day.  *
        *                                                           *
        *************************************************************


0 sent ACK to 0 
now end server 0 ... 
 
**********************************************************************
Job 2 of 3 
**********************************************************************
 
Process 0 of 1 is on cl079.stfx.acenet.ca - thread support 1
initial socket setup ...start
initial socket setup ...done 
now start server 0 ... 

cmd = /usr/bin/ssh clhead /usr/local/qchem/bin/get_hostid 345187138 > /scratch/tmp/5955679.1.short.q/qchem27256/lic.dat
                  Welcome to Q-Chem
     A Quantum Leap Into The Future Of Chemistry

 Y. Shao, L. Fusti-Molnar, Y. Jung, J. Kussmann, C. Ochsenfeld,
 S. T. Brown, A. T. B. Gilbert, L. V. Slipchenko,S. V. Levchenko,
 D. P. O'Neill, R. A. DiStasio Jr., R. C. Lochan, T. Wang,
 G. J. O. Beran, N. A. Besley, J. M. Herbert, C. Y. Lin,
 T. Van Voorhis, S. H. Chien, A. Sodt, R. P. Steele, 
 V. A. Rassolov, P. E. Maslen, P. P. Korambath, R. D. Adamson,
 B. Austin, J. Baker, E. F. C. Byrd, H. Dachsel, R. J. Doerksen,
 A. Dreuw, B. D. Dunietz, A. D. Dutoi, T. R. Furlani,
 S. R. Gwaltney, A. Heyden, S. Hirata, C.-P. Hsu, G. Kedziora,
 R. Z. Khaliullin, P. Klunzinger, A. M. Lee, M. S. Lee, W. Liang,
 I. Lotan, N. Nair, B. Peters, E. I. Proynov, P. A. Pieniazek, 
 Y. M. Rhee, J. Ritchie, E. Rosta, C. D. Sherrill, 
 A. C. Simmonett, J. E. Subotnik, H. L. Woodcock III,
 W. Zhang, A. T. Bell, A. K. Chakraborty, D. M. Chipman,
 F. J. Keil, A. Warshel, W. J. Hehre, H. F. Schaefer III,
 J. Kong, A. I. Krylov, P. M. W. Gill, M. Head-Gordon,
 Q-Chem, Version 3.1, Q-Chem, Inc., Pittsburgh, PA (2007).

 Additional authors for Version 3.1: 
 Z. Gan, Y. Zhao, N. E. Schultz, D. Truhlar, E. Epifanovsky and M. Oana.

 Additional authors for Version 3.2: 
 R. Baer, B. R. Brooks, D. Casanova, J.-D. Chai, C.-L. Cheng, 
 C. Cramer, D. Crittenden, A. Ghysels, G. Hawkins, E. G. Hohenstein, 
 C. Kelley, W. Kurlancheek, D. Liotard, E. Livshits, P. Manohar, 
 A. Marenich, D. Neuhauser, R. Olson, M. A. Rohrdanz, K. S. Thanthiriwatte, 
 A. J. W. Thom, V. Vanovschi, C. F. Williams, Q. Wu and Z.-Q. You. 


 Intel X86 Linux Version

 Q-chem begins on Tue Apr 30 21:12:39 2013  

 Parallel job on  1  processors
Processing $rem in /usr/local/qchem/config/preferences.

theFileMan(): MAXOPENFILES=974 MAX_SUB_FILE_NUM=16
Maximum size of a physical file is 2.0 GB, maximum size of a tmp-file is 32.0 GB


--------------------------------------------------------------
User input:
--------------------------------------------------------------

$molecule
0,1
C
O,1,AB
H,1,AH3,2,H3AB
H,2,BH9,1,H9BA,3,180.,0
X,1,1.,2,BAH12,3,180.,0
H,1,AH1,5,H1AH2,2,90.,0
H,1,AH1,5,H1AH2,2,-90.,0

AB=1.41919435
AH1=1.10117667
AH3=1.09346715
BH9=0.96865998
H1AH2=54.22417123
BAH12=131.27350844
H3AB=106.64369205
H9BA=107.57953769

$end

$comment
neutral
$end

$xc_functional
C PBE   1.00
X wPBE  1.00
$end


$rem
SYMMETRY_DECOMPOSITION	0
LRC_DFT                 true
exchange 		general
BASIS                   g3large
omega			450
mem_static              760
max_scf_cycles          200
scf_final_print         1
sym_ignore              true
$end

--------------------------------------------------------------
 Writing REM_CC_EA            6
 ----------------------------------------------------
       Standard Nuclear Orientation (Angstroms)
    I     Atom         X            Y            Z
 ----------------------------------------------------
    1      C       0.000000     0.000000     0.000000
    2      O       0.000000     0.000000     1.419194
    3      H       1.047656     0.000000    -0.313190
    4      H      -0.923422     0.000000     1.711758
    5      H      -0.483834    -0.893396    -0.424662
    6      H      -0.483834     0.893396    -0.424662
 ----------------------------------------------------
 Nuclear Repulsion Energy =    40.2120470818 hartrees
 There are        9 alpha and        9 beta electrons
 Requested basis set is G3large
 There are 44 shells and 124 basis functions

Total QAlloc Memory Limit   2000 MB
Mega-Array Size       743 MB
MEM_STATIC part       760 MB

                       Distance Matrix (Angstroms)
             C (  1)   O (  2)   H (  3)   H (  4)   H (  5)
   O (  2)  1.419194
   H (  3)  1.093467  2.024534
   H (  4)  1.944949  0.968660  2.825874
   H (  5)  1.101177  2.105246  1.776526  2.357050
   H (  6)  1.101177  2.105246  1.776526  2.357050  1.786792
 
 A cutoff of  1.0D-08 yielded    984 shell pairs
 There are   7854 function pairs (  9481 Cartesian)
Evaluating contribution to one-electron hamiltonian from nuclear
 Smallest overlap matrix eigenvalue = 7.96E-04
 Multipole matrices computed through 2nd order

  Scale SEOQF with 1.000000e-01/1.000000e-01/1.000000e-01

 Standard Electronic Orientation quadrupole field applied
 Nucleus-field energy     =    -0.0000000019 hartrees
 Guess from superposition of atomic densities
 Warning:  Energy on first SCF cycle will be non-variational
 Long-range K will be added via erf
 Coulomb attenuation parameter = 0.45 bohr**(-1)
 A restricted Kohn-Sham SCF calculation will be
 performed using Pulay DIIS extrapolation
 Exchange:  wPBE + LR-HF      Correlation:  PBE
 Using SG-1 standard quadrature grid
 SCF converges when DIIS error is below 1.0E-05
 Requested basis set is G3large
 There are 44 shells and 124 basis functions
 A cutoff of  1.0D-08 yielded    984 shell pairs
 There are   7854 function pairs (  9481 Cartesian)
 ---------------------------------------
  Cycle       Energy         DIIS Error
 ---------------------------------------
    1    -115.9569951683      3.80E-02
    2    -115.6443525356      5.87E-03
    3    -115.6637041764      5.34E-03
    4    -115.6976107242      5.69E-04
    5    -115.6981486726      1.29E-04
    6    -115.6982041708      4.14E-05
    7    -115.6982083411      1.26E-05
    8    -115.6982094345      2.43E-06 Convergence criterion met
 ---------------------------------------
 One-Electron    Energy =  -236.8471894726
 Total Coulomb   Energy =    96.3783908591
 Alpha Exchange  Energy =    -1.9856109928
 Beta  Exchange  Energy =    -1.9856109928
 DFT   Exchange  Energy =   -10.8876973426
 DFT Correlation Energy =    -0.5825385727
 Nuclear Repu.   Energy =    40.2120470800
 Nuclear Attr.   Energy =  -352.0506350201
 Kinetic         Energy =   115.2034455475
 SCF time:  CPU 26.68 s  wall 27.85 s
 Final Alpha MO Eigenvalues
            1           2           3           4           5           6
    1 -18.9872973 -10.1718085  -1.1791078  -0.8434428  -0.6509641  -0.5821544
            7           8           9          10          11          12
    1  -0.5637737  -0.4716653  -0.4112256   0.0368683   0.0604570   0.0707998
           13          14
    1   0.0776698   0.1220988
 Analysis of SCF Wavefunction
 
 --------------------------------------------------------------
                    Orbital Energies (a.u.)
 --------------------------------------------------------------
 
 Alpha MOs
 -- Occupied --
-18.987 -10.172  -1.179  -0.843  -0.651  -0.582  -0.564  -0.472
 -0.411
 -- Virtual --
  0.037   0.060   0.071   0.078   0.122   0.142   0.156   0.175
  0.249   0.262   0.262   0.274   0.298   0.301   0.320   0.351
  0.432   0.514   0.524   0.609   0.653   0.654   0.678   0.704
  0.706   0.723   0.816   0.878   0.959   0.982   1.080   1.117
  1.137   1.202   1.237   1.242   1.270   1.319   1.387   1.422
  1.450   1.522   1.545   1.568   1.627   1.675   1.953   2.084
  2.110   2.293   2.358   2.504   2.545   2.629   2.897   3.047
  3.164   3.214   3.218   3.233   3.285   3.399   3.436   3.487
  3.518   3.625   3.746   3.819   3.920   3.951   3.980   4.159
  4.262   4.270   4.329   4.391   4.431   4.453   4.494   5.021
  5.090   5.250   5.267   5.426   5.574   5.647   5.681   5.705
  5.899   6.022   6.510   7.062   7.228   7.270   7.294   7.567
  7.732  24.295  28.017  28.051  28.082  40.962  41.011  41.162
 41.204  41.249  43.844  43.858  43.900  43.939  44.011  45.673
 45.979  46.371  49.855
 --------------------------------------------------------------
 
          Ground-State Mulliken Net Atomic Charges

     Atom                 Charge (a.u.)
  ----------------------------------------
      1 C                    -0.129345
      2 O                    -0.339715
      3 H                     0.085732
      4 H                     0.248601
      5 H                     0.067375
      6 H                     0.067351
  ----------------------------------------
  Sum of atomic charges =     0.000000

 -----------------------------------------------------------------
                    Cartesian Multipole Moments
 -----------------------------------------------------------------
    Charge (ESU x 10^10)
                 0.0000
    Dipole Moment (Debye)
         X      -1.4632      Y       0.0000      Z      -1.0761
       Tot       1.8163
    Quadrupole Moments (Debye-Ang)
        XX     -11.5260     XY       0.0000     YY     -13.7873
        XZ      -3.0927     YZ       0.0000     ZZ     -14.8552
    Octapole Moments (Debye-Ang^2)
       XXX       0.4620    XXY       0.0000    XYY      -0.1882
       YYY       0.0000    XXZ      -5.3660    XYZ       0.0000
       YYZ      -9.1789    XZZ      -5.3057    YZZ       0.0001
       ZZZ     -24.8772
    Hexadecapole Moments (Debye-Ang^3)
      XXXX     -19.1934   XXXY       0.0000   XXYY      -7.0004
      XYYY       0.0000   YYYY     -20.2707   XXXZ      -1.5655
      XXYZ      -0.0001   XYYZ       0.8694   YYYZ       0.0000
      XXZZ     -14.3851   XYZZ       0.0000   YYZZ     -20.5466
      XZZZ      -8.5849   YZZZ       0.0000   ZZZZ     -92.0865
 -----------------------------------------------------------------
 Total job time:  27.98s(wall), 26.79s(cpu) 
 Tue Apr 30 21:13:07 2013

        *************************************************************
        *                                                           *
        *  Thank you very much for using Q-Chem.  Have a nice day.  *
        *                                                           *
        *************************************************************


0 sent ACK to 0 
now end server 0 ... 
 
**********************************************************************
Job 3 of 3 
**********************************************************************
 
Process 0 of 1 is on cl079.stfx.acenet.ca - thread support 1
initial socket setup ...start
initial socket setup ...done 
now start server 0 ... 

cmd = /usr/bin/ssh clhead /usr/local/qchem/bin/get_hostid 1658195429 > /scratch/tmp/5955679.1.short.q/qchem27256/lic.dat
                  Welcome to Q-Chem
     A Quantum Leap Into The Future Of Chemistry

 Y. Shao, L. Fusti-Molnar, Y. Jung, J. Kussmann, C. Ochsenfeld,
 S. T. Brown, A. T. B. Gilbert, L. V. Slipchenko,S. V. Levchenko,
 D. P. O'Neill, R. A. DiStasio Jr., R. C. Lochan, T. Wang,
 G. J. O. Beran, N. A. Besley, J. M. Herbert, C. Y. Lin,
 T. Van Voorhis, S. H. Chien, A. Sodt, R. P. Steele, 
 V. A. Rassolov, P. E. Maslen, P. P. Korambath, R. D. Adamson,
 B. Austin, J. Baker, E. F. C. Byrd, H. Dachsel, R. J. Doerksen,
 A. Dreuw, B. D. Dunietz, A. D. Dutoi, T. R. Furlani,
 S. R. Gwaltney, A. Heyden, S. Hirata, C.-P. Hsu, G. Kedziora,
 R. Z. Khaliullin, P. Klunzinger, A. M. Lee, M. S. Lee, W. Liang,
 I. Lotan, N. Nair, B. Peters, E. I. Proynov, P. A. Pieniazek, 
 Y. M. Rhee, J. Ritchie, E. Rosta, C. D. Sherrill, 
 A. C. Simmonett, J. E. Subotnik, H. L. Woodcock III,
 W. Zhang, A. T. Bell, A. K. Chakraborty, D. M. Chipman,
 F. J. Keil, A. Warshel, W. J. Hehre, H. F. Schaefer III,
 J. Kong, A. I. Krylov, P. M. W. Gill, M. Head-Gordon,
 Q-Chem, Version 3.1, Q-Chem, Inc., Pittsburgh, PA (2007).

 Additional authors for Version 3.1: 
 Z. Gan, Y. Zhao, N. E. Schultz, D. Truhlar, E. Epifanovsky and M. Oana.

 Additional authors for Version 3.2: 
 R. Baer, B. R. Brooks, D. Casanova, J.-D. Chai, C.-L. Cheng, 
 C. Cramer, D. Crittenden, A. Ghysels, G. Hawkins, E. G. Hohenstein, 
 C. Kelley, W. Kurlancheek, D. Liotard, E. Livshits, P. Manohar, 
 A. Marenich, D. Neuhauser, R. Olson, M. A. Rohrdanz, K. S. Thanthiriwatte, 
 A. J. W. Thom, V. Vanovschi, C. F. Williams, Q. Wu and Z.-Q. You. 


 Intel X86 Linux Version

 Q-chem begins on Tue Apr 30 21:13:09 2013  

 Parallel job on  1  processors
Processing $rem in /usr/local/qchem/config/preferences.

theFileMan(): MAXOPENFILES=974 MAX_SUB_FILE_NUM=16
Maximum size of a physical file is 2.0 GB, maximum size of a tmp-file is 32.0 GB


--------------------------------------------------------------
User input:
--------------------------------------------------------------

$molecule
1,2
C
O,1,AB
H,1,AH3,2,H3AB
H,2,BH9,1,H9BA,3,180.,0
X,1,1.,2,BAH12,3,180.,0
H,1,AH1,5,H1AH2,2,90.,0
H,1,AH1,5,H1AH2,2,-90.,0

AB=1.41919435
AH1=1.10117667
AH3=1.09346715
BH9=0.96865998
H1AH2=54.22417123
BAH12=131.27350844
H3AB=106.64369205
H9BA=107.57953769

$end

$comment
positive
$end

$xc_functional
C PBE   1.00
X wPBE  1.00
$end

$rem
SYMMETRY_DECOMPOSITION	0
LRC_DFT                 true
exchange 		general
BASIS                   g3large
omega			450
mem_static              760
max_scf_cycles          200
scf_final_print         1
sym_ignore              true
$end

--------------------------------------------------------------
 Writing REM_CC_EA            6
 ----------------------------------------------------
       Standard Nuclear Orientation (Angstroms)
    I     Atom         X            Y            Z
 ----------------------------------------------------
    1      C       0.000000     0.000000     0.000000
    2      O       0.000000     0.000000     1.419194
    3      H       1.047656     0.000000    -0.313190
    4      H      -0.923422     0.000000     1.711758
    5      H      -0.483834    -0.893396    -0.424662
    6      H      -0.483834     0.893396    -0.424662
 ----------------------------------------------------
 Nuclear Repulsion Energy =    40.2120470818 hartrees
 There are        9 alpha and        8 beta electrons
 Requested basis set is G3large
 There are 44 shells and 124 basis functions

Total QAlloc Memory Limit   2000 MB
Mega-Array Size       743 MB
MEM_STATIC part       760 MB

                       Distance Matrix (Angstroms)
             C (  1)   O (  2)   H (  3)   H (  4)   H (  5)
   O (  2)  1.419194
   H (  3)  1.093467  2.024534
   H (  4)  1.944949  0.968660  2.825874
   H (  5)  1.101177  2.105246  1.776526  2.357050
   H (  6)  1.101177  2.105246  1.776526  2.357050  1.786792
 
 A cutoff of  1.0D-08 yielded    984 shell pairs
 There are   7854 function pairs (  9481 Cartesian)
Evaluating contribution to one-electron hamiltonian from nuclear
 Smallest overlap matrix eigenvalue = 7.96E-04
 Multipole matrices computed through 2nd order

  Scale SEOQF with 1.000000e-01/1.000000e-01/1.000000e-01

 Standard Electronic Orientation quadrupole field applied
 Nucleus-field energy     =    -0.0000000019 hartrees
 Guess from superposition of atomic densities
 Warning:  Energy on first SCF cycle will be non-variational
 Long-range K will be added via erf
 Coulomb attenuation parameter = 0.45 bohr**(-1)
 An unrestricted Kohn-Sham SCF calculation will be
 performed using Pulay DIIS extrapolation
 Exchange:  wPBE + LR-HF      Correlation:  PBE
 Using SG-1 standard quadrature grid
 SCF converges when DIIS error is below 1.0E-05
 Requested basis set is G3large
 There are 44 shells and 124 basis functions
 A cutoff of  1.0D-08 yielded    984 shell pairs
 There are   7854 function pairs (  9481 Cartesian)
 Warning!  Inaccurate integrated density:
   Number of electrons =    17
   Numerical integral  =    18.000036548586
   Relative error      =     5.8825679329 %
 ---------------------------------------
  Cycle       Energy         DIIS Error
 ---------------------------------------
    1    -115.9569951683      3.80E-02
    2    -115.2223947833      4.38E-03
    3    -115.2688548137      2.61E-03
    4    -115.2797144451      8.66E-04
    5    -115.2835151803      6.29E-04
    6    -115.2856247517      3.01E-04
    7    -115.2876513374      1.76E-04
    8    -115.2888521698      7.32E-05
    9    -115.2891218275      4.81E-05
   10    -115.2892701227      3.68E-05
   11    -115.2893361551      1.75E-05
   12    -115.2893424521      3.80E-06 Convergence criterion met
 ---------------------------------------
 One-Electron    Energy =  -230.5087473975
 Total Coulomb   Energy =    90.0793617593
 Alpha Exchange  Energy =    -2.0101242595
 Beta  Exchange  Energy =    -1.7639487889
 DFT   Exchange  Energy =   -10.7533577707
 DFT Correlation Energy =    -0.5445730748
 Nuclear Repu.   Energy =    40.2120470800
 Nuclear Attr.   Energy =  -345.3952230131
 Kinetic         Energy =   114.8864756156
 <S^2> = 0.7555
 SCF time:  CPU 46.46 s  wall 48.15 s
 Final Alpha MO Eigenvalues
            1           2           3           4           5           6
    1 -19.4473122 -10.4742514  -1.5940661  -1.1729844  -1.0133202  -0.9631142
            7           8           9          10          11          12
    1  -0.9169240  -0.8062442  -0.7981116  -0.1503786  -0.1046469  -0.0786330
           13          14
    1  -0.0752126  -0.0516031
 Final Beta MO Eigenvalues
            1           2           3           4           5           6
    1 -19.4269808 -10.4737783  -1.5450183  -1.1557685  -0.9924363  -0.9007421
            7           8           9          10          11          12
    1  -0.8531189  -0.7884923  -0.4058405  -0.1469718  -0.1020784  -0.0772243
           13
    1  -0.0743940
 Analysis of SCF Wavefunction
 
 --------------------------------------------------------------
                    Orbital Energies (a.u.)
 --------------------------------------------------------------
 
 Alpha MOs
 -- Occupied --
-19.447 -10.474  -1.594  -1.173  -1.013  -0.963  -0.917  -0.806
 -0.798
 -- Virtual --
 -0.150  -0.105  -0.079  -0.075  -0.052  -0.042  -0.022   0.002
  0.021   0.040   0.047   0.058   0.066   0.070   0.107   0.134
  0.195   0.277   0.277   0.353   0.395   0.405   0.423   0.440
  0.443   0.480   0.516   0.617   0.679   0.728   0.794   0.831
  0.837   0.903   0.942   0.972   0.995   1.051   1.106   1.144
  1.169   1.233   1.279   1.292   1.321   1.389   1.581   1.744
  1.753   1.940   2.026   2.199   2.245   2.340   2.571   2.752
  2.856   2.897   2.917   2.926   2.988   3.094   3.131   3.169
  3.214   3.311   3.423   3.470   3.614   3.647   3.680   3.828
  3.928   3.975   4.016   4.088   4.117   4.150   4.198   4.618
  4.700   4.815   4.850   5.004   5.189   5.241   5.347   5.364
  5.511   5.665   6.125   6.592   6.817   6.831   6.833   7.147
  7.325  23.991  27.714  27.746  27.781  40.659  40.707  40.859
 40.902  40.945  43.365  43.369  43.421  43.494  43.568  45.188
 45.530  45.921  49.398
 
 Beta MOs
 -- Occupied --
-19.427 -10.474  -1.545  -1.156  -0.992  -0.901  -0.853  -0.788
 -- Virtual --
 -0.406  -0.147  -0.102  -0.077  -0.074  -0.050  -0.041  -0.017
  0.005   0.026   0.042   0.052   0.061   0.067   0.085   0.112
  0.137   0.199   0.281   0.289   0.356   0.407   0.407   0.428
  0.444   0.446   0.489   0.529   0.619   0.683   0.736   0.803
  0.838   0.869   0.924   0.958   0.977   1.000   1.056   1.113
  1.153   1.173   1.242   1.288   1.301   1.343   1.398   1.620
  1.757   1.786   1.964   2.040   2.217   2.249   2.349   2.577
  2.760   2.861   2.911   2.920   2.939   2.990   3.102   3.134
  3.180   3.217   3.318   3.428   3.479   3.623   3.653   3.687
  3.830   3.939   3.989   4.026   4.105   4.138   4.161   4.210
  4.720   4.722   4.871   4.897   5.061   5.206   5.288   5.373
  5.379   5.548   5.673   6.144   6.680   6.848   6.894   6.915
  7.189   7.342  23.992  27.714  27.750  27.781  40.662  40.706
 40.860  40.902  40.947  43.416  43.433  43.472  43.504  43.574
 45.248  45.543  45.935  49.419
 --------------------------------------------------------------
 
          Ground-State Mulliken Net Atomic Charges

     Atom                 Charge (a.u.)    Spin (a.u.)
  --------------------------------------------------------
      1 C                    -0.111920       0.005257
      2 O                     0.211093       0.812499
      3 H                     0.163038      -0.001235
      4 H                     0.340659      -0.015825
      5 H                     0.198512       0.099558
      6 H                     0.198618       0.099746
  --------------------------------------------------------
  Sum of atomic charges =     1.000000
  Sum of spin   charges =     1.000000

 -----------------------------------------------------------------
                    Cartesian Multipole Moments
 -----------------------------------------------------------------
    Charge (ESU x 10^10)
                 4.8032
    Dipole Moment (Debye)
         X      -2.0623      Y       0.0002      Z       2.5444
       Tot       3.2752
    Quadrupole Moments (Debye-Ang)
        XX      -8.4769     XY      -0.0004     YY      -9.7349
        XZ      -3.5488     YZ      -0.0012     ZZ      -5.0717
    Octapole Moments (Debye-Ang^2)
       XXX       0.0906    XXY       0.0001    XYY      -1.0052
       YYY       0.0003    XXZ      -3.7693    XYZ       0.0001
       YYZ      -7.4033    XZZ      -6.6118    YZZ      -0.0013
       ZZZ     -10.1175
    Hexadecapole Moments (Debye-Ang^3)
      XXXX     -12.6516   XXXY      -0.0004   XXYY      -4.6659
      XYYY      -0.0004   YYYY     -12.3727   XXXZ      -2.8348
      XXYZ      -0.0003   XYYZ       1.1632   YYYZ      -0.0010
      XXZZ      -8.6855   XYZZ      -0.0003   YYZZ     -13.6583
      XZZZ     -10.5150   YZZZ      -0.0039   ZZZZ     -56.4115
 -----------------------------------------------------------------
 Total job time:  48.29s(wall), 46.58s(cpu) 
 Tue Apr 30 21:13:58 2013

        *************************************************************
        *                                                           *
        *  Thank you very much for using Q-Chem.  Have a nice day.  *
        *                                                           *
        *************************************************************


0 sent ACK to 0 
now end server 0 ... 
