Process 0 of 1 is on cl173.stfx.acenet.ca - thread support 1
initial socket setup ...start
initial socket setup ...done 
now start server 0 ... 

cmd = /usr/bin/ssh clhead /usr/local/qchem/bin/get_hostid 1710532004 > /scratch/tmp/5954366.1.medium.q/qchem30383/lic.dat
                  Welcome to Q-Chem
     A Quantum Leap Into The Future Of Chemistry

 Y. Shao, L. Fusti-Molnar, Y. Jung, J. Kussmann, C. Ochsenfeld,
 S. T. Brown, A. T. B. Gilbert, L. V. Slipchenko,S. V. Levchenko,
 D. P. O'Neill, R. A. DiStasio Jr., R. C. Lochan, T. Wang,
 G. J. O. Beran, N. A. Besley, J. M. Herbert, C. Y. Lin,
 T. Van Voorhis, S. H. Chien, A. Sodt, R. P. Steele, 
 V. A. Rassolov, P. E. Maslen, P. P. Korambath, R. D. Adamson,
 B. Austin, J. Baker, E. F. C. Byrd, H. Dachsel, R. J. Doerksen,
 A. Dreuw, B. D. Dunietz, A. D. Dutoi, T. R. Furlani,
 S. R. Gwaltney, A. Heyden, S. Hirata, C.-P. Hsu, G. Kedziora,
 R. Z. Khaliullin, P. Klunzinger, A. M. Lee, M. S. Lee, W. Liang,
 I. Lotan, N. Nair, B. Peters, E. I. Proynov, P. A. Pieniazek, 
 Y. M. Rhee, J. Ritchie, E. Rosta, C. D. Sherrill, 
 A. C. Simmonett, J. E. Subotnik, H. L. Woodcock III,
 W. Zhang, A. T. Bell, A. K. Chakraborty, D. M. Chipman,
 F. J. Keil, A. Warshel, W. J. Hehre, H. F. Schaefer III,
 J. Kong, A. I. Krylov, P. M. W. Gill, M. Head-Gordon,
 Q-Chem, Version 3.1, Q-Chem, Inc., Pittsburgh, PA (2007).

 Additional authors for Version 3.1: 
 Z. Gan, Y. Zhao, N. E. Schultz, D. Truhlar, E. Epifanovsky and M. Oana.

 Additional authors for Version 3.2: 
 R. Baer, B. R. Brooks, D. Casanova, J.-D. Chai, C.-L. Cheng, 
 C. Cramer, D. Crittenden, A. Ghysels, G. Hawkins, E. G. Hohenstein, 
 C. Kelley, W. Kurlancheek, D. Liotard, E. Livshits, P. Manohar, 
 A. Marenich, D. Neuhauser, R. Olson, M. A. Rohrdanz, K. S. Thanthiriwatte, 
 A. J. W. Thom, V. Vanovschi, C. F. Williams, Q. Wu and Z.-Q. You. 


 Intel X86 Linux Version

 Q-chem begins on Wed Apr 24 15:02:34 2013  

 Parallel job on  1  processors
Processing $rem in /usr/local/qchem/config/preferences.

theFileMan(): MAXOPENFILES=974 MAX_SUB_FILE_NUM=16
Maximum size of a physical file is 2.0 GB, maximum size of a tmp-file is 32.0 GB


--------------------------------------------------------------
User input:
--------------------------------------------------------------

$molecule
-1,2
F
Cl,1,R1

R1=1.66349697

$end

$comment
negative
$end

$xc_functional
C PBE   1.00
X wPBE  1.00
$end

$rem
SYMMETRY_DECOMPOSITION	0
exchange 		general
LRC_DFT                 true
BASIS                   g3large
omega			800
mem_static              760
max_scf_cycles          200
scf_final_print         1
sym_ignore              true
$end

--------------------------------------------------------------
 Writing REM_CC_EA            2
 ----------------------------------------------------
       Standard Nuclear Orientation (Angstroms)
    I     Atom         X            Y            Z
 ----------------------------------------------------
    1      F       0.000000     0.000000     0.000000
    2      Cl      0.000000     0.000000     1.663497
 ----------------------------------------------------
 Nuclear Repulsion Energy =    48.6710313950 hartrees
 There are       14 alpha and       13 beta electrons
 Requested basis set is G3large
 There are 29 shells and 108 basis functions

Total QAlloc Memory Limit   2000 MB
Mega-Array Size       743 MB
MEM_STATIC part       760 MB

                       Distance Matrix (Angstroms)
             F (  1)
   Cl(  2)  1.663497
 
 A cutoff of  1.0D-08 yielded    404 shell pairs
 There are   5775 function pairs (  8054 Cartesian)
Evaluating contribution to one-electron hamiltonian from nuclear
 Smallest overlap matrix eigenvalue = 5.02E-03
 Multipole matrices computed through 2nd order

  Scale SEOQF with 1.000000e-01/1.000000e-01/1.000000e-01

 Standard Electronic Orientation quadrupole field applied
 Nucleus-field energy     =    -0.0000000050 hartrees
 Guess from superposition of atomic densities
 Warning:  Energy on first SCF cycle will be non-variational
 Long-range K will be added via erf
 Coulomb attenuation parameter = 0.8 bohr**(-1)
 An unrestricted Kohn-Sham SCF calculation will be
 performed using Pulay DIIS extrapolation
 Exchange:  wPBE + LR-HF      Correlation:  PBE
 Using SG-1 standard quadrature grid
 SCF converges when DIIS error is below 1.0E-05
 Requested basis set is G3large
 There are 29 shells and 108 basis functions
 A cutoff of  1.0D-08 yielded    404 shell pairs
 There are   5775 function pairs (  8054 Cartesian)
 Warning!  Inaccurate integrated density:
   Number of electrons =    27
   Numerical integral  =    25.999798557194
   Relative error      =    -3.7044497882 %
 ---------------------------------------
  Cycle       Energy         DIIS Error
 ---------------------------------------
    1    -559.8947875914      2.61E-02
    2    -559.8356783305      6.47E-03
    3    -559.8699600604      5.24E-03
    4    -559.8915215105      6.41E-04
    5    -559.8924140295      2.39E-04
    6    -559.8927213844      9.89E-05
    7    -559.8928498445      5.07E-05
    8    -559.8929094482      2.18E-05
    9    -559.8929228891      9.49E-06 Convergence criterion met
 ---------------------------------------
 One-Electron    Energy =  -879.9449408303
 Total Coulomb   Energy =   310.2522262008
 Alpha Exchange  Energy =    -5.0982443955
 Beta  Exchange  Energy =    -4.7675310450
 DFT   Exchange  Energy =   -28.0026580074
 DFT Correlation Energy =    -1.0028062016
 Nuclear Repu.   Energy =    48.6710313900
 Nuclear Attr.   Energy = -1439.5178298806
 Kinetic         Energy =   559.5728890503
 <S^2> = 0.7582
 SCF time:  CPU 22.79 s  wall 23.72 s
 Final Alpha MO Eigenvalues
            1           2           3           4           5           6
    1-100.8309429 -24.3555522  -9.3549770  -7.1532136  -7.1376565  -7.1376558
            7           8           9          10          11          12
    1  -1.1953926  -0.7858514  -0.4511184  -0.3806230  -0.3806220  -0.2005303
           13          14          15          16          17          18
    1  -0.2005278  -0.0688567   0.2701523   0.2916171   0.2916182   0.3076901
           19
    1   0.4965015
 Final Beta MO Eigenvalues
            1           2           3           4           5           6
    1-100.8269944 -24.3441884  -9.3508164  -7.1426048  -7.1348656  -7.1348651
            7           8           9          10          11          12
    1  -1.1608314  -0.7383429  -0.3664242  -0.3664233  -0.3560706  -0.1846848
           13          14          15          16          17          18
    1  -0.1846762   0.2643602   0.2778811   0.2931942   0.2931959   0.3925509
 Analysis of SCF Wavefunction
 
 --------------------------------------------------------------
                    Orbital Energies (a.u.)
 --------------------------------------------------------------
 
 Alpha MOs
 -- Occupied --
******* -24.356  -9.355  -7.153  -7.138  -7.138  -1.195  -0.786
 -0.451  -0.381  -0.381  -0.201  -0.201  -0.069
 -- Virtual --
  0.270   0.292   0.292   0.308   0.497   0.538   0.538   0.638
  0.638   0.645   0.703   0.703   0.785   0.830   0.838   0.838
  1.441   1.507   1.507   1.512   1.512   1.545   1.545   1.545
  1.545   1.551   1.660   1.660   1.731   1.791   1.791   2.015
  2.336   2.564   2.564   2.573   2.573   2.698   2.963   2.963
  3.455   4.856   4.857   4.870   4.870   4.897   4.897   4.963
  5.540   5.541   5.551   5.551   5.800   6.697   6.697   6.851
  7.176   7.176   7.177   7.177   7.234   7.234   7.410   9.622
  9.622   9.819   9.819  10.045  10.345  21.034  21.034  21.241
 27.571  27.647  27.663  27.663  27.773  37.300  37.301  37.301
 37.301  37.306  37.306  37.314  50.633  50.677  50.753  50.753
 50.856  56.125  56.125  56.200  67.145 216.025
 
 Beta MOs
 -- Occupied --
******* -24.344  -9.351  -7.143  -7.135  -7.135  -1.161  -0.738
 -0.366  -0.366  -0.356  -0.185  -0.185
 -- Virtual --
  0.264   0.278   0.293   0.293   0.393   0.505   0.545   0.545
  0.641   0.641   0.652   0.731   0.731   0.831   0.842   0.842
  0.856   1.479   1.516   1.516   1.530   1.530   1.548   1.548
  1.554   1.554   1.576   1.681   1.681   1.748   1.800   1.800
  2.038   2.352   2.567   2.567   2.581   2.581   2.732   2.981
  2.981   3.480   4.879   4.879   4.879   4.879   4.926   4.926
  4.994   5.543   5.545   5.561   5.561   5.814   6.710   6.710
  6.889   7.181   7.181   7.192   7.192   7.255   7.255   7.436
  9.635   9.635   9.857   9.857  10.065  10.379  21.037  21.037
 21.255  27.574  27.650  27.671  27.671  27.784  37.303  37.303
 37.303  37.303  37.308  37.308  37.318  50.638  50.682  50.781
 50.781  50.892  56.132  56.132  56.227  67.157 216.029
 --------------------------------------------------------------
 
          Ground-State Mulliken Net Atomic Charges

     Atom                 Charge (a.u.)    Spin (a.u.)
  --------------------------------------------------------
      1 F                    -0.367730       0.186409
      2 Cl                   -0.632270       0.813591
  --------------------------------------------------------
  Sum of atomic charges =    -1.000000
  Sum of spin   charges =     1.000000

 -----------------------------------------------------------------
                    Cartesian Multipole Moments
 -----------------------------------------------------------------
    Charge (ESU x 10^10)
                -4.8032
    Dipole Moment (Debye)
         X       0.0002      Y      -0.0003      Z      -5.4548
       Tot       5.4548
    Quadrupole Moments (Debye-Ang)
        XX     -20.7332     XY      -0.0001     YY     -20.7331
        XZ       0.0008     YZ      -0.0026     ZZ     -32.4934
    Octapole Moments (Debye-Ang^2)
       XXX       0.0002    XXY       0.0002    XYY       0.0001
       YYY       0.0006    XXZ     -26.0301    XYZ      -0.0003
       YYZ     -26.0300    XZZ       0.0037    YZZ      -0.0118
       ZZZ    -100.4386
    Hexadecapole Moments (Debye-Ang^3)
      XXXX     -25.7271   XXXY      -0.0004   XXYY      -8.5757
      XYYY      -0.0004   YYYY     -25.7269   XXXZ       0.0018
      XXYZ      -0.0018   XYYZ       0.0006   YYYZ      -0.0053
      XXZZ     -54.0350   XYZZ      -0.0005   YYZZ     -54.0348
      XZZZ       0.0124   YZZZ      -0.0405   ZZZZ    -338.4209
 -----------------------------------------------------------------
 Total job time:  23.86s(wall), 22.91s(cpu) 
 Wed Apr 24 15:02:58 2013

        *************************************************************
        *                                                           *
        *  Thank you very much for using Q-Chem.  Have a nice day.  *
        *                                                           *
        *************************************************************


0 sent ACK to 0 
now end server 0 ... 
 
**********************************************************************
Job 2 of 3 
**********************************************************************
 
Process 0 of 1 is on cl173.stfx.acenet.ca - thread support 1
initial socket setup ...start
initial socket setup ...done 
now start server 0 ... 

cmd = /usr/bin/ssh clhead /usr/local/qchem/bin/get_hostid 1024520276 > /scratch/tmp/5954366.1.medium.q/qchem30383/lic.dat
                  Welcome to Q-Chem
     A Quantum Leap Into The Future Of Chemistry

 Y. Shao, L. Fusti-Molnar, Y. Jung, J. Kussmann, C. Ochsenfeld,
 S. T. Brown, A. T. B. Gilbert, L. V. Slipchenko,S. V. Levchenko,
 D. P. O'Neill, R. A. DiStasio Jr., R. C. Lochan, T. Wang,
 G. J. O. Beran, N. A. Besley, J. M. Herbert, C. Y. Lin,
 T. Van Voorhis, S. H. Chien, A. Sodt, R. P. Steele, 
 V. A. Rassolov, P. E. Maslen, P. P. Korambath, R. D. Adamson,
 B. Austin, J. Baker, E. F. C. Byrd, H. Dachsel, R. J. Doerksen,
 A. Dreuw, B. D. Dunietz, A. D. Dutoi, T. R. Furlani,
 S. R. Gwaltney, A. Heyden, S. Hirata, C.-P. Hsu, G. Kedziora,
 R. Z. Khaliullin, P. Klunzinger, A. M. Lee, M. S. Lee, W. Liang,
 I. Lotan, N. Nair, B. Peters, E. I. Proynov, P. A. Pieniazek, 
 Y. M. Rhee, J. Ritchie, E. Rosta, C. D. Sherrill, 
 A. C. Simmonett, J. E. Subotnik, H. L. Woodcock III,
 W. Zhang, A. T. Bell, A. K. Chakraborty, D. M. Chipman,
 F. J. Keil, A. Warshel, W. J. Hehre, H. F. Schaefer III,
 J. Kong, A. I. Krylov, P. M. W. Gill, M. Head-Gordon,
 Q-Chem, Version 3.1, Q-Chem, Inc., Pittsburgh, PA (2007).

 Additional authors for Version 3.1: 
 Z. Gan, Y. Zhao, N. E. Schultz, D. Truhlar, E. Epifanovsky and M. Oana.

 Additional authors for Version 3.2: 
 R. Baer, B. R. Brooks, D. Casanova, J.-D. Chai, C.-L. Cheng, 
 C. Cramer, D. Crittenden, A. Ghysels, G. Hawkins, E. G. Hohenstein, 
 C. Kelley, W. Kurlancheek, D. Liotard, E. Livshits, P. Manohar, 
 A. Marenich, D. Neuhauser, R. Olson, M. A. Rohrdanz, K. S. Thanthiriwatte, 
 A. J. W. Thom, V. Vanovschi, C. F. Williams, Q. Wu and Z.-Q. You. 


 Intel X86 Linux Version

 Q-chem begins on Wed Apr 24 15:03:00 2013  

 Parallel job on  1  processors
Processing $rem in /usr/local/qchem/config/preferences.

theFileMan(): MAXOPENFILES=974 MAX_SUB_FILE_NUM=16
Maximum size of a physical file is 2.0 GB, maximum size of a tmp-file is 32.0 GB


--------------------------------------------------------------
User input:
--------------------------------------------------------------

$molecule
0,1
F
Cl,1,R1

R1=1.66349697

$end

$comment
neutral
$end

$xc_functional
C PBE   1.00
X wPBE  1.00
$end


$rem
SYMMETRY_DECOMPOSITION	0
LRC_DFT                 true
exchange 		general
BASIS                   g3large
omega			800
mem_static              760
max_scf_cycles          200
scf_final_print         1
sym_ignore              true
$end

--------------------------------------------------------------
 Writing REM_CC_EA            2
 ----------------------------------------------------
       Standard Nuclear Orientation (Angstroms)
    I     Atom         X            Y            Z
 ----------------------------------------------------
    1      F       0.000000     0.000000     0.000000
    2      Cl      0.000000     0.000000     1.663497
 ----------------------------------------------------
 Nuclear Repulsion Energy =    48.6710313950 hartrees
 There are       13 alpha and       13 beta electrons
 Requested basis set is G3large
 There are 29 shells and 108 basis functions

Total QAlloc Memory Limit   2000 MB
Mega-Array Size       743 MB
MEM_STATIC part       760 MB

                       Distance Matrix (Angstroms)
             F (  1)
   Cl(  2)  1.663497
 
 A cutoff of  1.0D-08 yielded    404 shell pairs
 There are   5775 function pairs (  8054 Cartesian)
Evaluating contribution to one-electron hamiltonian from nuclear
 Smallest overlap matrix eigenvalue = 5.02E-03
 Multipole matrices computed through 2nd order

  Scale SEOQF with 1.000000e-01/1.000000e-01/1.000000e-01

 Standard Electronic Orientation quadrupole field applied
 Nucleus-field energy     =    -0.0000000050 hartrees
 Guess from superposition of atomic densities
 Warning:  Energy on first SCF cycle will be non-variational
 Long-range K will be added via erf
 Coulomb attenuation parameter = 0.8 bohr**(-1)
 A restricted Kohn-Sham SCF calculation will be
 performed using Pulay DIIS extrapolation
 Exchange:  wPBE + LR-HF      Correlation:  PBE
 Using SG-1 standard quadrature grid
 SCF converges when DIIS error is below 1.0E-05
 Requested basis set is G3large
 There are 29 shells and 108 basis functions
 A cutoff of  1.0D-08 yielded    404 shell pairs
 There are   5775 function pairs (  8054 Cartesian)
 ---------------------------------------
  Cycle       Energy         DIIS Error
 ---------------------------------------
    1    -559.8947875914      2.61E-02
    2    -559.8271649676      4.98E-03
    3    -559.8483237541      2.59E-03
    4    -559.8534431116      8.38E-04
    5    -559.8543493104      2.89E-04
    6    -559.8547262084      1.38E-04
    7    -559.8548860924      6.30E-05
    8    -559.8549338739      1.85E-05
 Info = 9046

 Q-Chem warning in module diagon.C, line 98:

 Call to dsyevd failed in Diagonalize

    9    -559.8549372171      5.39E-06 Convergence criterion met
 ---------------------------------------
 One-Electron    Energy =  -871.0550524126
 Total Coulomb   Energy =   301.0368848702
 Alpha Exchange  Energy =    -4.8160996973
 Beta  Exchange  Energy =    -4.8160996973
 DFT   Exchange  Energy =   -27.9043824023
 DFT Correlation Energy =    -0.9712192677
 Nuclear Repu.   Energy =    48.6710313900
 Nuclear Attr.   Energy = -1429.9582583947
 Kinetic         Energy =   558.9032059822
 SCF time:  CPU 20.12 s  wall 20.67 s
 Final Alpha MO Eigenvalues
            1           2           3           4           5           6
    1-101.1963125 -24.7196915  -9.7164331  -7.5187749  -7.4965490  -7.4965484
            7           8           9          10          11          12
    1  -1.5158935  -1.0900849  -0.7115442  -0.7012658  -0.7012632  -0.5166519
           13          14          15          16          17          18
    1  -0.5166484  -0.0105996   0.0887836   0.1209536   0.1209542   0.1405375
 Analysis of SCF Wavefunction
 
 --------------------------------------------------------------
                    Orbital Energies (a.u.)
 --------------------------------------------------------------
 
 Alpha MOs
 -- Occupied --
******* -24.720  -9.716  -7.519  -7.497  -7.497  -1.516  -1.090
 -0.712  -0.701  -0.701  -0.517  -0.517
 -- Virtual --
 -0.011   0.089   0.121   0.121   0.141   0.299   0.328   0.328
  0.367   0.367   0.426   0.443   0.443   0.542   0.588   0.588
  0.588   1.152   1.205   1.205   1.214   1.215   1.232   1.232
  1.253   1.262   1.262   1.357   1.357   1.470   1.515   1.515
  1.723   2.045   2.259   2.259   2.262   2.262   2.379   2.656
  2.656   3.140   4.522   4.522   4.541   4.541   4.559   4.559
  4.624   5.198   5.199   5.199   5.200   5.455   6.369   6.369
  6.524   6.853   6.853   6.858   6.858   6.906   6.906   7.075
  9.291   9.291   9.490   9.490   9.704  10.009  20.678  20.678
 20.880  27.215  27.290  27.301  27.301  27.410  36.936  36.936
 36.938  36.939  36.947  36.949  36.949  50.275  50.319  50.398
 50.398  50.504  55.765  55.765  55.841  66.783 215.661
 --------------------------------------------------------------
 
          Ground-State Mulliken Net Atomic Charges

     Atom                 Charge (a.u.)
  ----------------------------------------
      1 F                    -0.155914
      2 Cl                    0.155914
  ----------------------------------------
  Sum of atomic charges =     0.000000

 -----------------------------------------------------------------
                    Cartesian Multipole Moments
 -----------------------------------------------------------------
    Charge (ESU x 10^10)
                 0.0000
    Dipole Moment (Debye)
         X       0.0000      Y       0.0000      Z       1.2585
       Tot       1.2585
    Quadrupole Moments (Debye-Ang)
        XX     -17.2226     XY       0.0000     YY     -17.2226
        XZ      -0.0001     YZ       0.0001     ZZ     -13.3665
    Octapole Moments (Debye-Ang^2)
       XXX       0.0001    XXY       0.0000    XYY       0.0000
       YYY       0.0000    XXZ     -20.7836    XYZ       0.0001
       YYZ     -20.7836    XZZ      -0.0002    YZZ       0.0001
       ZZZ     -49.0924
    Hexadecapole Moments (Debye-Ang^3)
      XXXX     -16.2247   XXXY       0.0000   XXYY      -5.4084
      XYYY       0.0000   YYYY     -16.2247   XXXZ       0.0000
      XXYZ       0.0000   XYYZ       0.0000   YYYZ       0.0000
      XXZZ     -39.9587   XYZZ       0.0001   YYZZ     -39.9587
      XZZZ      -0.0007   YZZZ       0.0003   ZZZZ    -177.8558
 -----------------------------------------------------------------
 Total job time:  20.79s(wall), 20.23s(cpu) 
 Wed Apr 24 15:03:21 2013

        *************************************************************
        *                                                           *
        *  Thank you very much for using Q-Chem.  Have a nice day.  *
        *                                                           *
        *************************************************************


0 sent ACK to 0 
now end server 0 ... 
 
**********************************************************************
Job 3 of 3 
**********************************************************************
 
Process 0 of 1 is on cl173.stfx.acenet.ca - thread support 1
initial socket setup ...start
initial socket setup ...done 
now start server 0 ... 

cmd = /usr/bin/ssh clhead /usr/local/qchem/bin/get_hostid 1536312412 > /scratch/tmp/5954366.1.medium.q/qchem30383/lic.dat
                  Welcome to Q-Chem
     A Quantum Leap Into The Future Of Chemistry

 Y. Shao, L. Fusti-Molnar, Y. Jung, J. Kussmann, C. Ochsenfeld,
 S. T. Brown, A. T. B. Gilbert, L. V. Slipchenko,S. V. Levchenko,
 D. P. O'Neill, R. A. DiStasio Jr., R. C. Lochan, T. Wang,
 G. J. O. Beran, N. A. Besley, J. M. Herbert, C. Y. Lin,
 T. Van Voorhis, S. H. Chien, A. Sodt, R. P. Steele, 
 V. A. Rassolov, P. E. Maslen, P. P. Korambath, R. D. Adamson,
 B. Austin, J. Baker, E. F. C. Byrd, H. Dachsel, R. J. Doerksen,
 A. Dreuw, B. D. Dunietz, A. D. Dutoi, T. R. Furlani,
 S. R. Gwaltney, A. Heyden, S. Hirata, C.-P. Hsu, G. Kedziora,
 R. Z. Khaliullin, P. Klunzinger, A. M. Lee, M. S. Lee, W. Liang,
 I. Lotan, N. Nair, B. Peters, E. I. Proynov, P. A. Pieniazek, 
 Y. M. Rhee, J. Ritchie, E. Rosta, C. D. Sherrill, 
 A. C. Simmonett, J. E. Subotnik, H. L. Woodcock III,
 W. Zhang, A. T. Bell, A. K. Chakraborty, D. M. Chipman,
 F. J. Keil, A. Warshel, W. J. Hehre, H. F. Schaefer III,
 J. Kong, A. I. Krylov, P. M. W. Gill, M. Head-Gordon,
 Q-Chem, Version 3.1, Q-Chem, Inc., Pittsburgh, PA (2007).

 Additional authors for Version 3.1: 
 Z. Gan, Y. Zhao, N. E. Schultz, D. Truhlar, E. Epifanovsky and M. Oana.

 Additional authors for Version 3.2: 
 R. Baer, B. R. Brooks, D. Casanova, J.-D. Chai, C.-L. Cheng, 
 C. Cramer, D. Crittenden, A. Ghysels, G. Hawkins, E. G. Hohenstein, 
 C. Kelley, W. Kurlancheek, D. Liotard, E. Livshits, P. Manohar, 
 A. Marenich, D. Neuhauser, R. Olson, M. A. Rohrdanz, K. S. Thanthiriwatte, 
 A. J. W. Thom, V. Vanovschi, C. F. Williams, Q. Wu and Z.-Q. You. 


 Intel X86 Linux Version

 Q-chem begins on Wed Apr 24 15:03:24 2013  

 Parallel job on  1  processors
Processing $rem in /usr/local/qchem/config/preferences.

theFileMan(): MAXOPENFILES=974 MAX_SUB_FILE_NUM=16
Maximum size of a physical file is 2.0 GB, maximum size of a tmp-file is 32.0 GB


--------------------------------------------------------------
User input:
--------------------------------------------------------------

$molecule
1,2
F
Cl,1,R1

R1=1.66349697

$end

$comment
positive
$end

$xc_functional
C PBE   1.00
X wPBE  1.00
$end

$rem
SYMMETRY_DECOMPOSITION	0
LRC_DFT                 true
exchange 		general
BASIS                   g3large
omega			800
mem_static              760
max_scf_cycles          200
scf_final_print         1
sym_ignore              true
$end

--------------------------------------------------------------
 Writing REM_CC_EA            2
 ----------------------------------------------------
       Standard Nuclear Orientation (Angstroms)
    I     Atom         X            Y            Z
 ----------------------------------------------------
    1      F       0.000000     0.000000     0.000000
    2      Cl      0.000000     0.000000     1.663497
 ----------------------------------------------------
 Nuclear Repulsion Energy =    48.6710313950 hartrees
 There are       13 alpha and       12 beta electrons
 Requested basis set is G3large
 There are 29 shells and 108 basis functions

Total QAlloc Memory Limit   2000 MB
Mega-Array Size       743 MB
MEM_STATIC part       760 MB

                       Distance Matrix (Angstroms)
             F (  1)
   Cl(  2)  1.663497
 
 A cutoff of  1.0D-08 yielded    404 shell pairs
 There are   5775 function pairs (  8054 Cartesian)
Evaluating contribution to one-electron hamiltonian from nuclear
 Smallest overlap matrix eigenvalue = 5.02E-03
 Multipole matrices computed through 2nd order

  Scale SEOQF with 1.000000e-01/1.000000e-01/1.000000e-01

 Standard Electronic Orientation quadrupole field applied
 Nucleus-field energy     =    -0.0000000050 hartrees
 Guess from superposition of atomic densities
 Warning:  Energy on first SCF cycle will be non-variational
 Long-range K will be added via erf
 Coulomb attenuation parameter = 0.8 bohr**(-1)
 An unrestricted Kohn-Sham SCF calculation will be
 performed using Pulay DIIS extrapolation
 Exchange:  wPBE + LR-HF      Correlation:  PBE
 Using SG-1 standard quadrature grid
 SCF converges when DIIS error is below 1.0E-05
 Requested basis set is G3large
 There are 29 shells and 108 basis functions
 A cutoff of  1.0D-08 yielded    404 shell pairs
 There are   5775 function pairs (  8054 Cartesian)
 Warning!  Inaccurate integrated density:
   Number of electrons =    25
   Numerical integral  =    25.999798557194
   Relative error      =     3.9991942288 %
 ---------------------------------------
  Cycle       Energy         DIIS Error
 ---------------------------------------
    1    -559.8947875914      2.61E-02
    2    -559.2616882239      8.02E-03
    3    -559.3437794950      4.95E-03
    4    -559.3618245700      1.85E-03
    5    -559.3648747021      3.46E-04
    6    -559.3653509878      1.26E-04
    7    -559.3655168500      6.14E-05
    8    -559.3655940400      2.16E-05
    9    -559.3656078718      5.74E-06 Convergence criterion met
 ---------------------------------------
 One-Electron    Energy =  -860.8829539621
 Total Coulomb   Energy =   290.9419677657
 Alpha Exchange  Energy =    -4.8533464990
 Beta  Exchange  Energy =    -4.5099461740
 DFT   Exchange  Energy =   -27.8031354999
 DFT Correlation Energy =    -0.9292248925
 Nuclear Repu.   Energy =    48.6710313900
 Nuclear Attr.   Energy = -1419.1744227266
 Kinetic         Energy =   558.2914687645
 <S^2> = 0.7585
 SCF time:  CPU 22.95 s  wall 23.93 s
 Final Alpha MO Eigenvalues
            1           2           3           4           5           6
    1-101.6501729 -25.0826856 -10.1607059  -7.9598614  -7.9569100  -7.9347936
            7           8           9          10          11          12
    1  -1.8646175  -1.5022130  -1.0724511  -1.0596831  -1.0420704  -0.9412182
           13          14          15          16          17          18
    1  -0.8910598  -0.3607982  -0.1167254  -0.0696032  -0.0621053  -0.0525296
 Final Beta MO Eigenvalues
            1           2           3           4           5           6
    1-101.6437117 -25.0793645 -10.1543057  -7.9532163  -7.9417607  -7.9301819
            7           8           9          10          11          12
    1  -1.8521853  -1.4222170  -1.0501816  -1.0359431  -0.9916226  -0.8770622
           13          14          15          16          17
    1  -0.4597743  -0.3428822  -0.1140810  -0.0614631  -0.0610778
 Analysis of SCF Wavefunction
 
 --------------------------------------------------------------
                    Orbital Energies (a.u.)
 --------------------------------------------------------------
 
 Alpha MOs
 -- Occupied --
******* -25.083 -10.161  -7.960  -7.957  -7.935  -1.865  -1.502
 -1.072  -1.060  -1.042  -0.941  -0.891
 -- Virtual --
 -0.361  -0.117  -0.070  -0.062  -0.053   0.032   0.032   0.050
  0.072   0.084   0.163   0.174   0.195   0.247   0.298   0.315
  0.320   0.779   0.833   0.836   0.845   0.865   0.879   0.880
  0.917   0.917   0.929   0.994   1.022   1.194   1.227   1.236
  1.392   1.740   1.858   1.901   1.942   1.942   2.015   2.320
  2.334   2.796   4.090   4.090   4.093   4.095   4.129   4.170
  4.224   4.760   4.760   4.764   4.794   5.059   6.025   6.036
  6.180   6.519   6.519   6.526   6.526   6.564   6.573   6.727
  8.943   8.943   9.136   9.147   9.292   9.642  20.216  20.243
 20.446  26.762  26.837  26.849  26.868  26.971  36.489  36.491
 36.494  36.495  36.500  36.510  36.514  49.912  49.956  50.032
 50.040  50.142  55.399  55.407  55.480  66.422 215.209
 
 Beta MOs
 -- Occupied --
******* -25.079 -10.154  -7.953  -7.942  -7.930  -1.852  -1.422
 -1.050  -1.036  -0.992  -0.877
 -- Virtual --
 -0.460  -0.343  -0.114  -0.061  -0.061  -0.052   0.074   0.076
  0.077   0.086   0.088   0.175   0.180   0.197   0.259   0.320
  0.323   0.332   0.811   0.869   0.870   0.875   0.878   0.894
  0.895   0.937   0.941   0.941   1.021   1.024   1.198   1.237
  1.237   1.402   1.744   1.910   1.914   1.950   1.950   2.024
  2.332   2.335   2.801   4.131   4.134   4.148   4.149   4.170
  4.174   4.241   4.778   4.780   4.782   4.796   5.066   6.039
  6.040   6.182   6.523   6.523   6.534   6.534   6.570   6.573
  6.731   8.957   8.957   9.148   9.149   9.303   9.646  20.240
 20.250  20.450  26.778  26.853  26.864  26.871  26.978  36.494
 36.496  36.499  36.499  36.505  36.511  36.515  49.923  49.967
 50.040  50.042  50.145  55.409  55.409  55.480  66.425 215.217
 --------------------------------------------------------------
 
          Ground-State Mulliken Net Atomic Charges

     Atom                 Charge (a.u.)    Spin (a.u.)
  --------------------------------------------------------
      1 F                     0.103978       0.073960
      2 Cl                    0.896022       0.926040
  --------------------------------------------------------
  Sum of atomic charges =     1.000000
  Sum of spin   charges =     1.000000

 -----------------------------------------------------------------
                    Cartesian Multipole Moments
 -----------------------------------------------------------------
    Charge (ESU x 10^10)
                 4.8032
    Dipole Moment (Debye)
         X       0.0003      Y      -0.0003      Z       7.7708
       Tot       7.7708
    Quadrupole Moments (Debye-Ang)
        XX     -14.0914     XY      -0.7837     YY     -14.1056
        XZ       0.0019     YZ      -0.0019     ZZ       0.5066
    Octapole Moments (Debye-Ang^2)
       XXX       0.0003    XXY      -0.0001    XYY       0.0001
       YYY      -0.0002    XXZ     -15.8960    XYZ      -1.3366
       YYZ     -15.9203    XZZ       0.0056    YZZ      -0.0055
       ZZZ     -20.5518
    Hexadecapole Moments (Debye-Ang^3)
      XXXX     -10.7548   XXXY      -0.5778   XXYY      -3.5895
      XYYY      -0.5778   YYYY     -10.7758   XXXZ       0.0014
      XXYZ      -0.0005   XYYZ       0.0005   YYYZ      -0.0014
      XXZZ     -29.8219   XYZZ      -2.5376   YYZZ     -29.8679
      XZZZ       0.0149   YZZZ      -0.0148   ZZZZ    -112.0229
 -----------------------------------------------------------------
 Total job time:  24.06s(wall), 23.07s(cpu) 
 Wed Apr 24 15:03:48 2013

        *************************************************************
        *                                                           *
        *  Thank you very much for using Q-Chem.  Have a nice day.  *
        *                                                           *
        *************************************************************


0 sent ACK to 0 
now end server 0 ... 
