Process 0 of 1 is on cl066.stfx.acenet.ca - thread support 1
initial socket setup ...start
initial socket setup ...done 
now start server 0 ... 

cmd = /usr/bin/ssh clhead /usr/local/qchem/bin/get_hostid 2123981529 > /scratch/tmp/5956695.1.short.q/qchem6576/lic.dat
                  Welcome to Q-Chem
     A Quantum Leap Into The Future Of Chemistry

 Y. Shao, L. Fusti-Molnar, Y. Jung, J. Kussmann, C. Ochsenfeld,
 S. T. Brown, A. T. B. Gilbert, L. V. Slipchenko,S. V. Levchenko,
 D. P. O'Neill, R. A. DiStasio Jr., R. C. Lochan, T. Wang,
 G. J. O. Beran, N. A. Besley, J. M. Herbert, C. Y. Lin,
 T. Van Voorhis, S. H. Chien, A. Sodt, R. P. Steele, 
 V. A. Rassolov, P. E. Maslen, P. P. Korambath, R. D. Adamson,
 B. Austin, J. Baker, E. F. C. Byrd, H. Dachsel, R. J. Doerksen,
 A. Dreuw, B. D. Dunietz, A. D. Dutoi, T. R. Furlani,
 S. R. Gwaltney, A. Heyden, S. Hirata, C.-P. Hsu, G. Kedziora,
 R. Z. Khaliullin, P. Klunzinger, A. M. Lee, M. S. Lee, W. Liang,
 I. Lotan, N. Nair, B. Peters, E. I. Proynov, P. A. Pieniazek, 
 Y. M. Rhee, J. Ritchie, E. Rosta, C. D. Sherrill, 
 A. C. Simmonett, J. E. Subotnik, H. L. Woodcock III,
 W. Zhang, A. T. Bell, A. K. Chakraborty, D. M. Chipman,
 F. J. Keil, A. Warshel, W. J. Hehre, H. F. Schaefer III,
 J. Kong, A. I. Krylov, P. M. W. Gill, M. Head-Gordon,
 Q-Chem, Version 3.1, Q-Chem, Inc., Pittsburgh, PA (2007).

 Additional authors for Version 3.1: 
 Z. Gan, Y. Zhao, N. E. Schultz, D. Truhlar, E. Epifanovsky and M. Oana.

 Additional authors for Version 3.2: 
 R. Baer, B. R. Brooks, D. Casanova, J.-D. Chai, C.-L. Cheng, 
 C. Cramer, D. Crittenden, A. Ghysels, G. Hawkins, E. G. Hohenstein, 
 C. Kelley, W. Kurlancheek, D. Liotard, E. Livshits, P. Manohar, 
 A. Marenich, D. Neuhauser, R. Olson, M. A. Rohrdanz, K. S. Thanthiriwatte, 
 A. J. W. Thom, V. Vanovschi, C. F. Williams, Q. Wu and Z.-Q. You. 


 Intel X86 Linux Version

 Q-chem begins on Wed May  1 12:15:05 2013  

 Parallel job on  1  processors
Processing $rem in /usr/local/qchem/config/preferences.

theFileMan(): MAXOPENFILES=974 MAX_SUB_FILE_NUM=16
Maximum size of a physical file is 2.0 GB, maximum size of a tmp-file is 32.0 GB


--------------------------------------------------------------
User input:
--------------------------------------------------------------

$molecule
0,2
C
H,1,RCH

RCH=1.13309913

$end

$comment
neutral
$end

$xc_functional
C PBE   1.00
X wPBE  1.00
$end


$rem
SYMMETRY_DECOMPOSITION	0
LRC_DFT                 true
exchange 		general
BASIS                   g3large
omega			340 
JOBTYPE                 opt
mem_static              760
max_scf_cycles          200
scf_final_print         1
sym_ignore              true
$end


--------------------------------------------------------------
 Writing REM_CC_EA            2
 ----------------------------------------------------
       Standard Nuclear Orientation (Angstroms)
    I     Atom         X            Y            Z
 ----------------------------------------------------
    1      C       0.000000     0.000000     0.000000
    2      H       0.000000     0.000000     1.133099
 ----------------------------------------------------
 Nuclear Repulsion Energy =     2.8021054652 hartrees
 There are        4 alpha and        3 beta electrons
 Requested basis set is G3large
 There are 16 shells and 52 basis functions

Total QAlloc Memory Limit   2000 MB
Mega-Array Size       743 MB
MEM_STATIC part       760 MB
 A cutoff of  1.0D-11 yielded    136 shell pairs
 There are   1462 function pairs (  1834 Cartesian)
Evaluating contribution to one-electron hamiltonian from nuclear
 Smallest overlap matrix eigenvalue = 4.17E-03
 Multipole matrices computed through 2nd order

  Scale SEOQF with 1.000000e-01/1.000000e-01/1.000000e-01

 Standard Electronic Orientation quadrupole field applied
 Nucleus-field energy     =    -0.0000000001 hartrees
 Guess from superposition of atomic densities
 Warning:  Energy on first SCF cycle will be non-variational
 Long-range K will be added via erf
 Coulomb attenuation parameter = 0.34 bohr**(-1)
 An unrestricted Kohn-Sham SCF calculation will be
 performed using Pulay DIIS extrapolation
 Exchange:  wPBE + LR-HF      Correlation:  PBE
 Using SG-1 standard quadrature grid
 SCF converges when DIIS error is below 1.0E-08
 Requested basis set is G3large
 There are 16 shells and 52 basis functions
 A cutoff of  1.0D-11 yielded    136 shell pairs
 There are   1462 function pairs (  1834 Cartesian)
 ---------------------------------------
  Cycle       Energy         DIIS Error
 ---------------------------------------
    1     -38.2619472057      2.38E-02
    2     -38.4427072439      2.99E-03
    3     -38.4484164472      8.38E-04
    4     -38.4487532744      1.80E-04
    5     -38.4488192681      7.17E-05
    6     -38.4488285623      2.43E-05
    7     -38.4488306814      9.86E-06
    8     -38.4488310912      3.28E-06
    9     -38.4488311404      6.23E-07
   10     -38.4488311429      3.52E-07
   11     -38.4488311442      1.90E-07
   12     -38.4488311451      6.69E-08
   13     -38.4488311457      3.66E-08
   14     -38.4488311462      3.53E-08
   15     -38.4488311460      3.52E-08
   16     -38.4488311463      3.52E-08
   17     -38.4488311465      3.56E-08
   18     -38.4488311469      3.69E-08
   19     -38.4488311424      2.36E-08
   20     -38.4488311409      1.59E-08
   21     -38.4488311402      3.97E-09 Convergence criterion met
 ---------------------------------------
 One-Electron    Energy =   -56.6000197134
 Total Coulomb   Energy =    20.9300711063
 Alpha Exchange  Energy =    -0.6856326909
 Beta  Exchange  Energy =    -0.5168548092
 DFT   Exchange  Energy =    -4.1940302308
 DFT Correlation Energy =    -0.1844702672
 Nuclear Repu.   Energy =     2.8021054651
 Nuclear Attr.   Energy =   -94.9206760447
 Kinetic         Energy =    38.3206563312
 <S^2> = 0.7534
 SCF time:  CPU 11.62 s  wall 14.55 s
 Final Alpha MO Eigenvalues
            1           2           3           4           5           6
    1 -10.1820962  -0.7675596  -0.4303623  -0.3698552  -0.0580097   0.0428712
            7           8           9
    1   0.1203298   0.1240397   0.1242880
 Final Beta MO Eigenvalues
            1           2           3           4           5           6
    1 -10.1680286  -0.7212096  -0.4096973  -0.0405493   0.0071292   0.0446274
            7           8
    1   0.1260897   0.1279035
 Analysis of SCF Wavefunction
 
 --------------------------------------------------------------
                    Orbital Energies (a.u.)
 --------------------------------------------------------------
 
 Alpha MOs
 -- Occupied --
-10.182  -0.768  -0.430  -0.370
 -- Virtual --
 -0.058   0.043   0.120   0.124   0.124   0.169   0.217   0.524
  0.613   0.614   0.624   0.651   0.660   0.742   0.748   0.789
  1.082   1.121   1.122   1.483   2.410   2.667   2.683   2.858
  2.859   2.861   2.864   2.925   2.927   3.079   3.172   3.261
  3.274   3.379   3.389   3.732   4.116   4.117   5.180  23.378
 27.052  27.057  27.552  40.702  40.794  40.974  40.993  40.995
 
 Beta MOs
 -- Occupied --
-10.168  -0.721  -0.410
 -- Virtual --
 -0.041   0.007   0.045   0.126   0.128   0.145   0.174   0.224
  0.534   0.622   0.635   0.663   0.672   0.687   0.794   0.796
  0.819   1.097   1.126   1.146   1.492   2.421   2.697   2.750
  2.903   2.905   2.920   2.927   2.945   2.977   3.100   3.192
  3.350   3.353   3.398   3.445   3.747   4.114   4.131   5.188
 23.393  27.066  27.093  27.560  40.735  40.807  41.000  41.005
 41.023
 --------------------------------------------------------------
 
          Ground-State Mulliken Net Atomic Charges

     Atom                 Charge (a.u.)    Spin (a.u.)
  --------------------------------------------------------
      1 C                    -0.065634       1.022709
      2 H                     0.065634      -0.022709
  --------------------------------------------------------
  Sum of atomic charges =     0.000000
  Sum of spin   charges =     1.000000

 -----------------------------------------------------------------
                    Cartesian Multipole Moments
 -----------------------------------------------------------------
    Charge (ESU x 10^10)
                 0.0000
    Dipole Moment (Debye)
         X       0.0000      Y       0.0000      Z       1.5478
       Tot       1.5478
    Quadrupole Moments (Debye-Ang)
        XX      -6.8097     XY      -1.0339     YY      -6.8089
        XZ       0.0000     YZ       0.0000     ZZ      -7.2343
    Octapole Moments (Debye-Ang^2)
       XXX       0.0000    XXY       0.0000    XYY       0.0000
       YYY       0.0000    XXZ      -0.3861    XYZ      -0.0554
       YYZ      -0.3861    XZZ       0.0000    YZZ       0.0000
       ZZZ      -0.5181
    Hexadecapole Moments (Debye-Ang^3)
      XXXX      -8.3301   XXXY      -1.1981   XXYY      -2.7771
      XYYY      -1.1981   YYYY      -8.3283   XXXZ       0.0000
      XXYZ       0.0000   XYYZ       0.0000   YYYZ       0.0000
      XXZZ      -4.2224   XYZZ      -0.4104   YYZZ      -4.2221
      XZZZ       0.0000   YZZZ       0.0000   ZZZZ     -15.3654
 -----------------------------------------------------------------
 Calculating analytic gradient of the SCF energy
 Gradient of AOints
            1           2
    1  -0.0000002   0.0000002
    2  -0.0000004   0.0000004
    3   1.4906814  -1.4906814
 Gradient of XC Energy
            1           2
    1   0.0000000  -0.0000000
    2   0.0000000  -0.0000000
    3  -0.1501842   0.1501842
 Gradient of SCF Energy
            1           2
    1   0.0000000  -0.0000000
    2   0.0000000  -0.0000000
    3  -0.0047440   0.0047440
 Max gradient component =       4.744E-03
 RMS gradient           =       2.739E-03
 Gradient time:  CPU 1.36 s  wall 2.19 s
 Geometry Optimization Parameters
   NAtoms,    NIC,     NZ,  NCons,   NDum,   NFix, NCnnct, MaxDiis
        2       5       2       0       0       0       0       0


** GEOMETRY OPTIMIZATION IN DELOCALIZED INTERNAL COORDINATES **
   Searching for a Minimum

   Optimization Cycle:   1

                       Coordinates (Angstroms)
     ATOM              X           Y           Z
    1  C           0.000000    0.000000    0.000000
    2  H           0.000000    0.000000    1.133099
   Point Group: c1    Number of degrees of freedom:   0


   Energy is    -38.448831140


 Attempting to Generate Delocalized Internal Coordinates

  ***ERROR*** Wrong Number of Internal Coordinates
              Should be:   0  Found:   1
**WARNING** Problems with Internal Coordinates
  Switching to Cartesian Coordinates

 Translations and Rotations Projected Out of Hessian

  1 Hessian modes will be used to form the next step
  Hessian Eigenvalues:
     1.000000

 Minimum Search - Taking Simple RFO Step
 Searching for Lamda that Minimizes Along All modes
 Value Taken    Lamda =  -0.00004501
 Step Taken.  Stepsize is  0.006709

                             Maximum     Tolerance    Cnvgd?
         Gradient           0.004744      0.000300      NO
         Displacement       0.004744      0.001200      NO
         Energy change     *********      0.000001      NO

 Writing REM_CC_EA            2
 ----------------------------------------------------
       Standard Nuclear Orientation (Angstroms)
    I     Atom         X            Y            Z
 ----------------------------------------------------
    1      C       0.000000     0.000000     0.002510
    2      H       0.000000     0.000000     1.130589
 ----------------------------------------------------
 Nuclear Repulsion Energy =     2.8145763678 hartrees
 There are        4 alpha and        3 beta electrons
 Applying Cartesian multipole field
    Component          Value
    ---------          -----
     (2,0,0)        1.00000E-11
     (0,2,0)        2.00000E-11
     (0,0,2)       -3.00000E-11
 Nucleus-field energy     =    -0.0000000001 hartrees
 Requested basis set is G3large
 There are 16 shells and 52 basis functions
 A cutoff of  1.0D-11 yielded    136 shell pairs
 There are   1462 function pairs (  1834 Cartesian)
Evaluating contribution to one-electron hamiltonian from nuclear
 Smallest overlap matrix eigenvalue = 4.12E-03
 Multipole matrices computed through 2nd order
 Guess MOs from SCF MO coefficient file
Reading MOs from coefficient file
Reading MOs from coefficient file
 Long-range K will be added via erf
 Coulomb attenuation parameter = 0.34 bohr**(-1)
 An unrestricted Kohn-Sham SCF calculation will be
 performed using Pulay DIIS extrapolation
 Exchange:  wPBE + LR-HF      Correlation:  PBE
 Using SG-1 standard quadrature grid
 SCF converges when DIIS error is below 1.0E-08
 Requested basis set is G3large
 There are 16 shells and 52 basis functions
 A cutoff of  1.0D-11 yielded    136 shell pairs
 There are   1462 function pairs (  1834 Cartesian)
 ---------------------------------------
  Cycle       Energy         DIIS Error
 ---------------------------------------
    1     -38.4497556759      2.72E-04
    2     -38.4488627506      4.20E-05
    3     -38.4488634584      9.60E-06
    4     -38.4488634911      2.11E-06
    5     -38.4488634956      7.90E-07
    6     -38.4488634962      1.31E-07
    7     -38.4488634963      1.72E-08
    8     -38.4488634963      2.68E-09 Convergence criterion met
 ---------------------------------------
 One-Electron    Energy =   -56.6228743429
 Total Coulomb   Energy =    20.9421232507
 Alpha Exchange  Energy =    -0.6857338449
 Beta  Exchange  Energy =    -0.5169646267
 DFT   Exchange  Energy =    -4.1954694525
 DFT Correlation Energy =    -0.1845208477
 Nuclear Repu.   Energy =     2.8145763677
 Nuclear Attr.   Energy =   -94.9488512518
 Kinetic         Energy =    38.3259769088
 <S^2> = 0.7534
 SCF time:  CPU 4.42 s  wall 4.92 s
 Final Alpha MO Eigenvalues
            1           2           3           4           5           6
    1 -10.1815649  -0.7685987  -0.4304616  -0.3698389  -0.0579944   0.0428451
            7           8           9
    1   0.1203346   0.1240984   0.1242930
 Final Beta MO Eigenvalues
            1           2           3           4           5           6
    1 -10.1675044  -0.7223439  -0.4096974  -0.0405286   0.0071366   0.0445922
            7           8
    1   0.1261396   0.1279100
 Analysis of SCF Wavefunction
 
 --------------------------------------------------------------
                    Orbital Energies (a.u.)
 --------------------------------------------------------------
 
 Alpha MOs
 -- Occupied --
-10.182  -0.769  -0.430  -0.370
 -- Virtual --
 -0.058   0.043   0.120   0.124   0.124   0.169   0.218   0.525
  0.613   0.614   0.624   0.652   0.660   0.742   0.748   0.788
  1.083   1.123   1.124   1.486   2.405   2.668   2.683   2.858
  2.859   2.861   2.864   2.925   2.927   3.081   3.175   3.261
  3.275   3.379   3.389   3.738   4.122   4.123   5.192  23.387
 27.053  27.058  27.555  40.702  40.797  40.975  40.994  40.996
 
 Beta MOs
 -- Occupied --
-10.168  -0.722  -0.410
 -- Virtual --
 -0.041   0.007   0.045   0.126   0.128   0.145   0.175   0.225
  0.535   0.623   0.635   0.664   0.672   0.688   0.794   0.796
  0.819   1.098   1.127   1.148   1.496   2.417   2.698   2.750
  2.903   2.905   2.920   2.927   2.944   2.977   3.103   3.195
  3.350   3.353   3.398   3.446   3.753   4.121   4.138   5.201
 23.403  27.067  27.094  27.563  40.735  40.810  41.001  41.005
 41.023
 --------------------------------------------------------------
 
          Ground-State Mulliken Net Atomic Charges

     Atom                 Charge (a.u.)    Spin (a.u.)
  --------------------------------------------------------
      1 C                    -0.067213       1.022451
      2 H                     0.067213      -0.022451
  --------------------------------------------------------
  Sum of atomic charges =     0.000000
  Sum of spin   charges =     1.000000

 -----------------------------------------------------------------
                    Cartesian Multipole Moments
 -----------------------------------------------------------------
    Charge (ESU x 10^10)
                 0.0000
    Dipole Moment (Debye)
         X       0.0000      Y       0.0000      Z       1.5562
       Tot       1.5562
    Quadrupole Moments (Debye-Ang)
        XX      -6.8053     XY      -1.0340     YY      -6.8045
        XZ       0.0000     YZ       0.0000     ZZ      -7.2249
    Octapole Moments (Debye-Ang^2)
       XXX       0.0000    XXY       0.0000    XYY       0.0000
       YYY       0.0000    XXZ      -0.3893    XYZ      -0.0582
       YYZ      -0.3893    XZZ       0.0000    YZZ       0.0000
       ZZZ      -0.5437
    Hexadecapole Moments (Debye-Ang^3)
      XXXX      -8.3268   XXXY      -1.1983   XXYY      -2.7760
      XYYY      -1.1983   YYYY      -8.3249   XXXZ       0.0000
      XXYZ       0.0000   XYYZ       0.0000   YYYZ       0.0000
      XXZZ      -4.2061   XYZZ      -0.4107   YYZZ      -4.2058
      XZZZ       0.0000   YZZZ       0.0000   ZZZZ     -15.2947
 -----------------------------------------------------------------
 Calculating analytic gradient of the SCF energy
 Gradient of AOints
            1           2
    1   0.0000001  -0.0000001
    2  -0.0000001   0.0000001
    3   1.4921530  -1.4921530
 Gradient of XC Energy
            1           2
    1   0.0000000  -0.0000000
    2  -0.0000000   0.0000000
    3  -0.1505462   0.1505462
 Gradient of SCF Energy
            1           2
    1   0.0000000  -0.0000000
    2  -0.0000000   0.0000000
    3  -0.0020637   0.0020637
 Max gradient component =       2.064E-03
 RMS gradient           =       1.191E-03
 Gradient time:  CPU 1.35 s  wall 1.53 s
 Geometry Optimization Parameters
   NAtoms,    NIC,     NZ,  NCons,   NDum,   NFix, NCnnct, MaxDiis
        2       5       2       0       0       0       0       0

 Cartesian Hessian Update
 Hessian Updated using BFGS Update


** GEOMETRY OPTIMIZATION IN CARTESIAN COORDINATES **
   Searching for a Minimum

   Optimization Cycle:   2

                       Coordinates (Angstroms)
     ATOM              X           Y           Z
    1  C           0.000000    0.000000    0.002510
    2  H           0.000000    0.000000    1.130589
   Point Group: c1    Number of degrees of freedom:   0


   Energy is    -38.448863496


 Translations and Rotations Projected Out of Hessian

  1 Hessian modes will be used to form the next step
  Hessian Eigenvalues:
     0.565002

 Minimum Search - Taking Simple RFO Step
 Searching for Lamda that Minimizes Along All modes
 Value Taken    Lamda =  -0.00001508
 Step Taken.  Stepsize is  0.005165

                             Maximum     Tolerance    Cnvgd?
         Gradient           0.002064      0.000300      NO
         Displacement       0.003653      0.001200      NO
         Energy change     -0.000032      0.000001      NO

 Writing REM_CC_EA            2
 ----------------------------------------------------
       Standard Nuclear Orientation (Angstroms)
    I     Atom         X            Y            Z
 ----------------------------------------------------
    1      C       0.000000     0.000000     0.004443
    2      H       0.000000     0.000000     1.128656
 ----------------------------------------------------
 Nuclear Repulsion Energy =     2.8242544339 hartrees
 There are        4 alpha and        3 beta electrons
 Applying Cartesian multipole field
    Component          Value
    ---------          -----
     (2,0,0)        1.00000E-11
     (0,2,0)        2.00000E-11
     (0,0,2)       -3.00000E-11
 Nucleus-field energy     =    -0.0000000001 hartrees
 Requested basis set is G3large
 There are 16 shells and 52 basis functions
 A cutoff of  1.0D-11 yielded    136 shell pairs
 There are   1462 function pairs (  1834 Cartesian)
Evaluating contribution to one-electron hamiltonian from nuclear
 Smallest overlap matrix eigenvalue = 4.07E-03
 Multipole matrices computed through 2nd order
 Guess MOs from SCF MO coefficient file
Reading MOs from coefficient file
Reading MOs from coefficient file
 Long-range K will be added via erf
 Coulomb attenuation parameter = 0.34 bohr**(-1)
 An unrestricted Kohn-Sham SCF calculation will be
 performed using Pulay DIIS extrapolation
 Exchange:  wPBE + LR-HF      Correlation:  PBE
 Using SG-1 standard quadrature grid
 SCF converges when DIIS error is below 1.0E-08
 Requested basis set is G3large
 There are 16 shells and 52 basis functions
 A cutoff of  1.0D-11 yielded    136 shell pairs
 There are   1462 function pairs (  1834 Cartesian)
 ---------------------------------------
  Cycle       Energy         DIIS Error
 ---------------------------------------
    1     -38.4495419343      2.11E-04
    2     -38.4488704240      3.24E-05
    3     -38.4488708438      7.42E-06
    4     -38.4488708633      1.62E-06
    5     -38.4488708660      6.07E-07
    6     -38.4488708663      1.00E-07
    7     -38.4488708663      1.32E-08
    8     -38.4488708664      2.32E-09 Convergence criterion met
 ---------------------------------------
 One-Electron    Energy =   -56.6405711014
 Total Coulomb   Energy =    20.9514519560
 Alpha Exchange  Energy =    -0.6858116989
 Beta  Exchange  Energy =    -0.5170490114
 DFT   Exchange  Energy =    -4.1965859295
 DFT Correlation Energy =    -0.1845595149
 Nuclear Repu.   Energy =     2.8242544338
 Nuclear Attr.   Energy =   -94.9706996607
 Kinetic         Energy =    38.3301285593
 <S^2> = 0.7534
 SCF time:  CPU 4.40 s  wall 5.12 s
 Final Alpha MO Eigenvalues
            1           2           3           4           5           6
    1 -10.1811551  -0.7694060  -0.4305367  -0.3698279  -0.0579836   0.0428241
            7           8           9
    1   0.1203379   0.1241428   0.1242965
 Final Beta MO Eigenvalues
            1           2           3           4           5           6
    1 -10.1671002  -0.7232241  -0.4096964  -0.0405135   0.0071416   0.0445643
            7           8
    1   0.1261771   0.1279147
 Analysis of SCF Wavefunction
 
 --------------------------------------------------------------
                    Orbital Energies (a.u.)
 --------------------------------------------------------------
 
 Alpha MOs
 -- Occupied --
-10.181  -0.769  -0.431  -0.370
 -- Virtual --
 -0.058   0.043   0.120   0.124   0.124   0.169   0.219   0.526
  0.613   0.614   0.624   0.652   0.661   0.742   0.748   0.788
  1.084   1.124   1.125   1.489   2.402   2.668   2.684   2.858
  2.859   2.861   2.864   2.925   2.927   3.083   3.177   3.261
  3.275   3.379   3.389   3.743   4.127   4.128   5.202  23.395
 27.053  27.058  27.558  40.703  40.800  40.975  40.994  40.996
 
 Beta MOs
 -- Occupied --
-10.167  -0.723  -0.410
 -- Virtual --
 -0.041   0.007   0.045   0.126   0.128   0.145   0.175   0.226
  0.536   0.623   0.636   0.665   0.672   0.688   0.794   0.796
  0.819   1.099   1.128   1.149   1.498   2.413   2.698   2.750
  2.903   2.905   2.920   2.927   2.944   2.976   3.105   3.197
  3.350   3.353   3.398   3.446   3.758   4.126   4.144   5.211
 23.411  27.068  27.094  27.566  40.736  40.813  41.001  41.006
 41.024
 --------------------------------------------------------------
 
          Ground-State Mulliken Net Atomic Charges

     Atom                 Charge (a.u.)    Spin (a.u.)
  --------------------------------------------------------
      1 C                    -0.068452       1.022254
      2 H                     0.068452      -0.022254
  --------------------------------------------------------
  Sum of atomic charges =     0.000000
  Sum of spin   charges =     1.000000

 -----------------------------------------------------------------
                    Cartesian Multipole Moments
 -----------------------------------------------------------------
    Charge (ESU x 10^10)
                 0.0000
    Dipole Moment (Debye)
         X       0.0000      Y       0.0000      Z       1.5627
       Tot       1.5627
    Quadrupole Moments (Debye-Ang)
        XX      -6.8019     XY      -1.0341     YY      -6.8011
        XZ       0.0000     YZ       0.0000     ZZ      -7.2176
    Octapole Moments (Debye-Ang^2)
       XXX       0.0000    XXY       0.0000    XYY       0.0000
       YYY       0.0000    XXZ      -0.3918    XYZ      -0.0604
       YYZ      -0.3918    XZZ       0.0000    YZZ       0.0000
       ZZZ      -0.5635
    Hexadecapole Moments (Debye-Ang^3)
      XXXX      -8.3242   XXXY      -1.1985   XXYY      -2.7751
      XYYY      -1.1985   YYYY      -8.3224   XXXZ       0.0000
      XXYZ       0.0000   XYYZ       0.0000   YYYZ       0.0000
      XXZZ      -4.1936   XYZZ      -0.4110   YYZZ      -4.1933
      XZZZ       0.0000   YZZZ       0.0000   ZZZZ     -15.2406
 -----------------------------------------------------------------
 Calculating analytic gradient of the SCF energy
 Gradient of AOints
            1           2
    1   0.0000001  -0.0000001
    2  -0.0000001   0.0000001
    3   1.4932529  -1.4932529
 Gradient of XC Energy
            1           2
    1   0.0000000  -0.0000000
    2  -0.0000000   0.0000000
    3  -0.1508188   0.1508188
 Gradient of SCF Energy
            1           2
    1   0.0000000  -0.0000000
    2  -0.0000000   0.0000000
    3   0.0000538  -0.0000538
 Max gradient component =       5.381E-05
 RMS gradient           =       3.107E-05
 Gradient time:  CPU 1.36 s  wall 1.46 s
 Geometry Optimization Parameters
   NAtoms,    NIC,     NZ,  NCons,   NDum,   NFix, NCnnct, MaxDiis
        2       5       2       0       0       0       0       0

 Cartesian Hessian Update
 Hessian Updated using BFGS Update


** GEOMETRY OPTIMIZATION IN CARTESIAN COORDINATES **
   Searching for a Minimum

   Optimization Cycle:   3

                       Coordinates (Angstroms)
     ATOM              X           Y           Z
    1  C           0.000000    0.000000    0.004443
    2  H           0.000000    0.000000    1.128656
   Point Group: c1    Number of degrees of freedom:   0


   Energy is    -38.448870866


 Translations and Rotations Projected Out of Hessian

  1 Hessian modes will be used to form the next step
  Hessian Eigenvalues:
     0.579748

 Minimum Search - Taking Simple RFO Step
 Searching for Lamda that Minimizes Along All modes
 Value Taken    Lamda =   0.00000000
 Step Taken.  Stepsize is  0.000131

                             Maximum     Tolerance    Cnvgd?
         Gradient           0.000054      0.000300     YES
         Displacement       0.000093      0.001200     YES
         Energy change     -0.000007      0.000001      NO


                       Distance Matrix (Angstroms)
             C (  1)
   H (  2)  1.124213
 


 ******************************
 **  OPTIMIZATION CONVERGED  **
 ******************************
 Analysis of SCF Wavefunction
 
 --------------------------------------------------------------
                    Orbital Energies (a.u.)
 --------------------------------------------------------------
 
 Alpha MOs
 -- Occupied --
-10.181  -0.769  -0.431  -0.370
 -- Virtual --
 -0.058   0.043   0.120   0.124   0.124   0.169   0.219   0.526
  0.613   0.614   0.624   0.652   0.661   0.742   0.748   0.788
  1.084   1.124   1.125   1.489   2.402   2.668   2.684   2.858
  2.859   2.861   2.864   2.925   2.927   3.083   3.177   3.261
  3.275   3.379   3.389   3.743   4.127   4.128   5.202  23.395
 27.053  27.058  27.558  40.703  40.800  40.975  40.994  40.996
 
 Beta MOs
 -- Occupied --
-10.167  -0.723  -0.410
 -- Virtual --
 -0.041   0.007   0.045   0.126   0.128   0.145   0.175   0.226
  0.536   0.623   0.636   0.665   0.672   0.688   0.794   0.796
  0.819   1.099   1.128   1.149   1.498   2.413   2.698   2.750
  2.903   2.905   2.920   2.927   2.944   2.976   3.105   3.197
  3.350   3.353   3.398   3.446   3.758   4.126   4.144   5.211
 23.411  27.068  27.094  27.566  40.736  40.813  41.001  41.006
 41.024
 --------------------------------------------------------------
 
          Ground-State Mulliken Net Atomic Charges

     Atom                 Charge (a.u.)    Spin (a.u.)
  --------------------------------------------------------
      1 C                    -0.068452       1.022254
      2 H                     0.068452      -0.022254
  --------------------------------------------------------
  Sum of atomic charges =     0.000000
  Sum of spin   charges =     1.000000

 -----------------------------------------------------------------
                    Cartesian Multipole Moments
 -----------------------------------------------------------------
    Charge (ESU x 10^10)
                 0.0000
    Dipole Moment (Debye)
         X       0.0000      Y       0.0000      Z       1.5627
       Tot       1.5627
    Quadrupole Moments (Debye-Ang)
        XX      -6.8019     XY      -1.0341     YY      -6.8011
        XZ       0.0000     YZ       0.0000     ZZ      -7.2176
    Octapole Moments (Debye-Ang^2)
       XXX       0.0000    XXY       0.0000    XYY       0.0000
       YYY       0.0000    XXZ      -0.3918    XYZ      -0.0604
       YYZ      -0.3918    XZZ       0.0000    YZZ       0.0000
       ZZZ      -0.5635
    Hexadecapole Moments (Debye-Ang^3)
      XXXX      -8.3242   XXXY      -1.1985   XXYY      -2.7751
      XYYY      -1.1985   YYYY      -8.3224   XXXZ       0.0000
      XXYZ       0.0000   XYYZ       0.0000   YYYZ       0.0000
      XXZZ      -4.1936   XYZZ      -0.4110   YYZZ      -4.1933
      XZZZ       0.0000   YZZZ       0.0000   ZZZZ     -15.2406
 -----------------------------------------------------------------
 Total job time:  29.98s(wall), 24.69s(cpu) 
 Wed May  1 12:15:35 2013

        *************************************************************
        *                                                           *
        *  Thank you very much for using Q-Chem.  Have a nice day.  *
        *                                                           *
        *************************************************************


0 sent ACK to 0 
now end server 0 ... 
 
**********************************************************************
Job 2 of 2 
**********************************************************************
 
Process 0 of 1 is on cl066.stfx.acenet.ca - thread support 1
initial socket setup ...start
initial socket setup ...done 
now start server 0 ... 

cmd = /usr/bin/ssh clhead /usr/local/qchem/bin/get_hostid 678133661 > /scratch/tmp/5956695.1.short.q/qchem6576/lic.dat
                  Welcome to Q-Chem
     A Quantum Leap Into The Future Of Chemistry

 Y. Shao, L. Fusti-Molnar, Y. Jung, J. Kussmann, C. Ochsenfeld,
 S. T. Brown, A. T. B. Gilbert, L. V. Slipchenko,S. V. Levchenko,
 D. P. O'Neill, R. A. DiStasio Jr., R. C. Lochan, T. Wang,
 G. J. O. Beran, N. A. Besley, J. M. Herbert, C. Y. Lin,
 T. Van Voorhis, S. H. Chien, A. Sodt, R. P. Steele, 
 V. A. Rassolov, P. E. Maslen, P. P. Korambath, R. D. Adamson,
 B. Austin, J. Baker, E. F. C. Byrd, H. Dachsel, R. J. Doerksen,
 A. Dreuw, B. D. Dunietz, A. D. Dutoi, T. R. Furlani,
 S. R. Gwaltney, A. Heyden, S. Hirata, C.-P. Hsu, G. Kedziora,
 R. Z. Khaliullin, P. Klunzinger, A. M. Lee, M. S. Lee, W. Liang,
 I. Lotan, N. Nair, B. Peters, E. I. Proynov, P. A. Pieniazek, 
 Y. M. Rhee, J. Ritchie, E. Rosta, C. D. Sherrill, 
 A. C. Simmonett, J. E. Subotnik, H. L. Woodcock III,
 W. Zhang, A. T. Bell, A. K. Chakraborty, D. M. Chipman,
 F. J. Keil, A. Warshel, W. J. Hehre, H. F. Schaefer III,
 J. Kong, A. I. Krylov, P. M. W. Gill, M. Head-Gordon,
 Q-Chem, Version 3.1, Q-Chem, Inc., Pittsburgh, PA (2007).

 Additional authors for Version 3.1: 
 Z. Gan, Y. Zhao, N. E. Schultz, D. Truhlar, E. Epifanovsky and M. Oana.

 Additional authors for Version 3.2: 
 R. Baer, B. R. Brooks, D. Casanova, J.-D. Chai, C.-L. Cheng, 
 C. Cramer, D. Crittenden, A. Ghysels, G. Hawkins, E. G. Hohenstein, 
 C. Kelley, W. Kurlancheek, D. Liotard, E. Livshits, P. Manohar, 
 A. Marenich, D. Neuhauser, R. Olson, M. A. Rohrdanz, K. S. Thanthiriwatte, 
 A. J. W. Thom, V. Vanovschi, C. F. Williams, Q. Wu and Z.-Q. You. 


 Intel X86 Linux Version

 Q-chem begins on Wed May  1 12:15:37 2013  

 Parallel job on  1  processors
Processing $rem in /usr/local/qchem/config/preferences.

theFileMan(): MAXOPENFILES=974 MAX_SUB_FILE_NUM=16
Maximum size of a physical file is 2.0 GB, maximum size of a tmp-file is 32.0 GB


--------------------------------------------------------------
User input:
--------------------------------------------------------------

$molecule 
READ 
$end 

$xc_functional
C PBE   1.00
X wPBE  1.00
$end


$rem
SYMMETRY_DECOMPOSITION	0
LRC_DFT                 true
exchange 		general
BASIS                   g3large
omega			340 
JOBTYPE                 freq
IDERIV 1
SCF_GUESS READ
mem_static              760
max_scf_cycles          200
scf_final_print         1
sym_ignore              true
$end

--------------------------------------------------------------
 Writing REM_CC_EA            2
 ----------------------------------------------------
       Standard Nuclear Orientation (Angstroms)
    I     Atom         X            Y            Z
 ----------------------------------------------------
    1      C       0.000000     0.000000     0.004443
    2      H       0.000000     0.000000     1.128656
 ----------------------------------------------------
 Nuclear Repulsion Energy =     2.8242544339 hartrees
 There are        4 alpha and        3 beta electrons
 Requested basis set is G3large
 There are 16 shells and 52 basis functions

Total QAlloc Memory Limit   2000 MB
Mega-Array Size       759 MB
MEM_STATIC part       760 MB

                       Distance Matrix (Angstroms)
             C (  1)
   H (  2)  1.124213
 
 A cutoff of  1.0D-11 yielded    136 shell pairs
 There are   1462 function pairs (  1834 Cartesian)
Evaluating contribution to one-electron hamiltonian from nuclear
 Smallest overlap matrix eigenvalue = 4.07E-03
 Multipole matrices computed through 2nd order
 Guess MOs from SCF MO coefficient file
Reading MOs from coefficient file
Reading MOs from coefficient file
 Long-range K will be added via erf
 Coulomb attenuation parameter = 0.34 bohr**(-1)
 An unrestricted Kohn-Sham SCF calculation will be
 performed using Pulay DIIS extrapolation
 Exchange:  wPBE + LR-HF      Correlation:  PBE
 Using SG-1 standard quadrature grid
 SCF converges when DIIS error is below 1.0E-08
 ---------------------------------------
  Cycle       Energy         DIIS Error
 ---------------------------------------
    1     -38.4488708664      1.77E-09
    2     -38.4488708664      1.48E-09 Convergence criterion met
 ---------------------------------------
 One-Electron    Energy =   -56.6405710728
 Total Coulomb   Energy =    20.9514519157
 Alpha Exchange  Energy =    -0.6858116837
 Beta  Exchange  Energy =    -0.5170490249
 DFT   Exchange  Energy =    -4.1965859183
 DFT Correlation Energy =    -0.1845595163
 Nuclear Repu.   Energy =     2.8242544339
 Nuclear Attr.   Energy =   -94.9706996330
 Kinetic         Energy =    38.3301285602
 <S^2> = 0.7534
 SCF time:  CPU 1.08 s  wall 2.28 s
 Final Alpha MO Eigenvalues
            1           2           3           4           5           6
    1 -10.1811551  -0.7694060  -0.4305367  -0.3698279  -0.0579836   0.0428240
            7           8           9
    1   0.1203379   0.1241428   0.1242965
 Final Beta MO Eigenvalues
            1           2           3           4           5           6
    1 -10.1671002  -0.7232241  -0.4096964  -0.0405135   0.0071416   0.0445643
            7           8
    1   0.1261771   0.1279147
 Analysis of SCF Wavefunction
 
 --------------------------------------------------------------
                    Orbital Energies (a.u.)
 --------------------------------------------------------------
 
 Alpha MOs
 -- Occupied --
-10.181  -0.769  -0.431  -0.370
 -- Virtual --
 -0.058   0.043   0.120   0.124   0.124   0.169   0.219   0.526
  0.613   0.614   0.624   0.652   0.661   0.742   0.748   0.788
  1.084   1.124   1.125   1.489   2.402   2.668   2.684   2.858
  2.859   2.861   2.864   2.925   2.927   3.083   3.177   3.261
  3.275   3.379   3.389   3.743   4.127   4.128   5.202  23.395
 27.053  27.058  27.558  40.703  40.800  40.975  40.994  40.996
 
 Beta MOs
 -- Occupied --
-10.167  -0.723  -0.410
 -- Virtual --
 -0.041   0.007   0.045   0.126   0.128   0.145   0.175   0.226
  0.536   0.623   0.636   0.665   0.672   0.688   0.794   0.796
  0.819   1.099   1.128   1.149   1.498   2.413   2.698   2.750
  2.903   2.905   2.920   2.927   2.944   2.976   3.105   3.197
  3.350   3.353   3.398   3.446   3.758   4.126   4.144   5.211
 23.411  27.068  27.094  27.566  40.736  40.813  41.001  41.006
 41.024
 --------------------------------------------------------------
 
          Ground-State Mulliken Net Atomic Charges

     Atom                 Charge (a.u.)    Spin (a.u.)
  --------------------------------------------------------
      1 C                    -0.068452       1.022253
      2 H                     0.068452      -0.022253
  --------------------------------------------------------
  Sum of atomic charges =     0.000000
  Sum of spin   charges =     1.000000

 -----------------------------------------------------------------
                    Cartesian Multipole Moments
 -----------------------------------------------------------------
    Charge (ESU x 10^10)
                 0.0000
    Dipole Moment (Debye)
         X       0.0000      Y       0.0000      Z       1.5627
       Tot       1.5627
    Quadrupole Moments (Debye-Ang)
        XX      -6.8019     XY      -1.0341     YY      -6.8011
        XZ       0.0000     YZ       0.0000     ZZ      -7.2176
    Octapole Moments (Debye-Ang^2)
       XXX       0.0000    XXY       0.0000    XYY       0.0000
       YYY       0.0000    XXZ      -0.3918    XYZ      -0.0604
       YYZ      -0.3918    XZZ       0.0000    YZZ       0.0000
       ZZZ      -0.5635
    Hexadecapole Moments (Debye-Ang^3)
      XXXX      -8.3242   XXXY      -1.1985   XXYY      -2.7751
      XYYY      -1.1985   YYYY      -8.3224   XXXZ       0.0000
      XXYZ       0.0000   XYYZ       0.0000   YYYZ       0.0000
      XXZZ      -4.1936   XYZZ      -0.4110   YYZZ      -4.1933
      XZZZ       0.0000   YZZZ       0.0000   ZZZZ     -15.2406
 -----------------------------------------------------------------
 Calculating analytic gradient of the SCF energy
 Gradient of AOints
            1           2
    1   0.0000001  -0.0000001
    2  -0.0000001   0.0000001
    3   1.4932530  -1.4932530
 Gradient of XC Energy
            1           2
    1   0.0000000  -0.0000000
    2  -0.0000000   0.0000000
    3  -0.1508188   0.1508188
 Gradient of SCF Energy
            1           2
    1   0.0000000  -0.0000000
    2  -0.0000000   0.0000000
    3   0.0000538  -0.0000538
 Max gradient component =       5.381E-05
 RMS gradient           =       3.106E-05
 Gradient time:  CPU 1.35 s  wall 1.49 s
 ######################################################
 ######################################################
 # Starting finite difference calculation for IDERIV  #
 Finite diff step size: 1.89e-03 a.u.
 Writing REM_CC_EA            2
 ----------------------------------------------------
       Standard Nuclear Orientation (Angstroms)
    I     Atom         X            Y            Z
 ----------------------------------------------------
    1      C       0.001000     0.000000     0.004443
    2      H       0.000000     0.000000     1.128656
 ----------------------------------------------------
 Nuclear Repulsion Energy =     2.8242533166 hartrees
 There are        4 alpha and        3 beta electrons

                       Distance Matrix (Angstroms)
             C (  1)
   H (  2)  1.124213
 
 Requested basis set is G3large
 There are 16 shells and 52 basis functions
 A cutoff of  1.0D-11 yielded    136 shell pairs
 There are   1462 function pairs (  1834 Cartesian)
Evaluating contribution to one-electron hamiltonian from nuclear
 Smallest overlap matrix eigenvalue = 4.07E-03
 Multipole matrices computed through 2nd order
 Guess MOs from SCF MO coefficient file
Reading MOs from coefficient file
Reading MOs from coefficient file
 Long-range K will be added via erf
 Coulomb attenuation parameter = 0.34 bohr**(-1)
 An unrestricted Kohn-Sham SCF calculation will be
 performed using Pulay DIIS extrapolation
 Exchange:  wPBE + LR-HF      Correlation:  PBE
 Using SG-1 standard quadrature grid
 SCF converges when DIIS error is below 1.0E-08
 ---------------------------------------
  Cycle       Energy         DIIS Error
 ---------------------------------------
    1     -38.4488705583      1.16E-05
    2     -38.4488708303      3.01E-06
    3     -38.4488708527      1.62E-06
    4     -38.4488708634      6.58E-07
    5     -38.4488708657      2.34E-07
    6     -38.4488708660      9.38E-08
    7     -38.4488708661      4.77E-08
    8     -38.4488708661      1.62E-08
    9     -38.4488708661      6.28E-09 Convergence criterion met
 ---------------------------------------
 One-Electron    Energy =   -56.6405690040
 Total Coulomb   Energy =    20.9514508054
 Alpha Exchange  Energy =    -0.6858116700
 Beta  Exchange  Energy =    -0.5170490196
 DFT   Exchange  Energy =    -4.1965857824
 DFT Correlation Energy =    -0.1845595122
 Nuclear Repu.   Energy =     2.8242533166
 Nuclear Attr.   Energy =   -94.9706970521
 Kinetic         Energy =    38.3301280481
 <S^2> = 0.7534
 SCF time:  CPU 4.96 s  wall 5.50 s
 Final Alpha MO Eigenvalues
            1           2           3           4           5           6
    1 -10.1811552  -0.7694059  -0.4305367  -0.3698279  -0.0579836   0.0428241
            7           8           9
    1   0.1203379   0.1241428   0.1242965
 Final Beta MO Eigenvalues
            1           2           3           4           5           6
    1 -10.1671003  -0.7232240  -0.4096964  -0.0405135   0.0071416   0.0445643
            7           8
    1   0.1261771   0.1279147
 Analysis of SCF Wavefunction
 
 --------------------------------------------------------------
                    Orbital Energies (a.u.)
 --------------------------------------------------------------
 
 Alpha MOs
 -- Occupied --
-10.181  -0.769  -0.431  -0.370
 -- Virtual --
 -0.058   0.043   0.120   0.124   0.124   0.169   0.219   0.526
  0.613   0.614   0.624   0.652   0.661   0.742   0.748   0.788
  1.084   1.124   1.125   1.489   2.402   2.668   2.684   2.858
  2.859   2.861   2.864   2.925   2.927   3.083   3.177   3.261
  3.275   3.379   3.389   3.743   4.127   4.128   5.202  23.395
 27.053  27.058  27.558  40.703  40.800  40.975  40.994  40.996
 
 Beta MOs
 -- Occupied --
-10.167  -0.723  -0.410
 -- Virtual --
 -0.041   0.007   0.045   0.126   0.128   0.145   0.175   0.226
  0.536   0.623   0.636   0.665   0.672   0.688   0.794   0.796
  0.819   1.099   1.128   1.149   1.498   2.413   2.698   2.750
  2.903   2.905   2.920   2.927   2.944   2.976   3.105   3.197
  3.350   3.353   3.398   3.446   3.758   4.126   4.144   5.211
 23.411  27.068  27.094  27.566  40.736  40.813  41.001  41.006
 41.024
 --------------------------------------------------------------
 
          Ground-State Mulliken Net Atomic Charges

     Atom                 Charge (a.u.)    Spin (a.u.)
  --------------------------------------------------------
      1 C                    -0.068452       1.022253
      2 H                     0.068452      -0.022253
  --------------------------------------------------------
  Sum of atomic charges =     0.000000
  Sum of spin   charges =     1.000000

 -----------------------------------------------------------------
                    Cartesian Multipole Moments
 -----------------------------------------------------------------
    Charge (ESU x 10^10)
                 0.0000
    Dipole Moment (Debye)
         X      -0.0014      Y       0.0000      Z       1.5627
       Tot       1.5627
    Quadrupole Moments (Debye-Ang)
        XX      -6.8019     XY      -1.0341     YY      -6.8011
        XZ       0.0019     YZ      -0.0009     ZZ      -7.2176
    Octapole Moments (Debye-Ang^2)
       XXX      -0.0194    XXY      -0.0020    XYY      -0.0065
       YYY       0.0000    XXZ      -0.3918    XYZ      -0.0604
       YYZ      -0.3918    XZZ      -0.0074    YZZ      -0.0001
       ZZZ      -0.5635
    Hexadecapole Moments (Debye-Ang^3)
      XXXX      -8.3243   XXXY      -1.1985   XXYY      -2.7751
      XYYY      -1.1985   YYYY      -8.3224   XXXZ       0.0026
      XXYZ      -0.0005   XYYZ       0.0009   YYYZ      -0.0011
      XXZZ      -4.1936   XYZZ      -0.4110   YYZZ      -4.1933
      XZZZ       0.0018   YZZZ      -0.0011   ZZZZ     -15.2406
 -----------------------------------------------------------------
 Calculating analytic gradient of the SCF energy
 Gradient of AOints
            1           2
    1  -0.0013290   0.0013290
    2   0.0000003  -0.0000003
    3   1.4932523  -1.4932523
 Gradient of XC Energy
            1           2
    1   0.0001344  -0.0001344
    2  -0.0000001   0.0000001
    3  -0.1508187   0.1508187
 Gradient of SCF Energy
            1           2
    1   0.0000002  -0.0000002
    2  -0.0000001   0.0000001
    3   0.0000536  -0.0000536
 Max gradient component =       5.356E-05
 RMS gradient           =       3.092E-05
 Gradient time:  CPU 1.32 s  wall 1.43 s
 Writing REM_CC_EA            2
 ----------------------------------------------------
       Standard Nuclear Orientation (Angstroms)
    I     Atom         X            Y            Z
 ----------------------------------------------------
    1      C      -0.001000     0.000000     0.004443
    2      H       0.000000     0.000000     1.128656
 ----------------------------------------------------
 Nuclear Repulsion Energy =     2.8242533166 hartrees
 There are        4 alpha and        3 beta electrons

                       Distance Matrix (Angstroms)
             C (  1)
   H (  2)  1.124213
 
 Requested basis set is G3large
 There are 16 shells and 52 basis functions
 A cutoff of  1.0D-11 yielded    136 shell pairs
 There are   1462 function pairs (  1834 Cartesian)
Evaluating contribution to one-electron hamiltonian from nuclear
 Smallest overlap matrix eigenvalue = 4.07E-03
 Multipole matrices computed through 2nd order
 Guess MOs from SCF MO coefficient file
Reading MOs from coefficient file
Reading MOs from coefficient file
 Long-range K will be added via erf
 Coulomb attenuation parameter = 0.34 bohr**(-1)
 An unrestricted Kohn-Sham SCF calculation will be
 performed using Pulay DIIS extrapolation
 Exchange:  wPBE + LR-HF      Correlation:  PBE
 Using SG-1 standard quadrature grid
 SCF converges when DIIS error is below 1.0E-08
 ---------------------------------------
  Cycle       Energy         DIIS Error
 ---------------------------------------
    1     -38.4488699381      2.32E-05
    2     -38.4488707229      6.01E-06
    3     -38.4488708123      3.24E-06
    4     -38.4488708553      1.32E-06
    5     -38.4488708646      4.66E-07
    6     -38.4488708659      1.88E-07
    7     -38.4488708661      9.67E-08
    8     -38.4488708662      3.43E-08
    9     -38.4488708662      1.39E-08
   10     -38.4488708662      5.29E-09 Convergence criterion met
 ---------------------------------------
 One-Electron    Energy =   -56.6405691095
 Total Coulomb   Energy =    20.9514509296
 Alpha Exchange  Energy =    -0.6858116710
 Beta  Exchange  Energy =    -0.5170490203
 DFT   Exchange  Energy =    -4.1965857991
 DFT Correlation Energy =    -0.1845595126
 Nuclear Repu.   Energy =     2.8242533166
 Nuclear Attr.   Energy =   -94.9706972906
 Kinetic         Energy =    38.3301281812
 <S^2> = 0.7534
 SCF time:  CPU 5.44 s  wall 6.21 s
 Final Alpha MO Eigenvalues
            1           2           3           4           5           6
    1 -10.1811551  -0.7694059  -0.4305366  -0.3698278  -0.0579836   0.0428241
            7           8           9
    1   0.1203379   0.1241428   0.1242965
 Final Beta MO Eigenvalues
            1           2           3           4           5           6
    1 -10.1671002  -0.7232240  -0.4096964  -0.0405135   0.0071416   0.0445643
            7           8
    1   0.1261771   0.1279147
 Analysis of SCF Wavefunction
 
 --------------------------------------------------------------
                    Orbital Energies (a.u.)
 --------------------------------------------------------------
 
 Alpha MOs
 -- Occupied --
-10.181  -0.769  -0.431  -0.370
 -- Virtual --
 -0.058   0.043   0.120   0.124   0.124   0.169   0.219   0.526
  0.613   0.614   0.624   0.652   0.661   0.742   0.748   0.788
  1.084   1.124   1.125   1.489   2.402   2.668   2.684   2.858
  2.859   2.861   2.864   2.925   2.927   3.083   3.177   3.261
  3.275   3.379   3.389   3.743   4.127   4.128   5.202  23.395
 27.053  27.058  27.558  40.703  40.800  40.975  40.994  40.996
 
 Beta MOs
 -- Occupied --
-10.167  -0.723  -0.410
 -- Virtual --
 -0.041   0.007   0.045   0.126   0.128   0.145   0.175   0.226
  0.536   0.623   0.636   0.665   0.672   0.688   0.794   0.796
  0.819   1.099   1.128   1.149   1.498   2.413   2.698   2.750
  2.903   2.905   2.920   2.927   2.944   2.976   3.105   3.197
  3.350   3.353   3.398   3.446   3.758   4.126   4.144   5.211
 23.411  27.068  27.094  27.566  40.736  40.813  41.001  41.006
 41.024
 --------------------------------------------------------------
 
          Ground-State Mulliken Net Atomic Charges

     Atom                 Charge (a.u.)    Spin (a.u.)
  --------------------------------------------------------
      1 C                    -0.068452       1.022253
      2 H                     0.068452      -0.022253
  --------------------------------------------------------
  Sum of atomic charges =     0.000000
  Sum of spin   charges =     1.000000

 -----------------------------------------------------------------
                    Cartesian Multipole Moments
 -----------------------------------------------------------------
    Charge (ESU x 10^10)
                 0.0000
    Dipole Moment (Debye)
         X       0.0014      Y       0.0000      Z       1.5627
       Tot       1.5627
    Quadrupole Moments (Debye-Ang)
        XX      -6.8019     XY      -1.0341     YY      -6.8011
        XZ      -0.0019     YZ       0.0009     ZZ      -7.2176
    Octapole Moments (Debye-Ang^2)
       XXX       0.0194    XXY       0.0020    XYY       0.0065
       YYY       0.0000    XXZ      -0.3918    XYZ      -0.0604
       YYZ      -0.3918    XZZ       0.0074    YZZ       0.0001
       ZZZ      -0.5635
    Hexadecapole Moments (Debye-Ang^3)
      XXXX      -8.3243   XXXY      -1.1985   XXYY      -2.7751
      XYYY      -1.1985   YYYY      -8.3224   XXXZ      -0.0026
      XXYZ       0.0005   XYYZ      -0.0009   YYYZ       0.0011
      XXZZ      -4.1936   XYZZ      -0.4110   YYZZ      -4.1933
      XZZZ      -0.0018   YZZZ       0.0011   ZZZZ     -15.2406
 -----------------------------------------------------------------
 Calculating analytic gradient of the SCF energy
 Gradient of AOints
            1           2
    1   0.0013294  -0.0013294
    2  -0.0000011   0.0000011
    3   1.4932523  -1.4932523
 Gradient of XC Energy
            1           2
    1  -0.0001344   0.0001344
    2   0.0000001  -0.0000001
    3  -0.1508187   0.1508187
 Gradient of SCF Energy
            1           2
    1  -0.0000002   0.0000002
    2   0.0000001  -0.0000001
    3   0.0000536  -0.0000536
 Max gradient component =       5.356E-05
 RMS gradient           =       3.092E-05
 Gradient time:  CPU 1.35 s  wall 1.42 s
 Writing REM_CC_EA            2
 ----------------------------------------------------
       Standard Nuclear Orientation (Angstroms)
    I     Atom         X            Y            Z
 ----------------------------------------------------
    1      C       0.000000     0.001000     0.004443
    2      H       0.000000     0.000000     1.128656
 ----------------------------------------------------
 Nuclear Repulsion Energy =     2.8242533166 hartrees
 There are        4 alpha and        3 beta electrons

                       Distance Matrix (Angstroms)
             C (  1)
   H (  2)  1.124213
 
 Requested basis set is G3large
 There are 16 shells and 52 basis functions
 A cutoff of  1.0D-11 yielded    136 shell pairs
 There are   1462 function pairs (  1834 Cartesian)
Evaluating contribution to one-electron hamiltonian from nuclear
 Smallest overlap matrix eigenvalue = 4.07E-03
 Multipole matrices computed through 2nd order
 Guess MOs from SCF MO coefficient file
Reading MOs from coefficient file
Reading MOs from coefficient file
 Long-range K will be added via erf
 Coulomb attenuation parameter = 0.34 bohr**(-1)
 An unrestricted Kohn-Sham SCF calculation will be
 performed using Pulay DIIS extrapolation
 Exchange:  wPBE + LR-HF      Correlation:  PBE
 Using SG-1 standard quadrature grid
 SCF converges when DIIS error is below 1.0E-08
 ---------------------------------------
  Cycle       Energy         DIIS Error
 ---------------------------------------
    1     -38.4488704789      1.73E-05
    2     -38.4488708040      3.71E-06
    3     -38.4488708411      1.73E-06
    4     -38.4488708578      9.49E-07
    5     -38.4488708645      4.21E-07
    6     -38.4488708661      1.63E-07
    7     -38.4488708663      3.64E-08
    8     -38.4488708663      8.65E-09 Convergence criterion met
 ---------------------------------------
 One-Electron    Energy =   -56.6405692281
 Total Coulomb   Energy =    20.9514510696
 Alpha Exchange  Energy =    -0.6858116722
 Beta  Exchange  Energy =    -0.5170490211
 DFT   Exchange  Energy =    -4.1965858180
 DFT Correlation Energy =    -0.1845595130
 Nuclear Repu.   Energy =     2.8242533166
 Nuclear Attr.   Energy =   -94.9706975584
 Kinetic         Energy =    38.3301283303
 <S^2> = 0.7534
 SCF time:  CPU 4.43 s  wall 5.06 s
 Final Alpha MO Eigenvalues
            1           2           3           4           5           6
    1 -10.1811551  -0.7694059  -0.4305366  -0.3698278  -0.0579836   0.0428241
            7           8           9
    1   0.1203379   0.1241428   0.1242966
 Final Beta MO Eigenvalues
            1           2           3           4           5           6
    1 -10.1671002  -0.7232240  -0.4096964  -0.0405135   0.0071416   0.0445643
            7           8
    1   0.1261771   0.1279147
 Analysis of SCF Wavefunction
 
 --------------------------------------------------------------
                    Orbital Energies (a.u.)
 --------------------------------------------------------------
 
 Alpha MOs
 -- Occupied --
-10.181  -0.769  -0.431  -0.370
 -- Virtual --
 -0.058   0.043   0.120   0.124   0.124   0.169   0.219   0.526
  0.613   0.614   0.624   0.652   0.661   0.742   0.748   0.788
  1.084   1.124   1.125   1.489   2.402   2.668   2.684   2.858
  2.859   2.861   2.864   2.925   2.927   3.083   3.177   3.261
  3.275   3.379   3.389   3.743   4.127   4.128   5.202  23.395
 27.053  27.058  27.558  40.703  40.800  40.975  40.994  40.996
 
 Beta MOs
 -- Occupied --
-10.167  -0.723  -0.410
 -- Virtual --
 -0.041   0.007   0.045   0.126   0.128   0.145   0.175   0.226
  0.536   0.623   0.636   0.665   0.672   0.688   0.794   0.796
  0.819   1.099   1.128   1.149   1.498   2.413   2.698   2.750
  2.903   2.905   2.920   2.927   2.944   2.976   3.105   3.197
  3.350   3.353   3.398   3.446   3.758   4.126   4.144   5.211
 23.411  27.068  27.094  27.566  40.736  40.813  41.001  41.006
 41.024
 --------------------------------------------------------------
 
          Ground-State Mulliken Net Atomic Charges

     Atom                 Charge (a.u.)    Spin (a.u.)
  --------------------------------------------------------
      1 C                    -0.068452       1.022253
      2 H                     0.068452      -0.022253
  --------------------------------------------------------
  Sum of atomic charges =     0.000000
  Sum of spin   charges =     1.000000

 -----------------------------------------------------------------
                    Cartesian Multipole Moments
 -----------------------------------------------------------------
    Charge (ESU x 10^10)
                 0.0000
    Dipole Moment (Debye)
         X       0.0000      Y      -0.0014      Z       1.5627
       Tot       1.5627
    Quadrupole Moments (Debye-Ang)
        XX      -6.8019     XY      -1.0341     YY      -6.8011
        XZ      -0.0009     YZ       0.0019     ZZ      -7.2176
    Octapole Moments (Debye-Ang^2)
       XXX       0.0000    XXY      -0.0065    XYY      -0.0020
       YYY      -0.0194    XXZ      -0.3918    XYZ      -0.0604
       YYZ      -0.3918    XZZ      -0.0001    YZZ      -0.0074
       ZZZ      -0.5635
    Hexadecapole Moments (Debye-Ang^3)
      XXXX      -8.3242   XXXY      -1.1985   XXYY      -2.7751
      XYYY      -1.1985   YYYY      -8.3224   XXXZ      -0.0011
      XXYZ       0.0009   XYYZ      -0.0005   YYYZ       0.0026
      XXZZ      -4.1936   XYZZ      -0.4110   YYZZ      -4.1933
      XZZZ      -0.0011   YZZZ       0.0018   ZZZZ     -15.2406
 -----------------------------------------------------------------
 Calculating analytic gradient of the SCF energy
 Gradient of AOints
            1           2
    1   0.0000011  -0.0000011
    2  -0.0013296   0.0013296
    3   1.4932523  -1.4932523
 Gradient of XC Energy
            1           2
    1  -0.0000000   0.0000000
    2   0.0001343  -0.0001343
    3  -0.1508187   0.1508187
 Gradient of SCF Energy
            1           2
    1  -0.0000001   0.0000001
    2   0.0000002  -0.0000002
    3   0.0000536  -0.0000536
 Max gradient component =       5.356E-05
 RMS gradient           =       3.092E-05
 Gradient time:  CPU 1.34 s  wall 1.44 s
 Writing REM_CC_EA            2
 ----------------------------------------------------
       Standard Nuclear Orientation (Angstroms)
    I     Atom         X            Y            Z
 ----------------------------------------------------
    1      C       0.000000    -0.001000     0.004443
    2      H       0.000000     0.000000     1.128656
 ----------------------------------------------------
 Nuclear Repulsion Energy =     2.8242533166 hartrees
 There are        4 alpha and        3 beta electrons

                       Distance Matrix (Angstroms)
             C (  1)
   H (  2)  1.124213
 
 Requested basis set is G3large
 There are 16 shells and 52 basis functions
 A cutoff of  1.0D-11 yielded    136 shell pairs
 There are   1462 function pairs (  1834 Cartesian)
Evaluating contribution to one-electron hamiltonian from nuclear
 Smallest overlap matrix eigenvalue = 4.07E-03
 Multipole matrices computed through 2nd order
 Guess MOs from SCF MO coefficient file
Reading MOs from coefficient file
Reading MOs from coefficient file
 Long-range K will be added via erf
 Coulomb attenuation parameter = 0.34 bohr**(-1)
 An unrestricted Kohn-Sham SCF calculation will be
 performed using Pulay DIIS extrapolation
 Exchange:  wPBE + LR-HF      Correlation:  PBE
 Using SG-1 standard quadrature grid
 SCF converges when DIIS error is below 1.0E-08
 ---------------------------------------
  Cycle       Energy         DIIS Error
 ---------------------------------------
    1     -38.4488699374      2.32E-05
    2     -38.4488707230      6.01E-06
    3     -38.4488708124      3.24E-06
    4     -38.4488708554      1.32E-06
    5     -38.4488708647      4.68E-07
    6     -38.4488708660      1.88E-07
    7     -38.4488708663      9.48E-08
    8     -38.4488708664      3.20E-08
    9     -38.4488708664      1.38E-08
   10     -38.4488708664      7.72E-09 Convergence criterion met
 ---------------------------------------
 One-Electron    Energy =   -56.6405691014
 Total Coulomb   Energy =    20.9514509207
 Alpha Exchange  Energy =    -0.6858116710
 Beta  Exchange  Energy =    -0.5170490203
 DFT   Exchange  Energy =    -4.1965857985
 DFT Correlation Energy =    -0.1845595124
 Nuclear Repu.   Energy =     2.8242533166
 Nuclear Attr.   Energy =   -94.9706972695
 Kinetic         Energy =    38.3301281681
 <S^2> = 0.7534
 SCF time:  CPU 5.48 s  wall 6.42 s
 Final Alpha MO Eigenvalues
            1           2           3           4           5           6
    1 -10.1811551  -0.7694059  -0.4305366  -0.3698278  -0.0579836   0.0428241
            7           8           9
    1   0.1203379   0.1241428   0.1242966
 Final Beta MO Eigenvalues
            1           2           3           4           5           6
    1 -10.1671002  -0.7232240  -0.4096964  -0.0405135   0.0071416   0.0445643
            7           8
    1   0.1261771   0.1279147
 Analysis of SCF Wavefunction
 
 --------------------------------------------------------------
                    Orbital Energies (a.u.)
 --------------------------------------------------------------
 
 Alpha MOs
 -- Occupied --
-10.181  -0.769  -0.431  -0.370
 -- Virtual --
 -0.058   0.043   0.120   0.124   0.124   0.169   0.219   0.526
  0.613   0.614   0.624   0.652   0.661   0.742   0.748   0.788
  1.084   1.124   1.125   1.489   2.402   2.668   2.684   2.858
  2.859   2.861   2.864   2.925   2.927   3.083   3.177   3.261
  3.275   3.379   3.389   3.743   4.127   4.128   5.202  23.395
 27.053  27.058  27.558  40.703  40.800  40.975  40.994  40.996
 
 Beta MOs
 -- Occupied --
-10.167  -0.723  -0.410
 -- Virtual --
 -0.041   0.007   0.045   0.126   0.128   0.145   0.175   0.226
  0.536   0.623   0.636   0.665   0.672   0.688   0.794   0.796
  0.819   1.099   1.128   1.149   1.498   2.413   2.698   2.750
  2.903   2.905   2.920   2.927   2.944   2.976   3.105   3.197
  3.350   3.353   3.398   3.446   3.758   4.126   4.144   5.211
 23.411  27.068  27.094  27.566  40.736  40.813  41.001  41.006
 41.024
 --------------------------------------------------------------
 
          Ground-State Mulliken Net Atomic Charges

     Atom                 Charge (a.u.)    Spin (a.u.)
  --------------------------------------------------------
      1 C                    -0.068452       1.022253
      2 H                     0.068452      -0.022253
  --------------------------------------------------------
  Sum of atomic charges =     0.000000
  Sum of spin   charges =     1.000000

 -----------------------------------------------------------------
                    Cartesian Multipole Moments
 -----------------------------------------------------------------
    Charge (ESU x 10^10)
                 0.0000
    Dipole Moment (Debye)
         X       0.0000      Y       0.0014      Z       1.5627
       Tot       1.5627
    Quadrupole Moments (Debye-Ang)
        XX      -6.8019     XY      -1.0341     YY      -6.8011
        XZ       0.0009     YZ      -0.0020     ZZ      -7.2176
    Octapole Moments (Debye-Ang^2)
       XXX       0.0000    XXY       0.0065    XYY       0.0020
       YYY       0.0195    XXZ      -0.3918    XYZ      -0.0604
       YYZ      -0.3918    XZZ       0.0001    YZZ       0.0074
       ZZZ      -0.5635
    Hexadecapole Moments (Debye-Ang^3)
      XXXX      -8.3242   XXXY      -1.1985   XXYY      -2.7751
      XYYY      -1.1985   YYYY      -8.3224   XXXZ       0.0011
      XXYZ      -0.0009   XYYZ       0.0005   YYYZ      -0.0026
      XXZZ      -4.1936   XYZZ      -0.4110   YYZZ      -4.1933
      XZZZ       0.0011   YZZZ      -0.0018   ZZZZ     -15.2406
 -----------------------------------------------------------------
 Calculating analytic gradient of the SCF energy
 Gradient of AOints
            1           2
    1   0.0000003  -0.0000003
    2   0.0013282  -0.0013282
    3   1.4932523  -1.4932523
 Gradient of XC Energy
            1           2
    1   0.0000002  -0.0000002
    2  -0.0001345   0.0001345
    3  -0.1508187   0.1508187
 Gradient of SCF Energy
            1           2
    1   0.0000001  -0.0000001
    2  -0.0000002   0.0000002
    3   0.0000536  -0.0000536
 Max gradient component =       5.356E-05
 RMS gradient           =       3.092E-05
 Gradient time:  CPU 1.33 s  wall 1.59 s
 Writing REM_CC_EA            2
 ----------------------------------------------------
       Standard Nuclear Orientation (Angstroms)
    I     Atom         X            Y            Z
 ----------------------------------------------------
    1      C       0.000000     0.000000     0.005443
    2      H       0.000000     0.000000     1.128656
 ----------------------------------------------------
 Nuclear Repulsion Energy =     2.8267688766 hartrees
 There are        4 alpha and        3 beta electrons

                       Distance Matrix (Angstroms)
             C (  1)
   H (  2)  1.123213
 
 Requested basis set is G3large
 There are 16 shells and 52 basis functions
 A cutoff of  1.0D-11 yielded    136 shell pairs
 There are   1462 function pairs (  1834 Cartesian)
Evaluating contribution to one-electron hamiltonian from nuclear
 Smallest overlap matrix eigenvalue = 4.06E-03
 Multipole matrices computed through 2nd order
 Guess MOs from SCF MO coefficient file
Reading MOs from coefficient file
Reading MOs from coefficient file
 Long-range K will be added via erf
 Coulomb attenuation parameter = 0.34 bohr**(-1)
 An unrestricted Kohn-Sham SCF calculation will be
 performed using Pulay DIIS extrapolation
 Exchange:  wPBE + LR-HF      Correlation:  PBE
 Using SG-1 standard quadrature grid
 SCF converges when DIIS error is below 1.0E-08
 ---------------------------------------
  Cycle       Energy         DIIS Error
 ---------------------------------------
    1     -38.4490402837      5.61E-05
    2     -38.4488701752      8.91E-06
    3     -38.4488702241      2.61E-06
    4     -38.4488702329      1.24E-06
    5     -38.4488702386      6.34E-07
    6     -38.4488702403      2.67E-07
    7     -38.4488702408      8.93E-08
    8     -38.4488702409      4.27E-08
    9     -38.4488702410      1.99E-08
   10     -38.4488702411      1.30E-08
   11     -38.4488702412      1.34E-08
   12     -38.4488702411      1.36E-08
   13     -38.4488702412      1.34E-08
   14     -38.4488702413      1.46E-08
   15     -38.4488702408      1.04E-08
   16     -38.4488702405      6.67E-09 Convergence criterion met
 ---------------------------------------
 One-Electron    Energy =   -56.6451631840
 Total Coulomb   Energy =    20.9538721181
 Alpha Exchange  Energy =    -0.6858318153
 Beta  Exchange  Energy =    -0.5170708348
 DFT   Exchange  Energy =    -4.1968759216
 DFT Correlation Energy =    -0.1845694795
 Nuclear Repu.   Energy =     2.8267688766
 Nuclear Attr.   Energy =   -94.9763735756
 Kinetic         Energy =    38.3312103915
 <S^2> = 0.7534
 SCF time:  CPU 8.79 s  wall 10.12 s
 Final Alpha MO Eigenvalues
            1           2           3           4           5           6
    1 -10.1810490  -0.7696159  -0.4305559  -0.3698252  -0.0579810   0.0428185
            7           8           9
    1   0.1203388   0.1241542   0.1242974
 Final Beta MO Eigenvalues
            1           2           3           4           5           6
    1 -10.1669955  -0.7234528  -0.4096960  -0.0405097   0.0071428   0.0445569
            7           8
    1   0.1261867   0.1279158
 Analysis of SCF Wavefunction
 
 --------------------------------------------------------------
                    Orbital Energies (a.u.)
 --------------------------------------------------------------
 
 Alpha MOs
 -- Occupied --
-10.181  -0.770  -0.431  -0.370
 -- Virtual --
 -0.058   0.043   0.120   0.124   0.124   0.169   0.219   0.526
  0.613   0.614   0.624   0.652   0.661   0.742   0.748   0.788
  1.084   1.124   1.125   1.490   2.401   2.668   2.684   2.858
  2.859   2.861   2.864   2.925   2.927   3.084   3.178   3.261
  3.275   3.380   3.389   3.744   4.129   4.130   5.205  23.397
 27.053  27.058  27.558  40.703  40.801  40.975  40.994  40.997
 
 Beta MOs
 -- Occupied --
-10.167  -0.723  -0.410
 -- Virtual --
 -0.041   0.007   0.045   0.126   0.128   0.145   0.175   0.226
  0.536   0.623   0.636   0.665   0.672   0.688   0.794   0.796
  0.819   1.099   1.129   1.149   1.499   2.412   2.698   2.750
  2.903   2.905   2.920   2.927   2.944   2.976   3.105   3.198
  3.350   3.354   3.398   3.446   3.759   4.128   4.145   5.213
 23.413  27.068  27.095  27.566  40.736  40.814  41.002  41.006
 41.024
 --------------------------------------------------------------
 
          Ground-State Mulliken Net Atomic Charges

     Atom                 Charge (a.u.)    Spin (a.u.)
  --------------------------------------------------------
      1 C                    -0.068776       1.022202
      2 H                     0.068776      -0.022202
  --------------------------------------------------------
  Sum of atomic charges =     0.000000
  Sum of spin   charges =     1.000000

 -----------------------------------------------------------------
                    Cartesian Multipole Moments
 -----------------------------------------------------------------
    Charge (ESU x 10^10)
                 0.0000
    Dipole Moment (Debye)
         X       0.0000      Y       0.0000      Z       1.5643
       Tot       1.5643
    Quadrupole Moments (Debye-Ang)
        XX      -6.8010     XY      -1.0341     YY      -6.8002
        XZ       0.0000     YZ       0.0000     ZZ      -7.2141
    Octapole Moments (Debye-Ang^2)
       XXX       0.0000    XXY       0.0000    XYY       0.0000
       YYY       0.0000    XXZ      -0.3959    XYZ      -0.0615
       YYZ      -0.3958    XZZ       0.0000    YZZ       0.0000
       ZZZ      -0.5794
    Hexadecapole Moments (Debye-Ang^3)
      XXXX      -8.3236   XXXY      -1.1985   XXYY      -2.7749
      XYYY      -1.1985   YYYY      -8.3217   XXXZ       0.0000
      XXYZ       0.0000   XYYZ       0.0000   YYYZ       0.0000
      XXZZ      -4.1908   XYZZ      -0.4112   YYZZ      -4.1905
      XZZZ       0.0000   YZZZ       0.0000   ZZZZ     -15.2279
 -----------------------------------------------------------------
 Calculating analytic gradient of the SCF energy
 Gradient of AOints
            1           2
    1  -0.0000001   0.0000001
    2  -0.0000007   0.0000007
    3   1.4935328  -1.4935328
 Gradient of XC Energy
            1           2
    1   0.0000000  -0.0000000
    2   0.0000000  -0.0000000
    3  -0.1508885   0.1508885
 Gradient of SCF Energy
            1           2
    1   0.0000000  -0.0000000
    2   0.0000000  -0.0000000
    3   0.0006093  -0.0006093
 Max gradient component =       6.093E-04
 RMS gradient           =       3.518E-04
 Gradient time:  CPU 1.34 s  wall 1.41 s
 Writing REM_CC_EA            2
 ----------------------------------------------------
       Standard Nuclear Orientation (Angstroms)
    I     Atom         X            Y            Z
 ----------------------------------------------------
    1      C       0.000000     0.000000     0.003443
    2      H       0.000000     0.000000     1.128656
 ----------------------------------------------------
 Nuclear Repulsion Energy =     2.8217444606 hartrees
 There are        4 alpha and        3 beta electrons

                       Distance Matrix (Angstroms)
             C (  1)
   H (  2)  1.125213
 
 Requested basis set is G3large
 There are 16 shells and 52 basis functions
 A cutoff of  1.0D-11 yielded    136 shell pairs
 There are   1462 function pairs (  1834 Cartesian)
Evaluating contribution to one-electron hamiltonian from nuclear
 Smallest overlap matrix eigenvalue = 4.08E-03
 Multipole matrices computed through 2nd order
 Guess MOs from SCF MO coefficient file
Reading MOs from coefficient file
Reading MOs from coefficient file
 Long-range K will be added via erf
 Coulomb attenuation parameter = 0.34 bohr**(-1)
 An unrestricted Kohn-Sham SCF calculation will be
 performed using Pulay DIIS extrapolation
 Exchange:  wPBE + LR-HF      Correlation:  PBE
 Using SG-1 standard quadrature grid
 SCF converges when DIIS error is below 1.0E-08
 ---------------------------------------
  Cycle       Energy         DIIS Error
 ---------------------------------------
    1     -38.4485321731      1.10E-04
    2     -38.4488703270      1.68E-05
    3     -38.4488704396      3.85E-06
    4     -38.4488704449      8.42E-07
    5     -38.4488704456      3.15E-07
    6     -38.4488704457      5.21E-08
    7     -38.4488704457      7.09E-09 Convergence criterion met
 ---------------------------------------
 One-Electron    Energy =   -56.6359846977
 Total Coulomb   Energy =    20.9490344485
 Alpha Exchange  Energy =    -0.6857915118
 Beta  Exchange  Energy =    -0.5170272396
 DFT   Exchange  Energy =    -4.1962963675
 DFT Correlation Energy =    -0.1845495382
 Nuclear Repu.   Energy =     2.8217444606
 Nuclear Attr.   Energy =   -94.9650345707
 Kinetic         Energy =    38.3290498730
 <S^2> = 0.7534
 SCF time:  CPU 3.83 s  wall 4.26 s
 Final Alpha MO Eigenvalues
            1           2           3           4           5           6
    1 -10.1812612  -0.7691966  -0.4305173  -0.3698306  -0.0579864   0.0428296
            7           8           9
    1   0.1203371   0.1241314   0.1242957
 Final Beta MO Eigenvalues
            1           2           3           4           5           6
    1 -10.1672049  -0.7229959  -0.4096968  -0.0405173   0.0071403   0.0445715
            7           8
    1   0.1261674   0.1279135
 Analysis of SCF Wavefunction
 
 --------------------------------------------------------------
                    Orbital Energies (a.u.)
 --------------------------------------------------------------
 
 Alpha MOs
 -- Occupied --
-10.181  -0.769  -0.431  -0.370
 -- Virtual --
 -0.058   0.043   0.120   0.124   0.124   0.169   0.219   0.525
  0.613   0.614   0.624   0.652   0.661   0.742   0.748   0.788
  1.084   1.124   1.125   1.488   2.403   2.668   2.684   2.858
  2.859   2.861   2.864   2.925   2.927   3.083   3.177   3.261
  3.275   3.379   3.389   3.742   4.126   4.127   5.200  23.393
 27.053  27.058  27.557  40.703  40.799  40.975  40.994  40.996
 
 Beta MOs
 -- Occupied --
-10.167  -0.723  -0.410
 -- Virtual --
 -0.041   0.007   0.045   0.126   0.128   0.145   0.175   0.226
  0.536   0.623   0.635   0.664   0.672   0.688   0.794   0.796
  0.819   1.098   1.128   1.149   1.498   2.414   2.698   2.750
  2.903   2.905   2.920   2.927   2.944   2.976   3.104   3.196
  3.350   3.353   3.398   3.446   3.757   4.125   4.142   5.208
 23.409  27.068  27.094  27.565  40.736  40.812  41.001  41.006
 41.024
 --------------------------------------------------------------
 
          Ground-State Mulliken Net Atomic Charges

     Atom                 Charge (a.u.)    Spin (a.u.)
  --------------------------------------------------------
      1 C                    -0.068130       1.022303
      2 H                     0.068130      -0.022303
  --------------------------------------------------------
  Sum of atomic charges =     0.000000
  Sum of spin   charges =     1.000000

 -----------------------------------------------------------------
                    Cartesian Multipole Moments
 -----------------------------------------------------------------
    Charge (ESU x 10^10)
                 0.0000
    Dipole Moment (Debye)
         X       0.0000      Y       0.0000      Z       1.5610
       Tot       1.5610
    Quadrupole Moments (Debye-Ang)
        XX      -6.8028     XY      -1.0340     YY      -6.8020
        XZ       0.0000     YZ       0.0000     ZZ      -7.2210
    Octapole Moments (Debye-Ang^2)
       XXX       0.0000    XXY       0.0000    XYY       0.0000
       YYY       0.0000    XXZ      -0.3878    XYZ      -0.0593
       YYZ      -0.3877    XZZ       0.0000    YZZ       0.0000
       ZZZ      -0.5475
    Hexadecapole Moments (Debye-Ang^3)
      XXXX      -8.3249   XXXY      -1.1984   XXYY      -2.7753
      XYYY      -1.1984   YYYY      -8.3230   XXXZ       0.0000
      XXYZ       0.0000   XYYZ       0.0000   YYYZ       0.0000
      XXZZ      -4.1965   XYZZ      -0.4109   YYZZ      -4.1961
      XZZZ       0.0000   YZZZ       0.0000   ZZZZ     -15.2535
 -----------------------------------------------------------------
 Calculating analytic gradient of the SCF energy
 Gradient of AOints
            1           2
    1   0.0000001  -0.0000001
    2  -0.0000002   0.0000002
    3   1.4929714  -1.4929714
 Gradient of XC Energy
            1           2
    1   0.0000000  -0.0000000
    2  -0.0000000   0.0000000
    3  -0.1507488   0.1507488
 Gradient of SCF Energy
            1           2
    1   0.0000000  -0.0000000
    2  -0.0000000   0.0000000
    3  -0.0004985   0.0004985
 Max gradient component =       4.985E-04
 RMS gradient           =       2.878E-04
 Gradient time:  CPU 1.35 s  wall 1.42 s
 Writing REM_CC_EA            2
 ----------------------------------------------------
       Standard Nuclear Orientation (Angstroms)
    I     Atom         X            Y            Z
 ----------------------------------------------------
    1      C       0.000000     0.000000     0.004443
    2      H       0.001000     0.000000     1.128656
 ----------------------------------------------------
 Nuclear Repulsion Energy =     2.8242533166 hartrees
 There are        4 alpha and        3 beta electrons

                       Distance Matrix (Angstroms)
             C (  1)
   H (  2)  1.124213
 
 Requested basis set is G3large
 There are 16 shells and 52 basis functions
 A cutoff of  1.0D-11 yielded    136 shell pairs
 There are   1462 function pairs (  1834 Cartesian)
Evaluating contribution to one-electron hamiltonian from nuclear
 Smallest overlap matrix eigenvalue = 4.07E-03
 Multipole matrices computed through 2nd order
 Guess MOs from SCF MO coefficient file
Reading MOs from coefficient file
Reading MOs from coefficient file
 Long-range K will be added via erf
 Coulomb attenuation parameter = 0.34 bohr**(-1)
 An unrestricted Kohn-Sham SCF calculation will be
 performed using Pulay DIIS extrapolation
 Exchange:  wPBE + LR-HF      Correlation:  PBE
 Using SG-1 standard quadrature grid
 SCF converges when DIIS error is below 1.0E-08
 ---------------------------------------
  Cycle       Energy         DIIS Error
 ---------------------------------------
    1     -38.4490415842      5.60E-05
    2     -38.4488708008      8.90E-06
    3     -38.4488708495      2.61E-06
    4     -38.4488708584      1.24E-06
    5     -38.4488708640      6.34E-07
    6     -38.4488708657      2.67E-07
    7     -38.4488708661      8.87E-08
    8     -38.4488708662      4.04E-08
    9     -38.4488708662      1.52E-08
   10     -38.4488708662      5.36E-09 Convergence criterion met
 ---------------------------------------
 One-Electron    Energy =   -56.6405690432
 Total Coulomb   Energy =    20.9514508530
 Alpha Exchange  Energy =    -0.6858116720
 Beta  Exchange  Energy =    -0.5170490190
 DFT   Exchange  Energy =    -4.1965857893
 DFT Correlation Energy =    -0.1845595124
 Nuclear Repu.   Energy =     2.8242533166
 Nuclear Attr.   Energy =   -94.9706971272
 Kinetic         Energy =    38.3301280841
 <S^2> = 0.7534
 SCF time:  CPU 5.46 s  wall 6.33 s
 Final Alpha MO Eigenvalues
            1           2           3           4           5           6
    1 -10.1811552  -0.7694059  -0.4305366  -0.3698279  -0.0579836   0.0428240
            7           8           9
    1   0.1203379   0.1241428   0.1242965
 Final Beta MO Eigenvalues
            1           2           3           4           5           6
    1 -10.1671003  -0.7232240  -0.4096964  -0.0405135   0.0071416   0.0445643
            7           8
    1   0.1261771   0.1279147
 Analysis of SCF Wavefunction
 
 --------------------------------------------------------------
                    Orbital Energies (a.u.)
 --------------------------------------------------------------
 
 Alpha MOs
 -- Occupied --
-10.181  -0.769  -0.431  -0.370
 -- Virtual --
 -0.058   0.043   0.120   0.124   0.124   0.169   0.219   0.526
  0.613   0.614   0.624   0.652   0.661   0.742   0.748   0.788
  1.084   1.124   1.125   1.489   2.402   2.668   2.684   2.858
  2.859   2.861   2.864   2.925   2.927   3.083   3.177   3.261
[...]
 23.411  27.068  27.094  27.566  40.736  40.813  41.001  41.006
 41.024
 --------------------------------------------------------------
 
          Ground-State Mulliken Net Atomic Charges

     Atom                 Charge (a.u.)    Spin (a.u.)
  --------------------------------------------------------
      1 C                    -0.068452       1.022253
      2 H                     0.068452      -0.022253
  --------------------------------------------------------
  Sum of atomic charges =     0.000000
  Sum of spin   charges =     1.000000

 -----------------------------------------------------------------
                    Cartesian Multipole Moments
 -----------------------------------------------------------------
    Charge (ESU x 10^10)
                 0.0000
    Dipole Moment (Debye)
         X       0.0000      Y      -0.0014      Z       1.5627
       Tot       1.5627
    Quadrupole Moments (Debye-Ang)
        XX      -6.8019     XY      -1.0341     YY      -6.8011
        XZ      -0.0009     YZ       0.0004     ZZ      -7.2176
    Octapole Moments (Debye-Ang^2)
       XXX       0.0000    XXY       0.0003    XYY       0.0001
       YYY       0.0010    XXZ      -0.3918    XYZ      -0.0604
       YYZ      -0.3918    XZZ      -0.0001    YZZ      -0.0002
       ZZZ      -0.5635
    Hexadecapole Moments (Debye-Ang^3)
      XXXX      -8.3242   XXXY      -1.1985   XXYY      -2.7751
      XYYY      -1.1985   YYYY      -8.3224   XXXZ      -0.0011
      XXYZ       0.0013   XYYZ      -0.0003   YYYZ       0.0038
      XXZZ      -4.1936   XYZZ      -0.4110   YYZZ      -4.1933
      XZZZ      -0.0011   YZZZ       0.0023   ZZZZ     -15.2406
 -----------------------------------------------------------------
 Calculating analytic gradient of the SCF energy
 Gradient of AOints
            1           2
    1   0.0000014  -0.0000014
    2  -0.0013301   0.0013301
    3   1.4932523  -1.4932523
 Gradient of XC Energy
            1           2
    1  -0.0000001   0.0000001
    2   0.0001344  -0.0001344
    3  -0.1508187   0.1508187
 Gradient of SCF Energy
            1           2
    1  -0.0000001   0.0000001
    2   0.0000003  -0.0000003
    3   0.0000536  -0.0000536
 Max gradient component =       5.356E-05
 RMS gradient           =       3.092E-05
 Gradient time:  CPU 1.37 s  wall 1.54 s
 Writing REM_CC_EA            2
 ----------------------------------------------------
       Standard Nuclear Orientation (Angstroms)
    I     Atom         X            Y            Z
 ----------------------------------------------------
    1      C       0.000000     0.000000     0.004443
    2      H       0.000000     0.000000     1.129656
 ----------------------------------------------------
 Nuclear Repulsion Energy =     2.8217444606 hartrees
 There are        4 alpha and        3 beta electrons

                       Distance Matrix (Angstroms)
             C (  1)
   H (  2)  1.125213
 
 Requested basis set is G3large
 There are 16 shells and 52 basis functions
 A cutoff of  1.0D-11 yielded    136 shell pairs
 There are   1462 function pairs (  1834 Cartesian)
Evaluating contribution to one-electron hamiltonian from nuclear
 Smallest overlap matrix eigenvalue = 4.08E-03
 Multipole matrices computed through 2nd order
 Guess MOs from SCF MO coefficient file
Reading MOs from coefficient file
Reading MOs from coefficient file
 Long-range K will be added via erf
 Coulomb attenuation parameter = 0.34 bohr**(-1)
 An unrestricted Kohn-Sham SCF calculation will be
 performed using Pulay DIIS extrapolation
 Exchange:  wPBE + LR-HF      Correlation:  PBE
 Using SG-1 standard quadrature grid
 SCF converges when DIIS error is below 1.0E-08
 ---------------------------------------
  Cycle       Energy         DIIS Error
 ---------------------------------------
    1     -38.4487002449      5.60E-05
    2     -38.4488703804      8.91E-06
    3     -38.4488704292      2.61E-06
    4     -38.4488704381      1.24E-06
    5     -38.4488704436      6.36E-07
    6     -38.4488704454      2.69E-07
    7     -38.4488704458      8.88E-08
    8     -38.4488704459      3.94E-08
    9     -38.4488704459      1.47E-08
   10     -38.4488704460      8.01E-09 Convergence criterion met
 ---------------------------------------
 One-Electron    Energy =   -56.6359847831
 Total Coulomb   Energy =    20.9490345665
 Alpha Exchange  Energy =    -0.6857915373
 Beta  Exchange  Energy =    -0.5170272186
 DFT   Exchange  Energy =    -4.1962963966
 DFT Correlation Energy =    -0.1845495374
 Nuclear Repu.   Energy =     2.8217444606
 Nuclear Attr.   Energy =   -94.9650347304
 Kinetic         Energy =    38.3290499473
 <S^2> = 0.7534
 SCF time:  CPU 5.49 s  wall 6.41 s
 Final Alpha MO Eigenvalues
            1           2           3           4           5           6
    1 -10.1812612  -0.7691966  -0.4305173  -0.3698306  -0.0579863   0.0428296
            7           8           9
    1   0.1203371   0.1241314   0.1242957
 Final Beta MO Eigenvalues
            1           2           3           4           5           6
    1 -10.1672048  -0.7229959  -0.4096968  -0.0405173   0.0071403   0.0445715
            7           8
    1   0.1261674   0.1279135
 Analysis of SCF Wavefunction
 
 --------------------------------------------------------------
                    Orbital Energies (a.u.)
 --------------------------------------------------------------
 
 Alpha MOs
 -- Occupied --
-10.181  -0.769  -0.431  -0.370
 -- Virtual --
 -0.058   0.043   0.120   0.124   0.124   0.169   0.219   0.525
  0.613   0.614   0.624   0.652   0.661   0.742   0.748   0.788
  1.084   1.124   1.125   1.488   2.403   2.668   2.684   2.858
  2.859   2.861   2.864   2.925   2.927   3.083   3.177   3.261
  3.275   3.379   3.389   3.742   4.126   4.127   5.200  23.393
 27.053  27.058  27.557  40.703  40.799  40.975  40.994  40.996
 
 Beta MOs
 -- Occupied --
-10.167  -0.723  -0.410
 -- Virtual --
 -0.041   0.007   0.045   0.126   0.128   0.145   0.175   0.226
  0.536   0.623   0.635   0.664   0.672   0.688   0.794   0.796
  0.819   1.098   1.128   1.149   1.498   2.414   2.698   2.750
  2.903   2.905   2.920   2.927   2.944   2.976   3.104   3.196
  3.350   3.353   3.398   3.446   3.757   4.125   4.142   5.208
 23.409  27.068  27.094  27.565  40.736  40.812  41.001  41.006
 41.024
 --------------------------------------------------------------
 
          Ground-State Mulliken Net Atomic Charges

     Atom                 Charge (a.u.)    Spin (a.u.)
  --------------------------------------------------------
      1 C                    -0.068130       1.022304
      2 H                     0.068130      -0.022304
  --------------------------------------------------------
  Sum of atomic charges =     0.000000
  Sum of spin   charges =     1.000000

 -----------------------------------------------------------------
                    Cartesian Multipole Moments
 -----------------------------------------------------------------
    Charge (ESU x 10^10)
                 0.0000
    Dipole Moment (Debye)
         X       0.0000      Y       0.0000      Z       1.5610
       Tot       1.5610
    Quadrupole Moments (Debye-Ang)
        XX      -6.8028     XY      -1.0340     YY      -6.8020
        XZ       0.0000     YZ       0.0000     ZZ      -7.2179
    Octapole Moments (Debye-Ang^2)
       XXX       0.0000    XXY       0.0000    XYY       0.0000
       YYY       0.0000    XXZ      -0.3946    XYZ      -0.0603
       YYZ      -0.3945    XZZ       0.0000    YZZ       0.0000
       ZZZ      -0.5692
    Hexadecapole Moments (Debye-Ang^3)
      XXXX      -8.3249   XXXY      -1.1984   XXYY      -2.7753
      XYYY      -1.1984   YYYY      -8.3230   XXXZ       0.0000
      XXYZ       0.0000   XYYZ       0.0000   YYYZ       0.0000
      XXZZ      -4.1972   XYZZ      -0.4110   YYZZ      -4.1969
      XZZZ       0.0000   YZZZ       0.0000   ZZZZ     -15.2557
 -----------------------------------------------------------------
 Calculating analytic gradient of the SCF energy
 Gradient of AOints
            1           2
    1   0.0000013  -0.0000013
    2  -0.0000007   0.0000007
    3   1.4929713  -1.4929713
 Gradient of XC Energy
            1           2
    1   0.0000001  -0.0000001
    2  -0.0000001   0.0000001
    3  -0.1507488   0.1507488
 Gradient of SCF Energy
            1           2
    1  -0.0000000   0.0000000
    2  -0.0000000   0.0000000
    3  -0.0004985   0.0004985
 Max gradient component =       4.985E-04
 RMS gradient           =       2.878E-04
 Gradient time:  CPU 1.34 s  wall 1.46 s
 Writing REM_CC_EA            2
 ----------------------------------------------------
       Standard Nuclear Orientation (Angstroms)
    I     Atom         X            Y            Z
 ----------------------------------------------------
    1      C       0.000000     0.000000     0.004443
    2      H       0.000000     0.000000     1.127656
 ----------------------------------------------------
 Nuclear Repulsion Energy =     2.8267688766 hartrees
 There are        4 alpha and        3 beta electrons

                       Distance Matrix (Angstroms)
             C (  1)
   H (  2)  1.123213
 
 Requested basis set is G3large
 There are 16 shells and 52 basis functions
 A cutoff of  1.0D-11 yielded    136 shell pairs
 There are   1462 function pairs (  1834 Cartesian)
Evaluating contribution to one-electron hamiltonian from nuclear
 Smallest overlap matrix eigenvalue = 4.06E-03
 Multipole matrices computed through 2nd order
 Guess MOs from SCF MO coefficient file
Reading MOs from coefficient file
Reading MOs from coefficient file
 Long-range K will be added via erf
 Coulomb attenuation parameter = 0.34 bohr**(-1)
 An unrestricted Kohn-Sham SCF calculation will be
 performed using Pulay DIIS extrapolation
 Exchange:  wPBE + LR-HF      Correlation:  PBE
 Using SG-1 standard quadrature grid
 SCF converges when DIIS error is below 1.0E-08
 ---------------------------------------
  Cycle       Energy         DIIS Error
 ---------------------------------------
    1     -38.4492124488      1.10E-04
    2     -38.4488701221      1.68E-05
    3     -38.4488702346      3.85E-06
    4     -38.4488702398      8.40E-07
    5     -38.4488702406      3.14E-07
    6     -38.4488702407      5.28E-08
    7     -38.4488702407      1.18E-08
    8     -38.4488702408      9.97E-09 Convergence criterion met
 ---------------------------------------
 One-Electron    Energy =   -56.6451631949
 Total Coulomb   Energy =    20.9538721365
 Alpha Exchange  Energy =    -0.6858318298
 Beta  Exchange  Energy =    -0.5170708208
 DFT   Exchange  Energy =    -4.1968759308
 DFT Correlation Energy =    -0.1845694777
 Nuclear Repu.   Energy =     2.8267688766
 Nuclear Attr.   Energy =   -94.9763735824
 Kinetic         Energy =    38.3312103875
 <S^2> = 0.7534
 SCF time:  CPU 4.37 s  wall 5.58 s
 Final Alpha MO Eigenvalues
            1           2           3           4           5           6
    1 -10.1810490  -0.7696159  -0.4305559  -0.3698252  -0.0579810   0.0428185
            7           8           9
    1   0.1203388   0.1241542   0.1242974
 Final Beta MO Eigenvalues
            1           2           3           4           5           6
    1 -10.1669955  -0.7234527  -0.4096960  -0.0405097   0.0071428   0.0445569
            7           8
    1   0.1261866   0.1279158
 Analysis of SCF Wavefunction
 
 --------------------------------------------------------------
                    Orbital Energies (a.u.)
 --------------------------------------------------------------
 
 Alpha MOs
 -- Occupied --
-10.181  -0.770  -0.431  -0.370
 -- Virtual --
 -0.058   0.043   0.120   0.124   0.124   0.169   0.219   0.526
  0.613   0.614   0.624   0.652   0.661   0.742   0.748   0.788
  1.084   1.124   1.125   1.490   2.401   2.668   2.684   2.858
  2.859   2.861   2.864   2.925   2.927   3.084   3.178   3.261
  3.275   3.380   3.389   3.744   4.129   4.130   5.205  23.397
 27.053  27.058  27.558  40.703  40.801  40.975  40.994  40.997
 
 Beta MOs
 -- Occupied --
-10.167  -0.723  -0.410
 -- Virtual --
 -0.041   0.007   0.045   0.126   0.128   0.145   0.175   0.226
  0.536   0.623   0.636   0.665   0.672   0.688   0.794   0.796
  0.819   1.099   1.129   1.149   1.499   2.412   2.698   2.750
  2.903   2.905   2.920   2.927   2.944   2.976   3.105   3.198
  3.350   3.354   3.398   3.446   3.759   4.128   4.145   5.213
 23.413  27.068  27.095  27.566  40.736  40.814  41.002  41.006
 41.024
 --------------------------------------------------------------
 
          Ground-State Mulliken Net Atomic Charges

     Atom                 Charge (a.u.)    Spin (a.u.)
  --------------------------------------------------------
      1 C                    -0.068776       1.022203
      2 H                     0.068776      -0.022203
  --------------------------------------------------------
  Sum of atomic charges =     0.000000
  Sum of spin   charges =     1.000000

 -----------------------------------------------------------------
                    Cartesian Multipole Moments
 -----------------------------------------------------------------
    Charge (ESU x 10^10)
                 0.0000
    Dipole Moment (Debye)
         X       0.0000      Y       0.0000      Z       1.5643
       Tot       1.5643
    Quadrupole Moments (Debye-Ang)
        XX      -6.8010     XY      -1.0341     YY      -6.8002
        XZ       0.0000     YZ       0.0000     ZZ      -7.2172
    Octapole Moments (Debye-Ang^2)
       XXX       0.0000    XXY       0.0000    XYY       0.0000
       YYY       0.0000    XXZ      -0.3891    XYZ      -0.0604
       YYZ      -0.3890    XZZ       0.0000    YZZ       0.0000
       ZZZ      -0.5577
    Hexadecapole Moments (Debye-Ang^3)
      XXXX      -8.3236   XXXY      -1.1985   XXYY      -2.7749
      XYYY      -1.1985   YYYY      -8.3217   XXXZ       0.0000
      XXYZ       0.0000   XYYZ       0.0000   YYYZ       0.0000
      XXZZ      -4.1900   XYZZ      -0.4110   YYZZ      -4.1897
      XZZZ       0.0000   YZZZ       0.0000   ZZZZ     -15.2256
 -----------------------------------------------------------------
 Calculating analytic gradient of the SCF energy
 Gradient of AOints
            1           2
    1   0.0000008  -0.0000008
    2  -0.0000008   0.0000008
    3   1.4935328  -1.4935328
 Gradient of XC Energy
            1           2
    1   0.0000001  -0.0000001
    2  -0.0000001   0.0000001
    3  -0.1508885   0.1508885
 Gradient of SCF Energy
            1           2
    1   0.0000000  -0.0000000
    2  -0.0000000   0.0000000
    3   0.0006093  -0.0006093
 Max gradient component =       6.093E-04
 RMS gradient           =       3.518E-04
 Gradient time:  CPU 1.37 s  wall 1.45 s
Dipole drv :
gprntSymmMtrx error report: 
 Final Hessian.
            1           2           3           4           5           6
    1   0.0001212  -0.0000604   0.0000012  -0.0001222   0.0000667  -0.0000069
    2  -0.0000604   0.0001202   0.0000055   0.0000604  -0.0001289   0.0000026
    3   0.0000012   0.0000055   0.2931126  -0.0000019  -0.0000049  -0.2931122
    4  -0.0001222   0.0000604  -0.0000019   0.0001233  -0.0000667   0.0000075
    5   0.0000667  -0.0001289  -0.0000049  -0.0000667   0.0001376  -0.0000032
    6  -0.0000069   0.0000026  -0.2931122   0.0000075  -0.0000032   0.2931117
 Writing REM_CC_EA            2
 ----------------------------------------------------
       Standard Nuclear Orientation (Angstroms)
    I     Atom         X            Y            Z
 ----------------------------------------------------
    1      C       0.000000     0.000000     0.004443
    2      H       0.000000     0.000000     1.128656
 ----------------------------------------------------
 Nuclear Repulsion Energy =     2.8242544339 hartrees
 There are        4 alpha and        3 beta electrons
 old dipole drv.
            1           2           3           4           5           6
    1  -0.2883494   0.0003130   0.0001648   0.2891691   0.0000000   0.0005121
    2  -0.0008930  -0.2894354  -0.0000089   0.0000708   0.2890311  -0.0005153
    3   0.0000052  -0.0000014   0.3457370   0.0000150  -0.0000068  -0.3457478
 New transposed dipole drv.
            1           2           3
    1  -0.2883494  -0.0008930   0.0000052
    2   0.0003130  -0.2894354  -0.0000014
    3   0.0001648  -0.0000089   0.3457370
    4   0.2891691   0.0000708   0.0000150
    5   0.0000000   0.2890311  -0.0000068
    6   0.0005121  -0.0005153  -0.3457478
FINAL TENSOR RESULT:
Order 2, Length 6
Order 1, Length 6
   0.0001212  -0.0000604   0.0000012  -0.0001222   0.0000667  -0.0000069
Order 1, Length 6
  -0.0000604   0.0001202   0.0000055   0.0000604  -0.0001289   0.0000026
Order 1, Length 6
   0.0000012   0.0000055   0.2931126  -0.0000019  -0.0000049  -0.2931122
Order 1, Length 6
  -0.0001222   0.0000604  -0.0000019   0.0001233  -0.0000667   0.0000075
Order 1, Length 6
   0.0000667  -0.0001289  -0.0000049  -0.0000667   0.0001376  -0.0000032
Order 1, Length 6
  -0.0000069   0.0000026  -0.2931122   0.0000075  -0.0000032   0.2931117


 # Finishing finite difference calculation for IDERIV #
 ######################################################
 ######################################################
 Requested basis set is G3large
 There are 16 shells and 52 basis functions
 **********************************************************************
 **                                                                  **
 **                       VIBRATIONAL ANALYSIS                       **
 **                       --------------------                       **
 **                                                                  **
 **        VIBRATIONAL FREQUENCIES (CM**-1) AND NORMAL MODES         **
 **     FORCE CONSTANTS (mDYN/ANGSTROM) AND REDUCED MASSES (AMU)     **
 **                  INFRARED INTENSITIES (KM/MOL)                   **
 **                                                                  **
 **********************************************************************
 

 Mode:                 1
 Frequency:      2886.29
 Force Cnst:      5.3246
 Red. Mass:       1.0848
 IR Active:          YES
 IR Intens:      125.376
 Raman Active:       YES
               X      Y      Z
 C          0.000  0.000 -0.084
 H          0.000  0.000  0.996
 TransDip   0.000  0.000 -0.359

 STANDARD THERMODYNAMIC QUANTITIES AT   298.18 K  AND     1.00 ATM

   This Molecule has  0 Imaginary Frequencies
   Zero point vibrational energy:        4.126 kcal/mol

   Atom    1 Element C  Has Mass   12.00000
   Atom    2 Element H  Has Mass    1.00783
   Molecular Mass:    13.007830 amu
   Principal axes and moments of inertia in atomic units:
                             1           2           3
    Eigenvalues --        0.00000     4.19622     4.19622
          X               0.00000     0.00000     1.00000
          Y               0.00000     1.00000     0.00000
          Z               1.00000     0.00000     0.00000
   Rotational Symmetry Number is   1
   The Molecule is a Symmetric Top
   Translational Enthalpy:        0.889 kcal/mol
   Rotational Enthalpy:           0.889 kcal/mol
   Vibrational Enthalpy:          4.126 kcal/mol
   gas constant (RT):             0.593 kcal/mol
   Translational Entropy:        33.639  cal/mol.K
   Rotational Entropy:          -42.776  cal/mol.K
   Vibrational Entropy:           0.000  cal/mol.K

   Total Enthalpy:                6.496 kcal/mol
   Total Entropy:                -9.137  cal/mol.K
 Total job time:  99.29s(wall), 85.42s(cpu) 
 Wed May  1 12:17:17 2013

        *************************************************************
        *                                                           *
        *  Thank you very much for using Q-Chem.  Have a nice day.  *
        *                                                           *
        *************************************************************


0 sent ACK to 0 
now end server 0 ... 
