Process 0 of 1 is on cl247.stfx.acenet.ca - thread support 1
initial socket setup ...start
initial socket setup ...done 
now start server 0 ... 

cmd = /usr/bin/ssh clhead /usr/local/qchem/bin/get_hostid 65457306 > /scratch/tmp/4506659.1.long.q/qchem3724/lic.dat
                  Welcome to Q-Chem
     A Quantum Leap Into The Future Of Chemistry

 Y. Shao, L. Fusti-Molnar, Y. Jung, J. Kussmann, C. Ochsenfeld,
 S. T. Brown, A. T. B. Gilbert, L. V. Slipchenko,S. V. Levchenko,
 D. P. O'Neill, R. A. DiStasio Jr., R. C. Lochan, T. Wang,
 G. J. O. Beran, N. A. Besley, J. M. Herbert, C. Y. Lin,
 T. Van Voorhis, S. H. Chien, A. Sodt, R. P. Steele, 
 V. A. Rassolov, P. E. Maslen, P. P. Korambath, R. D. Adamson,
 B. Austin, J. Baker, E. F. C. Byrd, H. Dachsel, R. J. Doerksen,
 A. Dreuw, B. D. Dunietz, A. D. Dutoi, T. R. Furlani,
 S. R. Gwaltney, A. Heyden, S. Hirata, C.-P. Hsu, G. Kedziora,
 R. Z. Khaliullin, P. Klunzinger, A. M. Lee, M. S. Lee, W. Liang,
 I. Lotan, N. Nair, B. Peters, E. I. Proynov, P. A. Pieniazek, 
 Y. M. Rhee, J. Ritchie, E. Rosta, C. D. Sherrill, 
 A. C. Simmonett, J. E. Subotnik, H. L. Woodcock III,
 W. Zhang, A. T. Bell, A. K. Chakraborty, D. M. Chipman,
 F. J. Keil, A. Warshel, W. J. Hehre, H. F. Schaefer III,
 J. Kong, A. I. Krylov, P. M. W. Gill, M. Head-Gordon,
 Q-Chem, Version 3.1, Q-Chem, Inc., Pittsburgh, PA (2007).

 Additional authors for Version 3.1: 
 Z. Gan, Y. Zhao, N. E. Schultz, D. Truhlar, E. Epifanovsky and M. Oana.

 Additional authors for Version 3.2: 
 R. Baer, B. R. Brooks, D. Casanova, J.-D. Chai, C.-L. Cheng, 
 C. Cramer, D. Crittenden, A. Ghysels, G. Hawkins, E. G. Hohenstein, 
 C. Kelley, W. Kurlancheek, D. Liotard, E. Livshits, P. Manohar, 
 A. Marenich, D. Neuhauser, R. Olson, M. A. Rohrdanz, K. S. Thanthiriwatte, 
 A. J. W. Thom, V. Vanovschi, C. F. Williams, Q. Wu and Z.-Q. You. 


 Intel X86 Linux Version

 Q-chem begins on Sun Apr 24 03:32:06 2011  

 Parallel job on  1  processors
Processing $rem in /usr/local/qchem/config/preferences.

theFileMan(): MAXOPENFILES=974 MAX_SUB_FILE_NUM=16
Maximum size of a physical file is 2.0 GB, maximum size of a tmp-file is 32.0 GB


--------------------------------------------------------------
User input:
--------------------------------------------------------------

$molecule
0,1
C,0.0705120458,-1.4573954415,0.8284820118
C,0.0706032755,0.0699899665,0.8296505525
S,-0.0772163303,0.6847564096,-0.9073116523
H,-0.0525448241,2.0037488688,-0.6173179623
H,-0.7704122641,0.4525580601,1.4153010181
H,0.9984824652,0.4525675725,1.2647672455
H,0.1578428518,-1.8317736624,1.8546666253
H,-0.8561325083,-1.8543900243,0.4006016721
H,0.9115336364,-1.8543805185,0.2501724526

$end

$comment
neutral
$end

$xc_functional
   X HF 1.0
   X BNL 1.0
   C LYP 1.0
$end

$rem
SYMMETRY_DECOMPOSITION	0
exchange 		general
BASIS                   g3large
omega			370 
JOBTYPE                 opt
separate_jk		true
mem_static              760
max_scf_cycles          200
scf_final_print         1
sym_ignore              true
$end


--------------------------------------------------------------
 Writing REM_CC_EA            9
 ----------------------------------------------------
       Standard Nuclear Orientation (Angstroms)
    I     Atom         X            Y            Z
 ----------------------------------------------------
    1      C       0.070512    -1.457395     0.828482
    2      C       0.070603     0.069990     0.829651
    3      S      -0.077216     0.684756    -0.907312
    4      H      -0.052545     2.003749    -0.617318
    5      H      -0.770412     0.452558     1.415301
    6      H       0.998482     0.452568     1.264767
    7      H       0.157843    -1.831774     1.854667
    8      H      -0.856133    -1.854390     0.400602
    9      H       0.911534    -1.854381     0.250172
 ----------------------------------------------------
 Nuclear Repulsion Energy =   106.6838605976 hartrees
 There are       17 alpha and       17 beta electrons
 Requested basis set is G3large
 There are 75 shells and 210 basis functions

Total QAlloc Memory Limit   2000 MB
Mega-Array Size       743 MB
MEM_STATIC part       760 MB
 A cutoff of  1.0D-11 yielded   2720 shell pairs
 There are  21431 function pairs ( 26919 Cartesian)
Evaluating contribution to one-electron hamiltonian from nuclear
 Smallest overlap matrix eigenvalue = 7.25E-05
 Multipole matrices computed through 2nd order

  Scale SEOQF with 1.000000e-01/1.000000e-01/1.000000e-01

 Standard Electronic Orientation quadrupole field applied
 Nucleus-field energy     =    -0.0000000005 hartrees
 Guess from superposition of atomic densities
 Warning:  Energy on first SCF cycle will be non-variational
 A restricted hybrid HF-DFT SCF calculation will be
 performed using Pulay DIIS extrapolation
 Exchange:     1.0000 Hartree-Fock + 1.0000 BNL
 Correlation:  1.0000 LYP
 Using SG-1 standard quadrature grid
 SCF converges when DIIS error is below 1.0E-08
 ---------------------------------------
  Cycle       Energy         DIIS Error
 ---------------------------------------
    1    -475.7936063774      2.79E-02
    2    -475.2394752700      2.40E-03
    3    -475.2673812918      1.46E-03
    4    -475.2778777045      2.87E-04
    5    -475.2784966381      8.26E-05
    6    -475.2785753290      3.90E-05
    7    -475.2785924355      1.33E-05
    8    -475.2785965684      5.76E-06
    9    -475.2785974648      2.04E-06
   10    -475.2785975532      5.95E-07
   11    -475.2785975642      1.49E-07
   12    -475.2785975669      3.29E-08
   13    -475.2785975702      9.60E-09 Convergence criterion met
 ---------------------------------------
 One-Electron    Energy =  -867.6394440869
 Total Coulomb   Energy =   321.5403423792
 Alpha Exchange  Energy =    -3.1967841368
 Beta  Exchange  Energy =    -3.1967841368
 DFT   Exchange  Energy =   -28.2518472466
 DFT Correlation Energy =    -1.2179409394
 Nuclear Repu.   Energy =   106.6838605971
 Nuclear Attr.   Energy = -1341.6691720173
 Kinetic         Energy =   474.0297279304
 SCF time:  CPU 227.17 s  wall 229.22 s
 Final Alpha MO Eigenvalues
            1           2           3           4           5           6
    1 -87.8714992  -9.9912769  -9.9564152  -7.8174952  -5.8688758  -5.8647156
            7           8           9          10          11          12
    1  -5.8577553  -0.9271780  -0.8285218  -0.7202538  -0.5786657  -0.5721972
           13          14          15          16          17          18
    1  -0.5026896  -0.4699067  -0.4689216  -0.4278257  -0.3420742   0.0284437
           19          20          21          22
    1   0.0461716   0.0543503   0.0561131   0.0715190
 Analysis of SCF Wavefunction
 
 --------------------------------------------------------------
                    Orbital Energies (a.u.)
 --------------------------------------------------------------
 
 Alpha MOs
 -- Occupied --
-87.871  -9.991  -9.956  -7.817  -5.869  -5.865  -5.858  -0.927
 -0.829  -0.720  -0.579  -0.572  -0.503  -0.470  -0.469  -0.428
 -0.342
 -- Virtual --
  0.028   0.046   0.054   0.056   0.072   0.086   0.090   0.110
  0.122   0.125   0.146   0.162   0.162   0.167   0.172   0.177
  0.186   0.191   0.210   0.226   0.241   0.255   0.267   0.300
  0.327   0.335   0.372   0.390   0.406   0.415   0.456   0.468
  0.495   0.512   0.520   0.540   0.586   0.608   0.622   0.631
  0.632   0.649   0.649   0.704   0.732   0.757   0.765   0.794
  0.809   0.841   0.883   0.932   0.937   0.959   0.968   0.991
  0.993   1.034   1.079   1.098   1.118   1.124   1.176   1.178
  1.197   1.231   1.251   1.281   1.290   1.299   1.335   1.347
  1.373   1.405   1.412   1.440   1.463   1.477   1.500   1.530
  1.550   1.557   1.573   1.611   1.622   1.670   1.684   1.701
  1.815   1.970   2.175   2.200   2.521   2.594   2.690   2.718
  2.740   2.862   2.908   2.920   3.019   3.028   3.059   3.120
  3.123   3.203   3.223   3.230   3.254   3.290   3.381   3.405
  3.446   3.473   3.493   3.525   3.593   3.609   3.626   3.678
  3.693   3.705   3.711   3.741   3.747   3.830   3.894   3.984
  3.991   4.047   4.088   4.095   4.137   4.140   4.146   4.218
  4.316   4.327   4.364   4.385   4.432   4.478   4.561   4.633
  4.638   4.640   4.666   4.702   4.771   4.865   4.874   5.135
  5.328   5.515   5.573   5.708   5.756   5.794   8.446  17.119
 17.294  17.398  23.577  23.596  23.640  23.656  23.826  24.228
 24.415  27.705  27.935  28.134  28.200  28.241  28.442  30.962
 30.965  30.969  30.972  30.975  30.985  30.992  40.899  40.927
 40.959  41.033  41.229  41.243  41.252  41.292  41.304  41.333
189.530
 --------------------------------------------------------------
 
          Ground-State Mulliken Net Atomic Charges

     Atom                 Charge (a.u.)
  ----------------------------------------
      1 C                    -0.437133
      2 C                    -0.040093
      3 S                    -0.284445
      4 H                     0.118759
      5 H                     0.118780
      6 H                     0.118725
      7 H                     0.122954
      8 H                     0.141214
      9 H                     0.141240
  ----------------------------------------
  Sum of atomic charges =     0.000000

 -----------------------------------------------------------------
                    Cartesian Multipole Moments
 -----------------------------------------------------------------
    Charge (ESU x 10^10)
                 0.0000
    Dipole Moment (Debye)
         X       0.1462      Y       0.1031      Z       1.7206
       Tot       1.7299
    Quadrupole Moments (Debye-Ang)
        XX     -29.6372     XY      -0.0050     YY     -25.4223
        XZ       0.0693     YZ      -0.0556     ZZ     -28.8327
    Octapole Moments (Debye-Ang^2)
       XXX       0.6945    XXY      -1.3325    XYY      -0.1335
       YYY       7.2915    XXZ       2.6941    XYZ       0.1408
       YYZ      -1.5666    XZZ      -0.2627    YZZ       0.3076
       ZZZ       2.3867
    Hexadecapole Moments (Debye-Ang^3)
      XXXX     -55.5599   XXXY       5.4241   XXYY     -44.1630
      XYYY       4.2425   YYYY    -197.3995   XXXZ      -5.9068
      XXYZ      21.1819   XYYZ      -1.5319   YYYZ      49.8532
      XXZZ     -41.4209   XYZZ       0.6758   YYZZ     -62.0365
      XZZZ      -4.6800   YZZZ      50.4997   ZZZZ    -179.0716
 -----------------------------------------------------------------
 Calculating analytic gradient of the SCF energy
 Gradient of AOints
            1           2           3           4           5           6
    1  -0.1945969  -0.4072206   1.0897682  -0.0592970   2.5939533  -2.9820791
    2   4.3447652   0.6025300  -2.5213166  -4.6190546  -1.3986503  -1.3990895
    3  -2.3055008  -4.8172232  12.8877995  -0.7349471  -2.5159065  -2.0425715
            7           8           9
    1  -0.2499378   2.7346732  -2.5252633
    2   1.4817838   1.7545865   1.7544456
    3  -2.9348662   1.0076585   1.4555573
 Gradient of XC Energy
            1           2           3           4           5           6
    1   0.0001790  -0.0017682  -0.0148675   0.0026763  -0.1163814   0.1299430
    2   0.0194259  -0.0185479  -0.0890656   0.1465316   0.0556818   0.0556719
    3   0.0024245  -0.0211773  -0.1752927   0.0321958   0.0901447   0.0691923
            7           8           9
    1   0.0122304  -0.1307728   0.1187611
    2  -0.0545521  -0.0575708  -0.0575747
    3   0.1434912  -0.0598719  -0.0811066
 Gradient of SCF Energy
            1           2           3           4           5           6
    1   0.0000004   0.0015184  -0.0015975   0.0000549   0.0021569  -0.0022135
    2  -0.0134434   0.0064669   0.0038139   0.0031048  -0.0009407  -0.0009612
    3  -0.0000335   0.0168146  -0.0178054   0.0006729  -0.0004983  -0.0001411
            7           8           9
    1  -0.0001549   0.0022604  -0.0020251
    2   0.0008050   0.0005808   0.0005740
    3  -0.0020022   0.0013110   0.0016819
 Max gradient component =       1.781E-02
 RMS gradient           =       5.717E-03
 Gradient time:  CPU 87.66 s  wall 87.79 s
 Geometry Optimization Parameters
   NAtoms,    NIC,     NZ,  NCons,   NDum,   NFix, NCnnct, MaxDiis
        9      51       0       0       0       0       0       0


** GEOMETRY OPTIMIZATION IN DELOCALIZED INTERNAL COORDINATES **
   Searching for a Minimum

   Optimization Cycle:   1

                       Coordinates (Angstroms)
     ATOM              X           Y           Z
    1  C           0.070512   -1.457395    0.828482
    2  C           0.070603    0.069990    0.829651
    3  S          -0.077216    0.684756   -0.907312
    4  H          -0.052545    2.003749   -0.617318
    5  H          -0.770412    0.452558    1.415301
    6  H           0.998482    0.452568    1.264767
    7  H           0.157843   -1.831774    1.854667
    8  H          -0.856133   -1.854390    0.400602
    9  H           0.911534   -1.854381    0.250172
   Point Group: c1    Number of degrees of freedom:  21


   Energy is   -475.278597570


 Attempting to Generate Delocalized Internal Coordinates

 21 Hessian modes will be used to form the next step
  Hessian Eigenvalues:
     0.002000    0.005556    0.051035    0.056009    0.057600    0.058187
     0.110301    0.135992    0.160000    0.160000    0.160000    0.160000
     0.220095    0.226426    0.255827    0.296662    0.341476    0.342241
     0.342241    0.343640    0.343640

 Minimum Search - Taking Simple RFO Step
 Searching for Lamda that Minimizes Along All modes
 Value Taken    Lamda =  -0.00214066
 Step Taken.  Stepsize is  0.096498

                             Maximum     Tolerance    Cnvgd?
         Gradient           0.013632      0.000300      NO
         Displacement       0.067884      0.001200      NO
         Energy change     *********      0.000001      NO


 New Cartesian Coordinates Obtained by Inverse Iteration

 Displacement from previous Coordinates is:  0.145316
 Writing REM_CC_EA            9
 ----------------------------------------------------
       Standard Nuclear Orientation (Angstroms)
    I     Atom         X            Y            Z
 ----------------------------------------------------
    1      C       0.069971    -1.439783     0.823319
    2      C       0.070626     0.067263     0.827740
    3      S      -0.072564     0.649881    -0.875240
    4      H      -0.052688     1.965419    -0.599808
    5      H      -0.776339     0.455286     1.407640
    6      H       1.003267     0.454800     1.257015
    7      H       0.157792    -1.821378     1.850362
    8      H      -0.860624    -1.832760     0.389956
    9      H       0.913227    -1.833045     0.238027
 ----------------------------------------------------
 Nuclear Repulsion Energy =   108.2976823590 hartrees
 There are       17 alpha and       17 beta electrons
 Applying Cartesian multipole field
    Component          Value
    ---------          -----
     (2,0,0)        1.00000E-11
     (0,2,0)        2.00000E-11
     (0,0,2)       -3.00000E-11
 Nucleus-field energy     =    -0.0000000005 hartrees
 Requested basis set is G3large
 There are 75 shells and 210 basis functions
 A cutoff of  1.0D-11 yielded   2724 shell pairs
 There are  21463 function pairs ( 26961 Cartesian)
Evaluating contribution to one-electron hamiltonian from nuclear
 Smallest overlap matrix eigenvalue = 6.64E-05
 Multipole matrices computed through 2nd order
 Guess MOs from SCF MO coefficient file
Reading MOs from coefficient file
Reading MOs from coefficient file
 A restricted hybrid HF-DFT SCF calculation will be
 performed using Pulay DIIS extrapolation
 Exchange:     1.0000 Hartree-Fock + 1.0000 BNL
 Correlation:  1.0000 LYP
 Using SG-1 standard quadrature grid
 SCF converges when DIIS error is below 1.0E-08
 ---------------------------------------
  Cycle       Energy         DIIS Error
 ---------------------------------------
    1    -475.2974509394      8.62E-04
    2    -475.2796379758      1.10E-04
    3    -475.2796946568      6.60E-05
    4    -475.2797116036      1.18E-05
    5    -475.2797125674      5.06E-06
    6    -475.2797127922      1.61E-06
    7    -475.2797127733      4.36E-07
    8    -475.2797127899      1.14E-07
    9    -475.2797127891      4.05E-08
   10    -475.2797127906      1.29E-08
   11    -475.2797127902      3.03E-09 Convergence criterion met
 ---------------------------------------
 One-Electron    Energy =  -870.8524720564
 Total Coulomb   Energy =   323.1604194152
 Alpha Exchange  Energy =    -3.1980460503
 Beta  Exchange  Energy =    -3.1980460503
 DFT   Exchange  Energy =   -28.2696069003
 DFT Correlation Energy =    -1.2196435067
 Nuclear Repu.   Energy =   108.2976823586
 Nuclear Attr.   Energy = -1344.9652016507
 Kinetic         Energy =   474.1127295943
 SCF time:  CPU 191.44 s  wall 192.93 s
 Final Alpha MO Eigenvalues
            1           2           3           4           5           6
    1 -87.8691574  -9.9874598  -9.9556948  -7.8160409  -5.8673331  -5.8630873
            7           8           9          10          11          12
    1  -5.8562717  -0.9360397  -0.8295153  -0.7171374  -0.5822512  -0.5778282
           13          14          15          16          17          18
    1  -0.5043879  -0.4684510  -0.4682011  -0.4290702  -0.3406494   0.0285291
           19          20          21          22
    1   0.0464283   0.0548736   0.0556650   0.0722873
 Analysis of SCF Wavefunction
 
 --------------------------------------------------------------
                    Orbital Energies (a.u.)
 --------------------------------------------------------------
 
 Alpha MOs
 -- Occupied --
-87.869  -9.987  -9.956  -7.816  -5.867  -5.863  -5.856  -0.936
 -0.830  -0.717  -0.582  -0.578  -0.504  -0.468  -0.468  -0.429
 -0.341
 -- Virtual --
  0.029   0.046   0.055   0.056   0.072   0.087   0.091   0.110
  0.122   0.124   0.147   0.161   0.163   0.168   0.173   0.180
  0.188   0.190   0.210   0.229   0.241   0.254   0.268   0.302
  0.327   0.335   0.373   0.391   0.408   0.421   0.458   0.466
  0.493   0.515   0.522   0.539   0.587   0.606   0.625   0.629
  0.636   0.649   0.655   0.710   0.733   0.756   0.772   0.797
  0.817   0.842   0.883   0.929   0.939   0.963   0.970   0.996
  0.997   1.029   1.083   1.101   1.124   1.128   1.178   1.181
  1.205   1.234   1.251   1.288   1.295   1.307   1.343   1.351
  1.378   1.411   1.415   1.441   1.469   1.483   1.498   1.532
  1.552   1.562   1.578   1.614   1.630   1.675   1.687   1.705
  1.828   1.976   2.180   2.214   2.530   2.606   2.702   2.734
  2.753   2.873   2.913   2.925   3.015   3.035   3.069   3.114
  3.125   3.194   3.228   3.232   3.252   3.301   3.385   3.409
  3.448   3.476   3.494   3.520   3.595   3.612   3.639   3.693
  3.701   3.714   3.723   3.747   3.751   3.828   3.907   3.995
  4.001   4.061   4.098   4.103   4.146   4.150   4.164   4.236
  4.324   4.324   4.366   4.386   4.443   4.502   4.566   4.638
  4.649   4.655   4.674   4.715   4.773   4.903   4.910   5.159
  5.331   5.537   5.624   5.697   5.748   5.780   8.479  17.124
 17.303  17.420  23.588  23.600  23.652  23.667  23.837  24.231
 24.438  27.753  27.985  28.141  28.207  28.241  28.433  30.964
 30.967  30.971  30.975  30.977  30.988  30.999  40.900  40.927
 40.958  41.055  41.234  41.248  41.253  41.294  41.306  41.331
189.562
 --------------------------------------------------------------
 
          Ground-State Mulliken Net Atomic Charges

     Atom                 Charge (a.u.)
  ----------------------------------------
      1 C                    -0.433468
      2 C                    -0.043403
      3 S                    -0.277192
      4 H                     0.117866
      5 H                     0.117165
      6 H                     0.117270
      7 H                     0.120804
      8 H                     0.140497
      9 H                     0.140461
  ----------------------------------------
  Sum of atomic charges =     0.000000

 -----------------------------------------------------------------
                    Cartesian Multipole Moments
 -----------------------------------------------------------------
    Charge (ESU x 10^10)
                 0.0000
    Dipole Moment (Debye)
         X       0.1399      Y       0.1442      Z       1.6882
       Tot       1.7001
    Quadrupole Moments (Debye-Ang)
        XX     -29.5497     XY      -0.0152     YY     -25.5195
        XZ       0.0590     YZ      -0.0653     ZZ     -28.8656
    Octapole Moments (Debye-Ang^2)
       XXX       0.5008    XXY      -0.8185    XYY      -0.2007
       YYY       8.3398    XXZ       2.2732    XYZ       0.1408
       YYZ      -1.9125    XZZ      -0.3246    YZZ       0.7559
       ZZZ       1.0506
    Hexadecapole Moments (Debye-Ang^3)
      XXXX     -55.4788   XXXY       5.1030   XXYY     -42.9124
      XYYY       3.9781   YYYY    -191.9980   XXXZ      -5.6040
      XXYZ      20.1562   XYYZ      -1.4557   YYYZ      47.6446
      XXZZ     -40.5015   XYZZ       0.5890   YYZZ     -60.1953
      XZZZ      -4.4271   YZZZ      47.6560   ZZZZ    -173.9686
 -----------------------------------------------------------------
 Calculating analytic gradient of the SCF energy
 Gradient of AOints
            1           2           3           4           5           6
    1  -0.1981981  -0.4259671   1.0830390  -0.0446195   2.6527171  -3.0302963
    2   4.4309944   0.6841972  -2.5841221  -4.6359010  -1.4246600  -1.4239924
    3  -2.3734761  -5.1520863  13.1350496  -0.7119515  -2.4633586  -1.9813708
            7           8           9
    1  -0.2522045   2.7620538  -2.5465245
    2   1.4848118   1.7337987   1.7348734
    3  -2.9526531   1.0221225   1.4777241
 Gradient of XC Energy
            1           2           3           4           5           6
    1   0.0002441  -0.0011361  -0.0144737   0.0021871  -0.1171964   0.1303255
    2   0.0172188  -0.0202964  -0.0893438   0.1469812   0.0561154   0.0560513
    3   0.0027295  -0.0115755  -0.1783104   0.0313185   0.0877957   0.0667941
            7           8           9
    1   0.0122518  -0.1307045   0.1185023
    2  -0.0546192  -0.0560347  -0.0560727
    3   0.1431362  -0.0602655  -0.0816226
 Gradient of SCF Energy
            1           2           3           4           5           6
    1  -0.0001512   0.0004063  -0.0001918   0.0000622  -0.0002531   0.0000804
    2  -0.0007645  -0.0009643   0.0002502  -0.0005177   0.0000826   0.0000893
    3  -0.0019022   0.0052353  -0.0023978   0.0008753  -0.0011778  -0.0012733
            7           8           9
    1   0.0000318   0.0000314  -0.0000161
    2   0.0009436   0.0004423   0.0004386
    3   0.0002932   0.0001799   0.0001676
 Max gradient component =       5.235E-03
 RMS gradient           =       1.279E-03
 Gradient time:  CPU 96.71 s  wall 97.24 s
 Geometry Optimization Parameters
   NAtoms,    NIC,     NZ,  NCons,   NDum,   NFix, NCnnct, MaxDiis
        9      51       0       0       0       0       0       0

 Cartesian Hessian Update
 Hessian Updated using BFGS Update


** GEOMETRY OPTIMIZATION IN DELOCALIZED INTERNAL COORDINATES **
   Searching for a Minimum

   Optimization Cycle:   2

                       Coordinates (Angstroms)
     ATOM              X           Y           Z
    1  C           0.069971   -1.439783    0.823319
    2  C           0.070626    0.067263    0.827740
    3  S          -0.072564    0.649881   -0.875240
    4  H          -0.052688    1.965419   -0.599808
    5  H          -0.776339    0.455286    1.407640
    6  H           1.003267    0.454800    1.257015
    7  H           0.157792   -1.821378    1.850362
    8  H          -0.860624   -1.832760    0.389956
    9  H           0.913227   -1.833045    0.238027
   Point Group: c1    Number of degrees of freedom:  21


   Energy is   -475.279712790

 Hessian Updated using BFGS Update

 19 Hessian modes will be used to form the next step
  Hessian Eigenvalues:
     0.002000    0.005556    0.051037    0.055743    0.057600    0.059933
     0.110296    0.135993    0.151472    0.160203    0.215545    0.223584
     0.256995    0.313824    0.340536    0.341714    0.342241    0.343272
     0.343640

 Minimum Search - Taking Simple RFO Step
 Searching for Lamda that Minimizes Along All modes
 Value Taken    Lamda =  -0.00012199
 Step Taken.  Stepsize is  0.035171

                             Maximum     Tolerance    Cnvgd?
         Gradient           0.002444      0.000300      NO
         Displacement       0.026478      0.001200      NO
         Energy change     -0.001115      0.000001      NO


 New Cartesian Coordinates Obtained by Inverse Iteration

 Displacement from previous Coordinates is:  0.037803
 Writing REM_CC_EA            9
 ----------------------------------------------------
       Standard Nuclear Orientation (Angstroms)
    I     Atom         X            Y            Z
 ----------------------------------------------------
    1      C       0.070161    -1.438998     0.825116
    2      C       0.070325     0.068815     0.825505
    3      S      -0.072583     0.652526    -0.871101
    4      H      -0.053159     1.972055    -0.613749
    5      H      -0.773943     0.453917     1.412778
    6      H       1.001276     0.453668     1.262900
    7      H       0.158150    -1.828160     1.849587
    8      H      -0.859561    -1.834029     0.390141
    9      H       0.912003    -1.834113     0.237836
 ----------------------------------------------------
 Nuclear Repulsion Energy =   108.3468442346 hartrees
 There are       17 alpha and       17 beta electrons
 Applying Cartesian multipole field
    Component          Value
    ---------          -----
     (2,0,0)        1.00000E-11
     (0,2,0)        2.00000E-11
     (0,0,2)       -3.00000E-11
 Nucleus-field energy     =    -0.0000000005 hartrees
 Requested basis set is G3large
 There are 75 shells and 210 basis functions
 A cutoff of  1.0D-11 yielded   2723 shell pairs
 There are  21460 function pairs ( 26958 Cartesian)
Evaluating contribution to one-electron hamiltonian from nuclear
 Smallest overlap matrix eigenvalue = 6.71E-05
 Multipole matrices computed through 2nd order
 Guess MOs from SCF MO coefficient file
Reading MOs from coefficient file
Reading MOs from coefficient file
 A restricted hybrid HF-DFT SCF calculation will be
 performed using Pulay DIIS extrapolation
 Exchange:     1.0000 Hartree-Fock + 1.0000 BNL
 Correlation:  1.0000 LYP
 Using SG-1 standard quadrature grid
 SCF converges when DIIS error is below 1.0E-08
 ---------------------------------------
  Cycle       Energy         DIIS Error
 ---------------------------------------
    1    -475.2822346765      1.74E-04
    2    -475.2797745698      2.21E-05
    3    -475.2797775169      1.17E-05
    4    -475.2797779921      2.43E-06
    5    -475.2797781255      9.69E-07
    6    -475.2797781372      2.50E-07
    7    -475.2797781467      9.80E-08
    8    -475.2797781450      2.74E-08
    9    -475.2797781471      5.27E-09 Convergence criterion met
 ---------------------------------------
 One-Electron    Energy =  -870.9480029561
 Total Coulomb   Energy =   323.2068092879
 Alpha Exchange  Energy =    -3.1980703017
 Beta  Exchange  Energy =    -3.1980703017
 DFT   Exchange  Energy =   -28.2696299893
 DFT Correlation Energy =    -1.2196581204
 Nuclear Repu.   Energy =   108.3468442341
 Nuclear Attr.   Energy = -1345.0597377281
 Kinetic         Energy =   474.1117347720
 SCF time:  CPU 158.48 s  wall 159.74 s
 Final Alpha MO Eigenvalues
            1           2           3           4           5           6
    1 -87.8692267  -9.9874076  -9.9559387  -7.8161750  -5.8674830  -5.8631748
            7           8           9          10          11          12
    1  -5.8564055  -0.9364162  -0.8296372  -0.7173665  -0.5815504  -0.5786953
           13          14          15          16          17          18
    1  -0.5038120  -0.4696471  -0.4677586  -0.4287981  -0.3405235   0.0285567
           19          20          21          22
    1   0.0463496   0.0547798   0.0557218   0.0722871
 Analysis of SCF Wavefunction
 
 --------------------------------------------------------------
                    Orbital Energies (a.u.)
 --------------------------------------------------------------
 
 Alpha MOs
 -- Occupied --
-87.869  -9.987  -9.956  -7.816  -5.867  -5.863  -5.856  -0.936
 -0.830  -0.717  -0.582  -0.579  -0.504  -0.470  -0.468  -0.429
 -0.341
 -- Virtual --
  0.029   0.046   0.055   0.056   0.072   0.087   0.091   0.110
  0.122   0.125   0.147   0.161   0.163   0.168   0.173   0.180
  0.188   0.190   0.209   0.229   0.241   0.254   0.269   0.302
  0.327   0.335   0.373   0.391   0.408   0.422   0.458   0.466
  0.494   0.515   0.522   0.539   0.587   0.607   0.625   0.629
  0.636   0.649   0.654   0.711   0.733   0.756   0.771   0.799
  0.815   0.843   0.884   0.928   0.940   0.964   0.971   0.995
  0.998   1.029   1.082   1.100   1.124   1.128   1.179   1.180
  1.205   1.235   1.250   1.289   1.295   1.306   1.343   1.351
  1.378   1.411   1.415   1.441   1.468   1.482   1.500   1.532
  1.554   1.561   1.580   1.614   1.631   1.675   1.688   1.704
  1.831   1.977   2.182   2.214   2.530   2.605   2.703   2.731
  2.753   2.871   2.914   2.925   3.015   3.036   3.067   3.113
  3.122   3.196   3.229   3.230   3.249   3.303   3.390   3.406
  3.448   3.477   3.494   3.519   3.596   3.612   3.638   3.693
  3.702   3.714   3.723   3.750   3.754   3.826   3.904   3.992
  4.005   4.061   4.097   4.100   4.148   4.150   4.158   4.237
  4.327   4.327   4.364   4.385   4.444   4.502   4.561   4.638
  4.645   4.648   4.677   4.715   4.769   4.908   4.908   5.166
  5.327   5.533   5.624   5.698   5.748   5.780   8.482  17.124
 17.304  17.422  23.587  23.600  23.656  23.669  23.835  24.229
 24.434  27.752  27.994  28.140  28.206  28.239  28.434  30.963
 30.967  30.971  30.976  30.977  30.987  31.000  40.900  40.926
 40.957  41.054  41.234  41.248  41.253  41.294  41.306  41.330
189.565
 --------------------------------------------------------------
 
          Ground-State Mulliken Net Atomic Charges

     Atom                 Charge (a.u.)
  ----------------------------------------
      1 C                    -0.432118
      2 C                    -0.043035
      3 S                    -0.276025
      4 H                     0.117837
      5 H                     0.115857
      6 H                     0.115849
      7 H                     0.121226
      8 H                     0.140217
      9 H                     0.140193
  ----------------------------------------
  Sum of atomic charges =     0.000000

 -----------------------------------------------------------------
                    Cartesian Multipole Moments
 -----------------------------------------------------------------
    Charge (ESU x 10^10)
                 0.0000
    Dipole Moment (Debye)
         X       0.1401      Y       0.1504      Z       1.6817
       Tot       1.6942
    Quadrupole Moments (Debye-Ang)
        XX     -29.5704     XY      -0.0174     YY     -25.4611
        XZ       0.0627     YZ      -0.1255     ZZ     -28.8463
    Octapole Moments (Debye-Ang^2)
       XXX       0.4967    XXY      -0.8504    XYY      -0.1979
       YYY       8.2323    XXZ       2.1971    XYZ       0.1407
       YYZ      -1.9922    XZZ      -0.3159    YZZ       0.7449
       ZZZ       0.9297
    Hexadecapole Moments (Debye-Ang^3)
      XXXX     -55.4909   XXXY       5.1209   XXYY     -43.0226
      XYYY       3.9700   YYYY    -191.9505   XXXZ      -5.5970
      XXYZ      20.1774   XYYZ      -1.4350   YYYZ      47.3226
      XXZZ     -40.4239   XYZZ       0.5877   YYZZ     -59.9994
      XZZZ      -4.4156   YZZZ      47.6476   ZZZZ    -173.5633
 -----------------------------------------------------------------
 Calculating analytic gradient of the SCF energy
 Gradient of AOints
            1           2           3           4           5           6
    1  -0.2043837  -0.4211109   1.0846959  -0.0402947   2.6277162  -3.0106135
    2   4.3861563   0.7023817  -2.6256225  -4.6591411  -1.4088333  -1.4087728
    3  -2.4398782  -5.0569489  13.0719182  -0.6121548  -2.5008802  -2.0254434
            7           8           9
    1  -0.2526268   2.7490070  -2.5323893
    2   1.5298947   1.7417011   1.7422359
    3  -2.9418176   1.0251230   1.4800819
 Gradient of XC Energy
            1           2           3           4           5           6
    1   0.0004259  -0.0013402  -0.0144823   0.0020766  -0.1163696   0.1296839
    2   0.0193263  -0.0202175  -0.0888215   0.1477155   0.0555344   0.0554952
    3   0.0049768  -0.0149514  -0.1763655   0.0283879   0.0891316   0.0683455
            7           8           9
    1   0.0122701  -0.1302614   0.1179968
    2  -0.0563577  -0.0563324  -0.0563424
    3   0.1426565  -0.0604130  -0.0817686
 Gradient of SCF Energy
            1           2           3           4           5           6
    1  -0.0000056   0.0000603   0.0000037  -0.0000195  -0.0001855   0.0001278
    2   0.0001826  -0.0010331   0.0005748  -0.0000958   0.0000878   0.0000827
    3  -0.0000993   0.0007932   0.0002632  -0.0002298  -0.0004650  -0.0005133
            7           8           9
    1   0.0000291  -0.0000914   0.0000811
    2  -0.0000957   0.0001512   0.0001455
    3   0.0002234   0.0000314  -0.0000038
 Max gradient component =       1.033E-03
 RMS gradient           =       3.260E-04
 Gradient time:  CPU 96.70 s  wall 97.38 s
 Geometry Optimization Parameters
   NAtoms,    NIC,     NZ,  NCons,   NDum,   NFix, NCnnct, MaxDiis
        9      51       0       0       0       0       0       0

 Cartesian Hessian Update
 Hessian Updated using BFGS Update


** GEOMETRY OPTIMIZATION IN DELOCALIZED INTERNAL COORDINATES **
   Searching for a Minimum

   Optimization Cycle:   3

                       Coordinates (Angstroms)
     ATOM              X           Y           Z
    1  C           0.070161   -1.438998    0.825116
    2  C           0.070325    0.068815    0.825505
    3  S          -0.072583    0.652526   -0.871101
    4  H          -0.053159    1.972055   -0.613749
    5  H          -0.773943    0.453917    1.412778
    6  H           1.001276    0.453668    1.262900
    7  H           0.158150   -1.828160    1.849587
    8  H          -0.859561   -1.834029    0.390141
    9  H           0.912003   -1.834113    0.237836
   Point Group: c1    Number of degrees of freedom:  21


   Energy is   -475.279778147

 Hessian Updated using BFGS Update

 20 Hessian modes will be used to form the next step
  Hessian Eigenvalues:
     0.002001    0.005556    0.047272    0.051040    0.056349    0.057600
     0.106169    0.135994    0.153412    0.160015    0.177329    0.216089
     0.244203    0.257015    0.308982    0.340542    0.342240    0.342592
     0.342924    0.343640

 Minimum Search - Taking Simple RFO Step
 Searching for Lamda that Minimizes Along All modes
 Value Taken    Lamda =  -0.00001322
 Step Taken.  Stepsize is  0.014475

                             Maximum     Tolerance    Cnvgd?
         Gradient           0.000633      0.000300      NO
         Displacement       0.008093      0.001200      NO
         Energy change     -0.000065      0.000001      NO


 New Cartesian Coordinates Obtained by Inverse Iteration

 Displacement from previous Coordinates is:  0.011967
 Writing REM_CC_EA            9
 ----------------------------------------------------
       Standard Nuclear Orientation (Angstroms)
    I     Atom         X            Y            Z
 ----------------------------------------------------
    1      C       0.070029    -1.438000     0.824433
    2      C       0.070781     0.070519     0.824351
    3      S      -0.071431     0.651075    -0.872249
    4      H      -0.055190     1.970781    -0.613975
    5      H      -0.771990     0.454293     1.415036
    6      H       1.000784     0.453412     1.265998
    7      H       0.157584    -1.827145     1.848555
    8      H      -0.859208    -1.834213     0.389333
    9      H       0.911310    -1.835041     0.237531
 ----------------------------------------------------
 Nuclear Repulsion Energy =   108.3625129753 hartrees
 There are       17 alpha and       17 beta electrons
 Applying Cartesian multipole field
    Component          Value
    ---------          -----
     (2,0,0)        1.00000E-11
     (0,2,0)        2.00000E-11
     (0,0,2)       -3.00000E-11
 Nucleus-field energy     =    -0.0000000005 hartrees
 Requested basis set is G3large
 There are 75 shells and 210 basis functions
 A cutoff of  1.0D-11 yielded   2723 shell pairs
 There are  21460 function pairs ( 26958 Cartesian)
Evaluating contribution to one-electron hamiltonian from nuclear
 Smallest overlap matrix eigenvalue = 6.71E-05
 Multipole matrices computed through 2nd order
 Guess MOs from SCF MO coefficient file
Reading MOs from coefficient file
Reading MOs from coefficient file
 A restricted hybrid HF-DFT SCF calculation will be
 performed using Pulay DIIS extrapolation
 Exchange:     1.0000 Hartree-Fock + 1.0000 BNL
 Correlation:  1.0000 LYP
 Using SG-1 standard quadrature grid
 SCF converges when DIIS error is below 1.0E-08
 ---------------------------------------
  Cycle       Energy         DIIS Error
 ---------------------------------------
    1    -475.2803363574      5.53E-05
    2    -475.2797843803      7.35E-06
    3    -475.2797846268      5.24E-06
    4    -475.2797847546      9.64E-07
    5    -475.2797848018      4.09E-07
    6    -475.2797847956      1.74E-07
    7    -475.2797848002      4.54E-08
    8    -475.2797848001      1.64E-08
    9    -475.2797847991      7.48E-09 Convergence criterion met
 ---------------------------------------
 One-Electron    Energy =  -870.9788783036
 Total Coulomb   Energy =   323.2219380328
 Alpha Exchange  Energy =    -3.1980706286
 Beta  Exchange  Energy =    -3.1980706286
 DFT   Exchange  Energy =   -28.2695548138
 DFT Correlation Energy =    -1.2196614322
 Nuclear Repu.   Energy =   108.3625129748
 Nuclear Attr.   Energy = -1345.0900765723
 Kinetic         Energy =   474.1111982687
 SCF time:  CPU 153.75 s  wall 154.95 s
 Final Alpha MO Eigenvalues
            1           2           3           4           5           6
    1 -87.8693658  -9.9873766  -9.9558443  -7.8163074  -5.8676166  -5.8633113
            7           8           9          10          11          12
    1  -5.8565355  -0.9364210  -0.8295759  -0.7174596  -0.5811137  -0.5788432
           13          14          15          16          17          18
    1  -0.5037161  -0.4694066  -0.4674431  -0.4293560  -0.3405849   0.0285477
           19          20          21          22
    1   0.0463472   0.0547427   0.0557494   0.0723418
 Analysis of SCF Wavefunction
 
 --------------------------------------------------------------
                    Orbital Energies (a.u.)
 --------------------------------------------------------------
 
 Alpha MOs
 -- Occupied --
-87.869  -9.987  -9.956  -7.816  -5.868  -5.863  -5.857  -0.936
 -0.830  -0.717  -0.581  -0.579  -0.504  -0.469  -0.467  -0.429
 -0.341
 -- Virtual --
  0.029   0.046   0.055   0.056   0.072   0.087   0.091   0.110
  0.122   0.125   0.147   0.161   0.163   0.168   0.173   0.180
  0.188   0.190   0.209   0.230   0.240   0.254   0.269   0.302
  0.327   0.335   0.373   0.391   0.409   0.421   0.459   0.466
  0.494   0.516   0.522   0.539   0.588   0.608   0.625   0.629
  0.636   0.649   0.654   0.711   0.733   0.756   0.770   0.799
  0.815   0.843   0.884   0.928   0.940   0.964   0.971   0.995
  0.998   1.030   1.082   1.100   1.124   1.128   1.180   1.180
  1.205   1.235   1.250   1.289   1.295   1.306   1.344   1.351
  1.378   1.411   1.415   1.441   1.468   1.482   1.501   1.532
  1.555   1.561   1.580   1.613   1.630   1.675   1.689   1.704
  1.831   1.977   2.182   2.215   2.530   2.606   2.703   2.729
  2.753   2.871   2.914   2.925   3.015   3.035   3.066   3.113
  3.121   3.197   3.228   3.230   3.249   3.304   3.391   3.405
  3.448   3.477   3.494   3.519   3.596   3.611   3.639   3.693
  3.703   3.715   3.723   3.751   3.755   3.826   3.904   3.991
  4.006   4.060   4.096   4.098   4.149   4.150   4.158   4.236
  4.328   4.328   4.364   4.385   4.444   4.501   4.560   4.638
  4.641   4.647   4.676   4.715   4.769   4.909   4.910   5.165
  5.325   5.531   5.625   5.699   5.749   5.781   8.483  17.124
 17.304  17.422  23.588  23.600  23.656  23.669  23.835  24.229
 24.433  27.750  27.996  28.139  28.206  28.238  28.434  30.963
 30.967  30.971  30.975  30.977  30.987  31.000  40.900  40.926
 40.957  41.053  41.234  41.248  41.253  41.295  41.306  41.330
189.565
 --------------------------------------------------------------
 
          Ground-State Mulliken Net Atomic Charges

     Atom                 Charge (a.u.)
  ----------------------------------------
      1 C                    -0.433195
      2 C                    -0.041621
      3 S                    -0.275715
      4 H                     0.117771
      5 H                     0.115395
      6 H                     0.115496
      7 H                     0.121305
      8 H                     0.140323
      9 H                     0.140240
  ----------------------------------------
  Sum of atomic charges =     0.000000

 -----------------------------------------------------------------
                    Cartesian Multipole Moments
 -----------------------------------------------------------------
    Charge (ESU x 10^10)
                 0.0000
    Dipole Moment (Debye)
         X       0.1369      Y       0.1524      Z       1.6782
       Tot       1.6906
    Quadrupole Moments (Debye-Ang)
        XX     -29.5799     XY      -0.0264     YY     -25.4632
        XZ       0.0662     YZ      -0.1221     ZZ     -28.8295
    Octapole Moments (Debye-Ang^2)
       XXX       0.4399    XXY      -0.8377    XYY      -0.2285
       YYY       8.2223    XXZ       2.2089    XYZ       0.1485
       YYZ      -1.9744    XZZ      -0.3294    YZZ       0.7686
       ZZZ       0.9940
    Hexadecapole Moments (Debye-Ang^3)
      XXXX     -55.4736   XXXY       5.0723   XXYY     -42.9767
      XYYY       3.9034   YYYY    -191.7012   XXXZ      -5.5601
      XXYZ      20.1401   XYYZ      -1.4204   YYYZ      47.2556
      XXZZ     -40.4326   XYZZ       0.5753   YYZZ     -59.9931
      XZZZ      -4.3881   YZZZ      47.5820   ZZZZ    -173.5680
 -----------------------------------------------------------------
 Calculating analytic gradient of the SCF energy
 Gradient of AOints
            1           2           3           4           5           6
    1  -0.2019793  -0.4181361   1.0698317  -0.0295190   2.6110736  -2.9978851
    2   4.3678966   0.6688805  -2.6083513  -4.6563752  -1.4026885  -1.4007980
    3  -2.4457964  -5.0329746  13.1148537  -0.6241098  -2.5236254  -2.0516957
            7           8           9
    1  -0.2508924   2.7437345  -2.5262279
    2   1.5308492   1.7490123   1.7515745
    3  -2.9401348   1.0253149   1.4781682
 Gradient of XC Energy
            1           2           3           4           5           6
    1   0.0004335  -0.0014222  -0.0140996   0.0017195  -0.1158664   0.1293085
    2   0.0201277  -0.0194000  -0.0890780   0.1476240   0.0552825   0.0551511
    3   0.0049755  -0.0160886  -0.1772395   0.0286965   0.0898843   0.0692492
            7           8           9
    1   0.0122034  -0.1300747   0.1177981
    2  -0.0563937  -0.0566027  -0.0567110
    3   0.1426304  -0.0604196  -0.0816883
 Gradient of SCF Energy
            1           2           3           4           5           6
    1   0.0000081   0.0000076  -0.0000063  -0.0000108   0.0000050   0.0000150
    2   0.0001995  -0.0000821  -0.0000163   0.0000020   0.0000129   0.0000065
    3   0.0000528  -0.0000151  -0.0000039   0.0000221   0.0000030  -0.0000220
            7           8           9
    1   0.0000016  -0.0000305   0.0000103
    2  -0.0000596  -0.0000328  -0.0000301
    3  -0.0000233   0.0000054  -0.0000189
 Max gradient component =       1.995E-04
 RMS gradient           =       4.677E-05
 Gradient time:  CPU 102.95 s  wall 103.65 s
 Geometry Optimization Parameters
   NAtoms,    NIC,     NZ,  NCons,   NDum,   NFix, NCnnct, MaxDiis
        9      51       0       0       0       0       0       0

 Cartesian Hessian Update
 Hessian Updated using BFGS Update


** GEOMETRY OPTIMIZATION IN DELOCALIZED INTERNAL COORDINATES **
   Searching for a Minimum

   Optimization Cycle:   4

                       Coordinates (Angstroms)
     ATOM              X           Y           Z
    1  C           0.070029   -1.438000    0.824433
    2  C           0.070781    0.070519    0.824351
    3  S          -0.071431    0.651075   -0.872249
    4  H          -0.055190    1.970781   -0.613975
    5  H          -0.771990    0.454293    1.415036
    6  H           1.000784    0.453412    1.265998
    7  H           0.157584   -1.827145    1.848555
    8  H          -0.859208   -1.834213    0.389333
    9  H           0.911310   -1.835041    0.237531
   Point Group: c1    Number of degrees of freedom:  21


   Energy is   -475.279784799

 Hessian Updated using BFGS Update

 21 Hessian modes will be used to form the next step
  Hessian Eigenvalues:
     0.002014    0.005556    0.046589    0.051038    0.056146    0.057602
     0.105546    0.135995    0.156327    0.159998    0.160208    0.178742
     0.216094    0.242906    0.256944    0.307460    0.340870    0.342171
     0.342336    0.343155    0.343644

 Minimum Search - Taking Simple RFO Step
 Searching for Lamda that Minimizes Along All modes
 Value Taken    Lamda =   0.00000000
 Step Taken.  Stepsize is  0.004598

                             Maximum     Tolerance    Cnvgd?
         Gradient           0.000096      0.000300     YES
         Displacement       0.003412      0.001200      NO
         Energy change     -0.000007      0.000001      NO


 New Cartesian Coordinates Obtained by Inverse Iteration

 Displacement from previous Coordinates is:  0.005026
 Writing REM_CC_EA            9
 ----------------------------------------------------
       Standard Nuclear Orientation (Angstroms)
    I     Atom         X            Y            Z
 ----------------------------------------------------
    1      C       0.070093    -1.438158     0.824331
    2      C       0.070273     0.070503     0.824397
    3      S      -0.072554     0.651188    -0.872148
    4      H      -0.053304     1.970938    -0.614348
    5      H      -0.772454     0.453815     1.415431
    6      H       1.000228     0.453573     1.265982
    7      H       0.158165    -1.826795     1.848597
    8      H      -0.859138    -1.834597     0.389559
    9      H       0.911359    -1.834785     0.237211
 ----------------------------------------------------
 Nuclear Repulsion Energy =   108.3592054842 hartrees
 There are       17 alpha and       17 beta electrons
 Applying Cartesian multipole field
    Component          Value
    ---------          -----
     (2,0,0)        1.00000E-11
     (0,2,0)        2.00000E-11
     (0,0,2)       -3.00000E-11
 Nucleus-field energy     =    -0.0000000005 hartrees
 Requested basis set is G3large
 There are 75 shells and 210 basis functions
 A cutoff of  1.0D-11 yielded   2723 shell pairs
 There are  21460 function pairs ( 26958 Cartesian)
Evaluating contribution to one-electron hamiltonian from nuclear
 Smallest overlap matrix eigenvalue = 6.71E-05
 Multipole matrices computed through 2nd order
 Guess MOs from SCF MO coefficient file
Reading MOs from coefficient file
Reading MOs from coefficient file
 A restricted hybrid HF-DFT SCF calculation will be
 performed using Pulay DIIS extrapolation
 Exchange:     1.0000 Hartree-Fock + 1.0000 BNL
 Correlation:  1.0000 LYP
 Using SG-1 standard quadrature grid
 SCF converges when DIIS error is below 1.0E-08
 ---------------------------------------
  Cycle       Energy         DIIS Error
 ---------------------------------------
    1    -475.2798156877      1.29E-05
    2    -475.2797847895      2.54E-06
    3    -475.2797848714      7.42E-07
    4    -475.2797848764      4.28E-07
    5    -475.2797848870      1.55E-07
    6    -475.2797848824      6.34E-08
    7    -475.2797848841      1.92E-08
    8    -475.2797848816      6.70E-09 Convergence criterion met
 ---------------------------------------
 One-Electron    Energy =  -870.9723210204
 Total Coulomb   Energy =   323.2186503991
 Alpha Exchange  Energy =    -3.1980695692
 Beta  Exchange  Energy =    -3.1980695692
 DFT   Exchange  Energy =   -28.2695228948
 DFT Correlation Energy =    -1.2196577107
 Nuclear Repu.   Energy =   108.3592054837
 Nuclear Attr.   Energy = -1345.0833604601
 Kinetic         Energy =   474.1110394396
 SCF time:  CPU 136.68 s  wall 137.90 s
 Final Alpha MO Eigenvalues
            1           2           3           4           5           6
    1 -87.8693665  -9.9873848  -9.9558477  -7.8163073  -5.8676165  -5.8633111
            7           8           9          10          11          12
    1  -5.8565357  -0.9363985  -0.8295748  -0.7174625  -0.5811020  -0.5788411
           13          14          15          16          17          18
    1  -0.5037134  -0.4693912  -0.4674675  -0.4293533  -0.3405871   0.0285477
           19          20          21          22
    1   0.0463494   0.0547395   0.0557500   0.0723434
 Analysis of SCF Wavefunction
 
 --------------------------------------------------------------
                    Orbital Energies (a.u.)
 --------------------------------------------------------------
 
 Alpha MOs
 -- Occupied --
-87.869  -9.987  -9.956  -7.816  -5.868  -5.863  -5.857  -0.936
 -0.830  -0.717  -0.581  -0.579  -0.504  -0.469  -0.467  -0.429
 -0.341
 -- Virtual --
  0.029   0.046   0.055   0.056   0.072   0.087   0.091   0.110
  0.122   0.125   0.147   0.161   0.163   0.168   0.173   0.180
  0.188   0.190   0.209   0.230   0.240   0.254   0.269   0.302
  0.327   0.335   0.373   0.391   0.409   0.421   0.459   0.466
  0.494   0.516   0.522   0.539   0.588   0.608   0.625   0.629
  0.636   0.649   0.654   0.711   0.733   0.756   0.770   0.799
  0.815   0.843   0.884   0.928   0.940   0.964   0.971   0.995
  0.998   1.030   1.082   1.100   1.124   1.128   1.180   1.180
  1.205   1.235   1.250   1.289   1.295   1.306   1.344   1.351
  1.378   1.411   1.415   1.441   1.469   1.481   1.501   1.532
  1.555   1.561   1.580   1.613   1.630   1.675   1.688   1.704
  1.831   1.977   2.182   2.215   2.530   2.606   2.703   2.729
  2.753   2.871   2.914   2.925   3.015   3.035   3.066   3.113
  3.121   3.197   3.228   3.230   3.249   3.304   3.391   3.405
  3.448   3.477   3.493   3.519   3.596   3.611   3.639   3.693
  3.703   3.715   3.723   3.751   3.755   3.826   3.904   3.991
  4.006   4.060   4.097   4.098   4.149   4.150   4.158   4.236
  4.328   4.328   4.364   4.385   4.444   4.501   4.560   4.638
  4.641   4.647   4.676   4.715   4.769   4.909   4.910   5.165
  5.325   5.531   5.624   5.699   5.749   5.781   8.483  17.124
 17.304  17.422  23.588  23.600  23.656  23.669  23.835  24.229
 24.432  27.750  27.996  28.139  28.206  28.238  28.434  30.963
 30.967  30.971  30.975  30.977  30.987  31.000  40.900  40.926
 40.957  41.053  41.234  41.248  41.253  41.295  41.306  41.330
189.565
 --------------------------------------------------------------
 
          Ground-State Mulliken Net Atomic Charges

     Atom                 Charge (a.u.)
  ----------------------------------------
      1 C                    -0.433144
      2 C                    -0.041639
      3 S                    -0.275749
      4 H                     0.117770
      5 H                     0.115456
      6 H                     0.115434
      7 H                     0.121298
      8 H                     0.140302
      9 H                     0.140271
  ----------------------------------------
  Sum of atomic charges =     0.000000

 -----------------------------------------------------------------
                    Cartesian Multipole Moments
 -----------------------------------------------------------------
    Charge (ESU x 10^10)
                 0.0000
    Dipole Moment (Debye)
         X       0.1395      Y       0.1524      Z       1.6781
       Tot       1.6907
    Quadrupole Moments (Debye-Ang)
        XX     -29.5801     XY      -0.0179     YY     -25.4641
        XZ       0.0653     YZ      -0.1227     ZZ     -28.8283
    Octapole Moments (Debye-Ang^2)
       XXX       0.4931    XXY      -0.8406    XYY      -0.1991
       YYY       8.2256    XXZ       2.2075    XYZ       0.1423
       YYZ      -1.9807    XZZ      -0.3132    YZZ       0.7700
       ZZZ       0.9941
    Hexadecapole Moments (Debye-Ang^3)
      XXXX     -55.4845   XXXY       5.1083   XXYY     -42.9829
      XYYY       3.9597   YYYY    -191.7309   XXXZ      -5.5954
      XXYZ      20.1405   XYYZ      -1.4364   YYYZ      47.2603
      XXZZ     -40.4295   XYZZ       0.5870   YYZZ     -59.9973
      XZZZ      -4.4089   YZZZ      47.5832   ZZZZ    -173.5550
 -----------------------------------------------------------------
 Calculating analytic gradient of the SCF energy
 Gradient of AOints
            1           2           3           4           5           6
    1  -0.2043940  -0.4195125   1.0868359  -0.0404163   2.6108128  -2.9974007
    2   4.3708340   0.6684856  -2.6087868  -4.6566312  -1.4010131  -1.4010213
    3  -2.4437270  -5.0322104  13.1118298  -0.6219291  -2.5244427  -2.0524822
            7           8           9
    1  -0.2529349   2.7437149  -2.5267052
    2   1.5284086   1.7493778   1.7503464
    3  -2.9409590   1.0247917   1.4791288
 Gradient of XC Energy
            1           2           3           4           5           6
    1   0.0004197  -0.0014170  -0.0145213   0.0020734  -0.1158588   0.1292958
    2   0.0200162  -0.0193780  -0.0890772   0.1476352   0.0552124   0.0551721
    3   0.0049248  -0.0161204  -0.1771715   0.0286294   0.0899318   0.0692606
            7           8           9
    1   0.0122875  -0.1300882   0.1178089
    2  -0.0562938  -0.0566300  -0.0566570
    3   0.1426626  -0.0603880  -0.0817293
 Gradient of SCF Energy
            1           2           3           4           5           6
    1  -0.0000012   0.0000014  -0.0000216  -0.0000003   0.0000127   0.0000085
    2   0.0000569  -0.0000294   0.0000040   0.0000012   0.0000076  -0.0000001
    3   0.0000093   0.0000111  -0.0000139   0.0000034   0.0000066  -0.0000041
            7           8           9
    1   0.0000126  -0.0000075  -0.0000046
    2  -0.0000152  -0.0000069  -0.0000182
    3  -0.0000085   0.0000078  -0.0000117
 Max gradient component =       5.688E-05
 RMS gradient           =       1.548E-05
 Gradient time:  CPU 96.34 s  wall 96.86 s
 Geometry Optimization Parameters
   NAtoms,    NIC,     NZ,  NCons,   NDum,   NFix, NCnnct, MaxDiis
        9      51       0       0       0       0       0       0

 Cartesian Hessian Update
 Hessian Updated using BFGS Update


** GEOMETRY OPTIMIZATION IN DELOCALIZED INTERNAL COORDINATES **
   Searching for a Minimum

   Optimization Cycle:   5

                       Coordinates (Angstroms)
     ATOM              X           Y           Z
    1  C           0.070093   -1.438158    0.824331
    2  C           0.070273    0.070503    0.824397
    3  S          -0.072554    0.651188   -0.872148
    4  H          -0.053304    1.970938   -0.614348
    5  H          -0.772454    0.453815    1.415431
    6  H           1.000228    0.453573    1.265982
    7  H           0.158165   -1.826795    1.848597
    8  H          -0.859138   -1.834597    0.389559
    9  H           0.911359   -1.834785    0.237211
   Point Group: c1    Number of degrees of freedom:  21


   Energy is   -475.279784882

 Hessian Updated using BFGS Update

 21 Hessian modes will be used to form the next step
  Hessian Eigenvalues:
     0.003007    0.005598    0.046431    0.051023    0.055362    0.057698
     0.100853    0.119581    0.137501    0.158772    0.161197    0.177058
     0.220254    0.242767    0.256565    0.297101    0.337981    0.342270
     0.342463    0.342750    0.343735

 Minimum Search - Taking Simple RFO Step
 Searching for Lamda that Minimizes Along All modes
 Value Taken    Lamda =   0.00000000
 Step Taken.  Stepsize is  0.002703

                             Maximum     Tolerance    Cnvgd?
         Gradient           0.000032      0.000300     YES
         Displacement       0.002032      0.001200      NO
         Energy change      0.000000      0.000001     YES


                       Distance Matrix (Angstroms)
             C (  1)   C (  2)   S (  3)   H (  4)   H (  5)   H (  6)
   C (  2)  1.508661
   S (  3)  2.695136  1.798850
   H (  4)  3.702292  2.386821  1.344831
   H (  5)  2.153798  1.098380  2.400382  2.634169
   H (  6)  2.153800  1.098434  2.400315  2.635900  1.778971
   H (  7)  1.099052  2.157881  3.687287  4.531401  2.500973  2.499718
   H (  8)  1.099845  2.163861  2.896506  4.017374  2.509334  3.075887
   H (  9)  1.099887  2.163870  2.894620  4.017370  3.075893  2.510548
             H (  7)   H (  8)
   H (  8)  1.778695
   H (  9)  1.778743  1.777040
 


 ******************************
 **  OPTIMIZATION CONVERGED  **
 ******************************
 Analysis of SCF Wavefunction
 
 --------------------------------------------------------------
                    Orbital Energies (a.u.)
 --------------------------------------------------------------
 
 Alpha MOs
 -- Occupied --
-87.869  -9.987  -9.956  -7.816  -5.868  -5.863  -5.857  -0.936
 -0.830  -0.717  -0.581  -0.579  -0.504  -0.469  -0.467  -0.429
 -0.341
 -- Virtual --
  0.029   0.046   0.055   0.056   0.072   0.087   0.091   0.110
  0.122   0.125   0.147   0.161   0.163   0.168   0.173   0.180
  0.188   0.190   0.209   0.230   0.240   0.254   0.269   0.302
  0.327   0.335   0.373   0.391   0.409   0.421   0.459   0.466
  0.494   0.516   0.522   0.539   0.588   0.608   0.625   0.629
  0.636   0.649   0.654   0.711   0.733   0.756   0.770   0.799
  0.815   0.843   0.884   0.928   0.940   0.964   0.971   0.995
  0.998   1.030   1.082   1.100   1.124   1.128   1.180   1.180
  1.205   1.235   1.250   1.289   1.295   1.306   1.344   1.351
  1.378   1.411   1.415   1.441   1.469   1.481   1.501   1.532
  1.555   1.561   1.580   1.613   1.630   1.675   1.688   1.704
  1.831   1.977   2.182   2.215   2.530   2.606   2.703   2.729
  2.753   2.871   2.914   2.925   3.015   3.035   3.066   3.113
  3.121   3.197   3.228   3.230   3.249   3.304   3.391   3.405
  3.448   3.477   3.493   3.519   3.596   3.611   3.639   3.693
  3.703   3.715   3.723   3.751   3.755   3.826   3.904   3.991
  4.006   4.060   4.097   4.098   4.149   4.150   4.158   4.236
  4.328   4.328   4.364   4.385   4.444   4.501   4.560   4.638
  4.641   4.647   4.676   4.715   4.769   4.909   4.910   5.165
  5.325   5.531   5.624   5.699   5.749   5.781   8.483  17.124
 17.304  17.422  23.588  23.600  23.656  23.669  23.835  24.229
 24.432  27.750  27.996  28.139  28.206  28.238  28.434  30.963
 30.967  30.971  30.975  30.977  30.987  31.000  40.900  40.926
 40.957  41.053  41.234  41.248  41.253  41.295  41.306  41.330
189.565
 --------------------------------------------------------------
 
          Ground-State Mulliken Net Atomic Charges

     Atom                 Charge (a.u.)
  ----------------------------------------
      1 C                    -0.433144
      2 C                    -0.041639
      3 S                    -0.275749
      4 H                     0.117770
      5 H                     0.115456
      6 H                     0.115434
      7 H                     0.121298
      8 H                     0.140302
      9 H                     0.140271
  ----------------------------------------
  Sum of atomic charges =     0.000000

 -----------------------------------------------------------------
                    Cartesian Multipole Moments
 -----------------------------------------------------------------
    Charge (ESU x 10^10)
                 0.0000
    Dipole Moment (Debye)
         X       0.1395      Y       0.1524      Z       1.6781
       Tot       1.6907
    Quadrupole Moments (Debye-Ang)
        XX     -29.5801     XY      -0.0179     YY     -25.4641
        XZ       0.0653     YZ      -0.1227     ZZ     -28.8283
    Octapole Moments (Debye-Ang^2)
       XXX       0.4931    XXY      -0.8406    XYY      -0.1991
       YYY       8.2256    XXZ       2.2075    XYZ       0.1423
       YYZ      -1.9807    XZZ      -0.3132    YZZ       0.7700
       ZZZ       0.9941
    Hexadecapole Moments (Debye-Ang^3)
      XXXX     -55.4845   XXXY       5.1083   XXYY     -42.9829
      XYYY       3.9597   YYYY    -191.7309   XXXZ      -5.5954
      XXYZ      20.1405   XYYZ      -1.4364   YYYZ      47.2603
      XXZZ     -40.4295   XYZZ       0.5870   YYZZ     -59.9973
      XZZZ      -4.4089   YZZZ      47.5832   ZZZZ    -173.5550
 -----------------------------------------------------------------
 Total job time:  1358.93s(wall), 1349.09s(cpu) 
 Sun Apr 24 03:54:45 2011

        *************************************************************
        *                                                           *
        *  Thank you very much for using Q-Chem.  Have a nice day.  *
        *                                                           *
        *************************************************************


0 sent ACK to 0 
now end server 0 ... 
 
**********************************************************************
Job 2 of 2 
**********************************************************************
 
Process 0 of 1 is on cl247.stfx.acenet.ca - thread support 1
initial socket setup ...start
initial socket setup ...done 
now start server 0 ... 

cmd = /usr/bin/ssh clhead /usr/local/qchem/bin/get_hostid 1376362484 > /scratch/tmp/4506659.1.long.q/qchem3724/lic.dat
                  Welcome to Q-Chem
     A Quantum Leap Into The Future Of Chemistry

 Y. Shao, L. Fusti-Molnar, Y. Jung, J. Kussmann, C. Ochsenfeld,
 S. T. Brown, A. T. B. Gilbert, L. V. Slipchenko,S. V. Levchenko,
 D. P. O'Neill, R. A. DiStasio Jr., R. C. Lochan, T. Wang,
 G. J. O. Beran, N. A. Besley, J. M. Herbert, C. Y. Lin,
 T. Van Voorhis, S. H. Chien, A. Sodt, R. P. Steele, 
 V. A. Rassolov, P. E. Maslen, P. P. Korambath, R. D. Adamson,
 B. Austin, J. Baker, E. F. C. Byrd, H. Dachsel, R. J. Doerksen,
 A. Dreuw, B. D. Dunietz, A. D. Dutoi, T. R. Furlani,
 S. R. Gwaltney, A. Heyden, S. Hirata, C.-P. Hsu, G. Kedziora,
 R. Z. Khaliullin, P. Klunzinger, A. M. Lee, M. S. Lee, W. Liang,
 I. Lotan, N. Nair, B. Peters, E. I. Proynov, P. A. Pieniazek, 
 Y. M. Rhee, J. Ritchie, E. Rosta, C. D. Sherrill, 
 A. C. Simmonett, J. E. Subotnik, H. L. Woodcock III,
 W. Zhang, A. T. Bell, A. K. Chakraborty, D. M. Chipman,
 F. J. Keil, A. Warshel, W. J. Hehre, H. F. Schaefer III,
 J. Kong, A. I. Krylov, P. M. W. Gill, M. Head-Gordon,
 Q-Chem, Version 3.1, Q-Chem, Inc., Pittsburgh, PA (2007).

 Additional authors for Version 3.1: 
 Z. Gan, Y. Zhao, N. E. Schultz, D. Truhlar, E. Epifanovsky and M. Oana.

 Additional authors for Version 3.2: 
 R. Baer, B. R. Brooks, D. Casanova, J.-D. Chai, C.-L. Cheng, 
 C. Cramer, D. Crittenden, A. Ghysels, G. Hawkins, E. G. Hohenstein, 
 C. Kelley, W. Kurlancheek, D. Liotard, E. Livshits, P. Manohar, 
 A. Marenich, D. Neuhauser, R. Olson, M. A. Rohrdanz, K. S. Thanthiriwatte, 
 A. J. W. Thom, V. Vanovschi, C. F. Williams, Q. Wu and Z.-Q. You. 


 Intel X86 Linux Version

 Q-chem begins on Sun Apr 24 03:54:49 2011  

 Parallel job on  1  processors
Processing $rem in /usr/local/qchem/config/preferences.

theFileMan(): MAXOPENFILES=974 MAX_SUB_FILE_NUM=16
Maximum size of a physical file is 2.0 GB, maximum size of a tmp-file is 32.0 GB


--------------------------------------------------------------
User input:
--------------------------------------------------------------

$molecule 
READ 
$end 

$xc_functional
   X HF 1.0
   X BNL 1.0
   C LYP 1.0
$end

$rem
SYMMETRY_DECOMPOSITION	0
exchange 		general
BASIS                   g3large
omega			370 
JOBTYPE                 freq
IDERIV 1
SCF_GUESS READ
separate_jk		true
mem_static              760
max_scf_cycles          200
scf_final_print         1
sym_ignore              true
$end

--------------------------------------------------------------
 Writing REM_CC_EA            9
 ----------------------------------------------------
       Standard Nuclear Orientation (Angstroms)
    I     Atom         X            Y            Z
 ----------------------------------------------------
    1      C       0.070093    -1.438158     0.824331
    2      C       0.070273     0.070503     0.824397
    3      S      -0.072554     0.651188    -0.872148
    4      H      -0.053304     1.970938    -0.614348
    5      H      -0.772454     0.453815     1.415431
    6      H       1.000228     0.453573     1.265982
    7      H       0.158165    -1.826795     1.848597
    8      H      -0.859138    -1.834597     0.389559
    9      H       0.911359    -1.834785     0.237211
 ----------------------------------------------------
 Nuclear Repulsion Energy =   108.3592054842 hartrees
 There are       17 alpha and       17 beta electrons
 Requested basis set is G3large
 There are 75 shells and 210 basis functions

Total QAlloc Memory Limit   2000 MB
Mega-Array Size       759 MB
MEM_STATIC part       760 MB

                       Distance Matrix (Angstroms)
             C (  1)   C (  2)   S (  3)   H (  4)   H (  5)   H (  6)
   C (  2)  1.508661
   S (  3)  2.695136  1.798850
   H (  4)  3.702292  2.386821  1.344831
   H (  5)  2.153798  1.098380  2.400382  2.634169
   H (  6)  2.153800  1.098434  2.400315  2.635900  1.778971
   H (  7)  1.099052  2.157881  3.687287  4.531401  2.500973  2.499718
   H (  8)  1.099845  2.163861  2.896506  4.017374  2.509334  3.075887
   H (  9)  1.099887  2.163870  2.894620  4.017370  3.075893  2.510548
             H (  7)   H (  8)
   H (  8)  1.778695
   H (  9)  1.778743  1.777040
 
 A cutoff of  1.0D-11 yielded   2723 shell pairs
 There are  21460 function pairs ( 26958 Cartesian)
Evaluating contribution to one-electron hamiltonian from nuclear
 Smallest overlap matrix eigenvalue = 6.71E-05
 Multipole matrices computed through 2nd order
 Guess MOs from SCF MO coefficient file
Reading MOs from coefficient file
Reading MOs from coefficient file
 A restricted hybrid HF-DFT SCF calculation will be
 performed using Pulay DIIS extrapolation
 Exchange:     1.0000 Hartree-Fock + 1.0000 BNL
 Correlation:  1.0000 LYP
 Using SG-1 standard quadrature grid
 SCF converges when DIIS error is below 1.0E-08
 ---------------------------------------
  Cycle       Energy         DIIS Error
 ---------------------------------------
    1    -475.2797848417      2.70E-09
    2    -475.2797848408      1.81E-09 Convergence criterion met
 ---------------------------------------
 One-Electron    Energy =  -870.9723197162
 Total Coulomb   Energy =   323.2186489750
 Alpha Exchange  Energy =    -3.1980695632
 Beta  Exchange  Energy =    -3.1980695632
 DFT   Exchange  Energy =   -28.2695227565
 DFT Correlation Energy =    -1.2196577010
 Nuclear Repu.   Energy =   108.3592054842
 Nuclear Attr.   Energy = -1345.0833586308
 Kinetic         Energy =   474.1110389145
 SCF time:  CPU 39.32 s  wall 39.48 s
 Final Alpha MO Eigenvalues
            1           2           3           4           5           6
    1 -87.8693665  -9.9873848  -9.9558478  -7.8163073  -5.8676165  -5.8633111
            7           8           9          10          11          12
    1  -5.8565357  -0.9363986  -0.8295748  -0.7174625  -0.5811020  -0.5788411
           13          14          15          16          17          18
    1  -0.5037134  -0.4693912  -0.4674675  -0.4293533  -0.3405871   0.0285477
           19          20          21          22
    1   0.0463494   0.0547395   0.0557500   0.0723434
 Analysis of SCF Wavefunction
 
 --------------------------------------------------------------
                    Orbital Energies (a.u.)
 --------------------------------------------------------------
 
 Alpha MOs
 -- Occupied --
-87.869  -9.987  -9.956  -7.816  -5.868  -5.863  -5.857  -0.936
 -0.830  -0.717  -0.581  -0.579  -0.504  -0.469  -0.467  -0.429
 -0.341
 -- Virtual --
  0.029   0.046   0.055   0.056   0.072   0.087   0.091   0.110
  0.122   0.125   0.147   0.161   0.163   0.168   0.173   0.180
  0.188   0.190   0.209   0.230   0.240   0.254   0.269   0.302
  0.327   0.335   0.373   0.391   0.409   0.421   0.459   0.466
  0.494   0.516   0.522   0.539   0.588   0.608   0.625   0.629
  0.636   0.649   0.654   0.711   0.733   0.756   0.770   0.799
  0.815   0.843   0.884   0.928   0.940   0.964   0.971   0.995
  0.998   1.030   1.082   1.100   1.124   1.128   1.180   1.180
  1.205   1.235   1.250   1.289   1.295   1.306   1.344   1.351
  1.378   1.411   1.415   1.441   1.469   1.481   1.501   1.532
  1.555   1.561   1.580   1.613   1.630   1.675   1.688   1.704
  1.831   1.977   2.182   2.215   2.530   2.606   2.703   2.729
  2.753   2.871   2.914   2.925   3.015   3.035   3.066   3.113
  3.121   3.197   3.228   3.230   3.249   3.304   3.391   3.405
  3.448   3.477   3.493   3.519   3.596   3.611   3.639   3.693
  3.703   3.715   3.723   3.751   3.755   3.826   3.904   3.991
  4.006   4.060   4.097   4.098   4.149   4.150   4.158   4.236
  4.328   4.328   4.364   4.385   4.444   4.501   4.560   4.638
  4.641   4.647   4.676   4.715   4.769   4.909   4.910   5.165
  5.325   5.531   5.624   5.699   5.749   5.781   8.483  17.124
 17.304  17.422  23.588  23.600  23.656  23.669  23.835  24.229
 24.432  27.750  27.996  28.139  28.206  28.238  28.434  30.963
 30.967  30.971  30.975  30.977  30.987  31.000  40.900  40.926
 40.957  41.053  41.234  41.248  41.253  41.295  41.306  41.330
189.565
 --------------------------------------------------------------
 
          Ground-State Mulliken Net Atomic Charges

     Atom                 Charge (a.u.)
  ----------------------------------------
      1 C                    -0.433144
      2 C                    -0.041639
      3 S                    -0.275749
      4 H                     0.117770
      5 H                     0.115456
      6 H                     0.115434
      7 H                     0.121298
      8 H                     0.140303
      9 H                     0.140271
  ----------------------------------------
  Sum of atomic charges =     0.000000

 -----------------------------------------------------------------
                    Cartesian Multipole Moments
 -----------------------------------------------------------------
    Charge (ESU x 10^10)
                 0.0000
    Dipole Moment (Debye)
         X       0.1395      Y       0.1524      Z       1.6781
       Tot       1.6907
    Quadrupole Moments (Debye-Ang)
        XX     -29.5801     XY      -0.0179     YY     -25.4641
        XZ       0.0653     YZ      -0.1227     ZZ     -28.8283
    Octapole Moments (Debye-Ang^2)
       XXX       0.4931    XXY      -0.8406    XYY      -0.1991
       YYY       8.2256    XXZ       2.2075    XYZ       0.1423
       YYZ      -1.9807    XZZ      -0.3132    YZZ       0.7700
       ZZZ       0.9941
    Hexadecapole Moments (Debye-Ang^3)
      XXXX     -55.4845   XXXY       5.1083   XXYY     -42.9829
      XYYY       3.9597   YYYY    -191.7309   XXXZ      -5.5953
      XXYZ      20.1405   XYYZ      -1.4364   YYYZ      47.2603
      XXZZ     -40.4295   XYZZ       0.5870   YYZZ     -59.9973
      XZZZ      -4.4089   YZZZ      47.5832   ZZZZ    -173.5550
 -----------------------------------------------------------------
 Calculating analytic gradient of the SCF energy
 Gradient of AOints
            1           2           3           4           5           6
    1  -0.2043940  -0.4195151   1.0868402  -0.0404173   2.6108126  -2.9974010
    2   4.3708341   0.6684858  -2.6087871  -4.6566312  -1.4010131  -1.4010215
    3  -2.4437275  -5.0322095  13.1118293  -0.6219289  -2.5244426  -2.0524824
            7           8           9
    1  -0.2529351   2.7437150  -2.5267053
    2   1.5284086   1.7493779   1.7503465
    3  -2.9409591   1.0247917   1.4791290
 Gradient of XC Energy
            1           2           3           4           5           6
    1   0.0004197  -0.0014170  -0.0145214   0.0020734  -0.1158588   0.1292958
    2   0.0200162  -0.0193780  -0.0890772   0.1476352   0.0552124   0.0551721
    3   0.0049249  -0.0161204  -0.1771715   0.0286294   0.0899318   0.0692606
            7           8           9
    1   0.0122875  -0.1300882   0.1178089
    2  -0.0562938  -0.0566300  -0.0566570
    3   0.1426626  -0.0603880  -0.0817293
 Gradient of SCF Energy
            1           2           3           4           5           6
    1  -0.0000012   0.0000014  -0.0000217  -0.0000003   0.0000128   0.0000085
    2   0.0000569  -0.0000294   0.0000040   0.0000012   0.0000076  -0.0000001
    3   0.0000093   0.0000111  -0.0000139   0.0000034   0.0000066  -0.0000041
            7           8           9
    1   0.0000126  -0.0000075  -0.0000046
    2  -0.0000152  -0.0000068  -0.0000182
    3  -0.0000085   0.0000078  -0.0000117
 Max gradient component =       5.688E-05
 RMS gradient           =       1.548E-05
 Gradient time:  CPU 94.41 s  wall 94.55 s
 ######################################################
 ######################################################
 # Starting finite difference calculation for IDERIV  #
 Finite diff step size: 1.89e-03 a.u.
 Writing REM_CC_EA            9
 ----------------------------------------------------
       Standard Nuclear Orientation (Angstroms)
    I     Atom         X            Y            Z
 ----------------------------------------------------
    1      C       0.071093    -1.438158     0.824331
    2      C       0.070273     0.070503     0.824397
    3      S      -0.072554     0.651188    -0.872148
    4      H      -0.053304     1.970938    -0.614348
    5      H      -0.772454     0.453815     1.415431
    6      H       1.000228     0.453573     1.265982
    7      H       0.158165    -1.826795     1.848597
    8      H      -0.859138    -1.834597     0.389559
    9      H       0.911359    -1.834785     0.237211
 ----------------------------------------------------
 Nuclear Repulsion Energy =   108.3588537645 hartrees
 There are       17 alpha and       17 beta electrons

                       Distance Matrix (Angstroms)
             C (  1)   C (  2)   S (  3)   H (  4)   H (  5)   H (  6)
   C (  2)  1.508662
   S (  3)  2.695189  1.798850
   H (  4)  3.702325  2.386821  1.344831
   H (  5)  2.154190  1.098380  2.400382  2.634169
   H (  6)  2.153369  1.098434  2.400315  2.635900  1.778971
   H (  7)  1.098973  2.157881  3.687287  4.531401  2.500973  2.499718
   H (  8)  1.100690  2.163861  2.896506  4.017374  2.509334  3.075887
   H (  9)  1.099122  2.163870  2.894620  4.017370  3.075893  2.510548
             H (  7)   H (  8)
   H (  8)  1.778695
   H (  9)  1.778743  1.777040
 
 Requested basis set is G3large
 There are 75 shells and 210 basis functions
 A cutoff of  1.0D-11 yielded   2723 shell pairs
 There are  21460 function pairs ( 26958 Cartesian)
Evaluating contribution to one-electron hamiltonian from nuclear
 Smallest overlap matrix eigenvalue = 6.71E-05
 Multipole matrices computed through 2nd order
 Guess MOs from SCF MO coefficient file
Reading MOs from coefficient file
Reading MOs from coefficient file
 A restricted hybrid HF-DFT SCF calculation will be
 performed using Pulay DIIS extrapolation
 Exchange:     1.0000 Hartree-Fock + 1.0000 BNL
 Correlation:  1.0000 LYP
 Using SG-1 standard quadrature grid
 SCF converges when DIIS error is below 1.0E-08
 ---------------------------------------
  Cycle       Energy         DIIS Error
 ---------------------------------------
    1    -475.2797839094      2.08E-05
    2    -475.2797837817      2.74E-06
    3    -475.2797838343      1.03E-06
    4    -475.2797838369      1.82E-07
    5    -475.2797838398      6.73E-08
    6    -475.2797838376      1.65E-08
    7    -475.2797838395      7.34E-09 Convergence criterion met
 ---------------------------------------
 One-Electron    Energy =  -870.9715928697
 Total Coulomb   Energy =   323.2182732039
 Alpha Exchange  Energy =    -3.1980695017
 Beta  Exchange  Energy =    -3.1980695017
 DFT   Exchange  Energy =   -28.2695213982
 DFT Correlation Energy =    -1.2196575367
 Nuclear Repu.   Energy =   108.3588537645
 Nuclear Attr.   Energy = -1345.0826222870
 Kinetic         Energy =   474.1110294173
 SCF time:  CPU 119.38 s  wall 124.56 s
 Final Alpha MO Eigenvalues
            1           2           3           4           5           6
    1 -87.8693683  -9.9873844  -9.9558477  -7.8163090  -5.8676182  -5.8633128
            7           8           9          10          11          12
    1  -5.8565374  -0.9363976  -0.8295773  -0.7174612  -0.5810982  -0.5788458
           13          14          15          16          17          18
    1  -0.5037111  -0.4694095  -0.4674511  -0.4293531  -0.3405878   0.0285480
           19          20          21          22
    1   0.0463490   0.0547394   0.0557504   0.0723423
 Analysis of SCF Wavefunction
 
 --------------------------------------------------------------
                    Orbital Energies (a.u.)
 --------------------------------------------------------------
 
 Alpha MOs
 -- Occupied --
-87.869  -9.987  -9.956  -7.816  -5.868  -5.863  -5.857  -0.936
 -0.830  -0.717  -0.581  -0.579  -0.504  -0.469  -0.467  -0.429
 -0.341
 -- Virtual --
  0.029   0.046   0.055   0.056   0.072   0.087   0.091   0.110
  0.122   0.125   0.147   0.161   0.163   0.168   0.173   0.180
  0.188   0.190   0.209   0.230   0.240   0.254   0.269   0.302
  0.327   0.335   0.373   0.391   0.409   0.421   0.459   0.466
  0.494   0.516   0.522   0.539   0.588   0.608   0.625   0.629
  0.636   0.649   0.654   0.711   0.733   0.756   0.770   0.799
  0.815   0.843   0.884   0.928   0.940   0.964   0.971   0.995
  0.998   1.030   1.082   1.100   1.124   1.128   1.180   1.180
  1.205   1.235   1.250   1.289   1.295   1.306   1.344   1.351
  1.378   1.411   1.415   1.441   1.468   1.481   1.501   1.532
  1.555   1.561   1.580   1.613   1.630   1.675   1.688   1.704
  1.831   1.977   2.182   2.215   2.530   2.606   2.703   2.729
  2.753   2.871   2.914   2.925   3.015   3.035   3.066   3.113
  3.121   3.197   3.228   3.230   3.249   3.304   3.391   3.405
  3.448   3.477   3.493   3.519   3.596   3.611   3.639   3.693
  3.703   3.715   3.723   3.751   3.755   3.826   3.904   3.991
  4.006   4.060   4.097   4.098   4.149   4.149   4.158   4.236
  4.328   4.328   4.364   4.385   4.444   4.501   4.560   4.638
  4.641   4.647   4.676   4.715   4.769   4.909   4.910   5.165
  5.325   5.531   5.624   5.699   5.749   5.781   8.483  17.124
 17.304  17.422  23.588  23.600  23.656  23.669  23.835  24.229
 24.432  27.750  27.996  28.139  28.206  28.238  28.434  30.963
 30.967  30.971  30.975  30.977  30.987  31.000  40.900  40.926
 40.957  41.053  41.234  41.248  41.253  41.295  41.306  41.330
189.565
 --------------------------------------------------------------
 
          Ground-State Mulliken Net Atomic Charges

     Atom                 Charge (a.u.)
  ----------------------------------------
      1 C                    -0.433145
      2 C                    -0.041642
      3 S                    -0.275743
      4 H                     0.117773
      5 H                     0.115513
      6 H                     0.115372
      7 H                     0.121319
      8 H                     0.140079
      9 H                     0.140475
  ----------------------------------------
  Sum of atomic charges =     0.000000

 -----------------------------------------------------------------
                    Cartesian Multipole Moments
[...]
Order 1, Length 27
   0.0005170  -0.0051544  -0.0756411  -0.0110871   0.0683916   0.4326961  -0.0115753   0.0310152  -0.1643131   0.0004757  -0.0029936   0.0054865   0.1092049  -0.0510811  -0.1164430  -0.0873701  -0.0390084  -0.0825757   0.0002796   0.0303143   0.0020206   0.0009175  -0.0133244  -0.0008043  -0.0013608  -0.0181496  -0.0004325
Order 1, Length 27
   0.0018596   0.0004989  -0.0003580  -0.0327613   0.0005780  -0.0115753   0.0246438   0.0008887   0.0188979  -0.0024499  -0.0035822  -0.0029356   0.0061003  -0.0059084   0.0142083   0.0037203   0.0077079  -0.0187052  -0.0001780  -0.0001255   0.0001539  -0.0004050  -0.0004858   0.0006569  -0.0005192   0.0004342  -0.0003439
Order 1, Length 27
   0.0026787  -0.0133073   0.0315766   0.0028867  -0.0505745   0.0310152   0.0008887   0.3260795   0.0188735  -0.0059495  -0.2626167  -0.0752607  -0.0017577   0.0015987  -0.0027186   0.0012769   0.0016193  -0.0029859  -0.0000280  -0.0053935  -0.0003484  -0.0004167   0.0013115  -0.0000340   0.0004233   0.0012816  -0.0001038
Order 1, Length 27
  -0.0003510   0.0057494  -0.0021700  -0.0115284   0.0035576  -0.1643131   0.0188979   0.0188735   0.2450860  -0.0029849  -0.0468734  -0.0401269  -0.0046890   0.0111421  -0.0225544   0.0001776   0.0100455  -0.0202623   0.0001554  -0.0015750   0.0016606   0.0003534  -0.0004239   0.0012808  -0.0000292  -0.0004923   0.0013949
Order 1, Length 27
  -0.0005333   0.0000987  -0.0005541  -0.0001418   0.0022201   0.0004757  -0.0024499  -0.0059495  -0.0029849   0.0020677   0.0035712   0.0029072  -0.0002156  -0.0002484  -0.0006569  -0.0001413   0.0001686   0.0009359   0.0008666   0.0001698  -0.0000698   0.0002884   0.0004543  -0.0000425   0.0002398  -0.0004935  -0.0000117
Order 1, Length 27
   0.0003404  -0.0004059   0.0039742  -0.0002425  -0.0081746  -0.0029936  -0.0035822  -0.2626167  -0.0468734   0.0035712   0.2704330   0.0468241  -0.0004229   0.0004484  -0.0003694   0.0003548   0.0004176  -0.0004135  -0.0000044  -0.0007280  -0.0000369   0.0001286   0.0003119  -0.0000729  -0.0001455   0.0003166  -0.0000460
Order 1, Length 27
  -0.0005698   0.0011535  -0.0071813   0.0004698   0.0262881   0.0054865  -0.0029356  -0.0752607  -0.0401269   0.0029072   0.0468241   0.0392080   0.0004630  -0.0003507   0.0014152  -0.0002064  -0.0003755   0.0013161  -0.0000681   0.0020635   0.0000429   0.0002288  -0.0002101  -0.0001004  -0.0002882  -0.0001334  -0.0000582
Order 1, Length 27
   0.0017920  -0.0008469  -0.0014464  -0.2102604   0.0706155   0.1092049   0.0061003  -0.0017577  -0.0046890  -0.0002156  -0.0004229   0.0004630   0.2190365  -0.0770989  -0.1157660  -0.0184186   0.0093638   0.0131323  -0.0000946   0.0004630  -0.0001739   0.0007540   0.0001890  -0.0002585   0.0013108  -0.0005019  -0.0004663
Order 1, Length 27
   0.0260487  -0.0130107  -0.0175365   0.0665231  -0.0748651  -0.0510811  -0.0059084   0.0015987   0.0111421  -0.0002484   0.0004484  -0.0003507  -0.0770989   0.0849753   0.0512586  -0.0084642   0.0043870   0.0060700   0.0000143   0.0012641   0.0003819  -0.0003250   0.0013952  -0.0001607  -0.0005432  -0.0061928   0.0002785
Order 1, Length 27
  -0.0016846   0.0005040   0.0017240   0.1126361  -0.0533951  -0.1164430   0.0142083  -0.0027186  -0.0225544  -0.0006569  -0.0003694   0.0014152  -0.1157660   0.0512586   0.1270106  -0.0086678   0.0045671   0.0079078  -0.0002404  -0.0002387   0.0004084   0.0001746  -0.0000581  -0.0003856  -0.0000055   0.0004458   0.0009168
Order 1, Length 27
   0.0022742   0.0008849   0.0013271  -0.2442407  -0.0786865  -0.0873701   0.0037203   0.0012769   0.0001776  -0.0001413   0.0003548  -0.0002064  -0.0184186  -0.0084642  -0.0086678   0.2547040   0.0847751   0.0940425   0.0000047  -0.0005050   0.0002473   0.0013789   0.0005616   0.0003874   0.0007184  -0.0001990   0.0000655
Order 1, Length 27
  -0.0286398  -0.0130226  -0.0128830  -0.0743206  -0.0748790  -0.0390084   0.0077079   0.0016193   0.0100455   0.0001686   0.0004176  -0.0003755   0.0093638   0.0043870   0.0045671   0.0847751   0.0850434   0.0373198   0.0000703   0.0012475   0.0003846   0.0005820  -0.0061947   0.0001701   0.0002925   0.0013825  -0.0002179
Order 1, Length 27
   0.0015870   0.0003564   0.0012165  -0.0908717  -0.0405735  -0.0825757  -0.0187052  -0.0029859  -0.0202623   0.0009359  -0.0004135   0.0013161   0.0131323   0.0060700   0.0079078   0.0940425   0.0373198   0.0915823   0.0003171  -0.0001044   0.0003241  -0.0000720   0.0003603   0.0008514  -0.0003679  -0.0000336  -0.0003582
Order 1, Length 27
  -0.0459631   0.0073850  -0.0203360  -0.0013197  -0.0001207   0.0002796  -0.0001780  -0.0000280   0.0001554   0.0008666  -0.0000044  -0.0000681  -0.0000946   0.0000143  -0.0002404   0.0000047   0.0000703   0.0003171   0.0443523  -0.0080221   0.0220950  -0.0007113   0.0100213  -0.0239864   0.0030428  -0.0093162   0.0217835
Order 1, Length 27
   0.0072196  -0.0756992   0.0839789   0.0026076  -0.0108816   0.0303143  -0.0001255  -0.0053935  -0.0015750   0.0001698  -0.0007280   0.0020635   0.0004630   0.0012641  -0.0002387  -0.0005050   0.0012475  -0.0001044  -0.0080221   0.0833177  -0.0933710   0.0004959   0.0034293  -0.0106607  -0.0023035   0.0034438  -0.0104045
Order 1, Length 27
  -0.0203795   0.0863571  -0.2797785   0.0003039  -0.0014553   0.0020206   0.0001539  -0.0003484   0.0016606  -0.0000698  -0.0000369   0.0000429  -0.0001739   0.0003819   0.0004084   0.0002473   0.0003846   0.0003241   0.0220950  -0.0933710   0.2980174   0.0003807   0.0032140  -0.0095168  -0.0025576   0.0048677  -0.0131810
Order 1, Length 27
  -0.2376941  -0.0786815  -0.0887657   0.0020370   0.0005276   0.0009175  -0.0004050  -0.0004167   0.0003534   0.0002884   0.0001286   0.0002288   0.0007540  -0.0003250   0.0001746   0.0013789   0.0005820  -0.0000720  -0.0007113   0.0004959   0.0003807   0.2521892   0.0856473   0.0967693  -0.0178374  -0.0079537  -0.0099812
Order 1, Length 27
  -0.0759136  -0.0765232  -0.0351862  -0.0295044  -0.0131248  -0.0133244  -0.0004858   0.0013115  -0.0004239   0.0004543   0.0003119  -0.0002101   0.0001890   0.0013952  -0.0000581   0.0005616  -0.0061947   0.0003603   0.0100213   0.0034293   0.0032140   0.0856473   0.0859434   0.0400133   0.0090302   0.0034533   0.0056189
Order 1, Length 27
  -0.0887614  -0.0366912  -0.0869913   0.0008856   0.0003610  -0.0008043   0.0006569  -0.0000340   0.0012808  -0.0000425  -0.0000729  -0.0001004  -0.0002585  -0.0001607  -0.0003856   0.0003874   0.0001701   0.0008514  -0.0239864  -0.0106607  -0.0095168   0.0967693   0.0400133   0.0884121   0.0143481   0.0070769   0.0072565
Order 1, Length 27
  -0.2034084   0.0712020   0.1088487   0.0016795  -0.0004935  -0.0013608  -0.0005192   0.0004233  -0.0000292   0.0002398  -0.0001455  -0.0002882   0.0013108  -0.0005432  -0.0000055   0.0007184   0.0002925  -0.0003679   0.0030428  -0.0023035  -0.0025576  -0.0178374   0.0090302   0.0143481   0.2147682  -0.0774694  -0.1185920
Order 1, Length 27
   0.0686983  -0.0767104  -0.0477127   0.0268025  -0.0130399  -0.0181496   0.0004342   0.0012816  -0.0004923  -0.0004935   0.0003166  -0.0001334  -0.0005019  -0.0061928   0.0004458  -0.0001990   0.0013825  -0.0000336  -0.0093162   0.0034438   0.0048677  -0.0079537   0.0034533   0.0070769  -0.0774694   0.0860683   0.0541346
Order 1, Length 27
   0.1088592  -0.0496733  -0.1212740  -0.0013074   0.0004188  -0.0004325  -0.0003439  -0.0001038   0.0013949  -0.0000117  -0.0000460  -0.0000582  -0.0004663   0.0002785   0.0009168   0.0000655  -0.0002179  -0.0003582   0.0217835  -0.0104045  -0.0131810  -0.0099812   0.0056189   0.0072565  -0.1185920   0.0541346   0.1257393


 # Finishing finite difference calculation for IDERIV #
 ######################################################
 ######################################################
 Requested basis set is G3large
 There are 75 shells and 210 basis functions
 **********************************************************************
 **                                                                  **
 **                       VIBRATIONAL ANALYSIS                       **
 **                       --------------------                       **
 **                                                                  **
 **        VIBRATIONAL FREQUENCIES (CM**-1) AND NORMAL MODES         **
 **     FORCE CONSTANTS (mDYN/ANGSTROM) AND REDUCED MASSES (AMU)     **
 **                  INFRARED INTENSITIES (KM/MOL)                   **
 **                                                                  **
 **********************************************************************
 

 Mode:                 1                      2                      3
 Frequency:       207.80                 256.37                 310.21
 Force Cnst:      0.0272                 0.0427                 0.1736
 Red. Mass:       1.0680                 1.1018                 3.0614
 IR Active:          YES                    YES                    YES
 IR Intens:       13.371                  4.501                  2.142
 Raman Active:       YES                    YES                    YES
               X      Y      Z        X      Y      Z        X      Y      Z
 C          0.031 -0.001 -0.001    0.027 -0.001  0.000    0.018 -0.162  0.226
 C         -0.001 -0.001 -0.001   -0.087 -0.001  0.006   -0.008 -0.153 -0.120
 S         -0.040  0.001  0.003    0.007  0.001 -0.001   -0.006  0.139 -0.077
 H          0.807  0.001 -0.061    0.551  0.001 -0.041   -0.004  0.062  0.303
 H          0.006 -0.014  0.018   -0.132 -0.054 -0.022    0.006 -0.111 -0.127
 H          0.002  0.013 -0.021   -0.127  0.053  0.042   -0.021 -0.114 -0.125
 H         -0.308  0.002  0.029    0.517  0.001 -0.042    0.025  0.196  0.364
 H          0.178 -0.023 -0.299   -0.128 -0.087  0.409    0.025 -0.344  0.379
 H          0.227  0.019  0.270   -0.195  0.082 -0.375    0.039 -0.350  0.384
 TransDip   0.117  0.000 -0.009    0.068  0.000 -0.005    0.001 -0.028  0.038

 Mode:                 4                      5                      6
 Frequency:       725.64                 784.63                 880.88
 Force Cnst:      1.0800                 0.4027                 0.5070
 Red. Mass:       3.4812                 1.1101                 1.1090
 IR Active:          YES                    YES                    YES
 IR Intens:        0.200                  5.057                  1.187
 Raman Active:       YES                    YES                    YES
               X      Y      Z        X      Y      Z        X      Y      Z
 C          0.006 -0.106  0.075    0.036  0.000 -0.003    0.003  0.056  0.042
 C          0.030 -0.021  0.358    0.086  0.000 -0.007    0.001 -0.028  0.008
 S         -0.013  0.055 -0.157   -0.015  0.000  0.001   -0.003 -0.016 -0.031
 H         -0.029  0.097 -0.361    0.040  0.000 -0.001    0.068 -0.196  0.863
 H          0.009  0.015  0.305   -0.278 -0.367 -0.285   -0.008  0.105 -0.091
 H          0.044  0.013  0.299   -0.227  0.371  0.327   -0.006  0.099 -0.086
 H         -0.011 -0.636 -0.123   -0.179 -0.003  0.015   -0.005 -0.238 -0.073
 H          0.010  0.131 -0.151   -0.167  0.391  0.064    0.012  0.199 -0.112
 H         -0.032  0.135 -0.145   -0.174 -0.389 -0.035   -0.029  0.204 -0.107
 TransDip   0.000 -0.014 -0.002   -0.072  0.000  0.006   -0.002 -0.027 -0.021

 Mode:                 7                      8                      9
 Frequency:      1016.61                1036.69                1121.22
 Force Cnst:      1.0322                 0.7785                 1.4414
 Red. Mass:       1.6951                 1.2294                 1.9461
 IR Active:          YES                    YES                    YES
 IR Intens:        3.463                  0.218                  2.467
 Raman Active:       YES                    YES                    YES
               X      Y      Z        X      Y      Z        X      Y      Z
 C         -0.002  0.153 -0.089   -0.078  0.008  0.002   -0.011 -0.132 -0.125
 C          0.001 -0.126  0.102    0.113 -0.007 -0.004    0.008  0.205  0.089
 S         -0.002 -0.004 -0.041   -0.020  0.000  0.000   -0.002 -0.017 -0.023
 H          0.014 -0.049  0.190    0.021 -0.001  0.001    0.040 -0.116  0.492
 H          0.018 -0.390  0.300   -0.153  0.189 -0.522    0.009  0.196  0.113
 H          0.039 -0.357  0.224   -0.059 -0.222  0.561    0.010  0.194  0.114
 H         -0.006  0.637  0.098    0.210  0.034 -0.013    0.004  0.269  0.038
 H         -0.056  0.010  0.174    0.094 -0.327 -0.045   -0.034 -0.444  0.208
 H          0.070 -0.036  0.157    0.108  0.321  0.046    0.069 -0.444  0.199
 TransDip   0.005 -0.035  0.048   -0.014 -0.002  0.005    0.001 -0.049  0.013

 Mode:                10                     11                     12
 Frequency:      1247.87                1291.64                1387.57
 Force Cnst:      1.1245                 1.3499                 1.4756
 Red. Mass:       1.2256                 1.3733                 1.3008
 IR Active:          YES                    YES                    YES
 IR Intens:        0.715                 16.059                 13.027
 Raman Active:       YES                    YES                    YES
               X      Y      Z        X      Y      Z        X      Y      Z
 C          0.117  0.000 -0.012   -0.009  0.001 -0.064   -0.001  0.158 -0.011
 C         -0.076 -0.003  0.010    0.011 -0.131  0.107    0.001 -0.037  0.016
 S         -0.007  0.000  0.001    0.001  0.007  0.008    0.000  0.001  0.003
 H          0.003  0.001 -0.004   -0.010  0.032 -0.116   -0.003  0.011 -0.043
 H          0.009  0.565 -0.245   -0.073  0.463 -0.414   -0.046  0.009 -0.091
 H          0.055 -0.544  0.213    0.001  0.499 -0.443    0.030  0.009 -0.099
 H         -0.208  0.009  0.020    0.008  0.276  0.038   -0.018 -0.519 -0.255
 H         -0.069  0.306  0.102   -0.087  0.027  0.097    0.187 -0.492  0.161
 H         -0.078 -0.302 -0.082    0.107  0.042  0.085   -0.157 -0.500  0.195
 TransDip  -0.026 -0.001  0.006    0.012 -0.017  0.127    0.002 -0.115  0.012

 Mode:                13                     14                     15
 Frequency:      1448.87                1454.49                1460.49
 Force Cnst:      1.2785                 1.3350                 1.3500
 Red. Mass:       1.0337                 1.0711                 1.0742
 IR Active:          YES                    YES                    YES
 IR Intens:       14.209                  3.772                  7.468
 Raman Active:       YES                    YES                    YES
               X      Y      Z        X      Y      Z        X      Y      Z
 C         -0.043 -0.002  0.002    0.000  0.020  0.022   -0.003  0.001 -0.043
 C         -0.022  0.003  0.003   -0.004 -0.063 -0.030   -0.005 -0.033 -0.055
 S          0.000  0.000  0.000    0.000  0.000 -0.002    0.000  0.000  0.001
 H          0.012  0.000 -0.001    0.000  0.000 -0.010   -0.002  0.004 -0.020
 H         -0.014  0.040 -0.007    0.372  0.324  0.285    0.277  0.169  0.234
 H          0.013 -0.067 -0.018   -0.318  0.314  0.344   -0.233  0.167  0.278
 H          0.688 -0.009 -0.063    0.040  0.188  0.070   -0.019 -0.288 -0.140
 H         -0.004  0.344 -0.364    0.215 -0.138 -0.307   -0.282  0.163  0.426
 H          0.092 -0.321  0.389   -0.257 -0.174 -0.229    0.349  0.170  0.364
 TransDip   0.120 -0.002 -0.008    0.004  0.057 -0.024    0.006  0.038  0.079

 Mode:                16                     17                     18
 Frequency:      2749.61                3016.18                3041.32
 Force Cnst:      4.6259                 5.5583                 5.7753
 Red. Mass:       1.0385                 1.0370                 1.0597
 IR Active:          YES                    YES                    YES
 IR Intens:        0.129                  9.883                 11.661
 Raman Active:       YES                    YES                    YES
               X      Y      Z        X      Y      Z        X      Y      Z
 C          0.000  0.000  0.001    0.000 -0.051 -0.004    0.001  0.000  0.009
 C          0.000  0.000  0.000    0.000  0.002  0.001   -0.004 -0.042 -0.053
 S          0.000 -0.031 -0.006    0.000  0.000  0.000    0.000  0.000  0.000
 H          0.015  0.980  0.195    0.000  0.003  0.002    0.000  0.010 -0.002
 H          0.006 -0.002 -0.004    0.011 -0.006 -0.007   -0.552  0.240  0.364
 H         -0.006 -0.002 -0.003   -0.011 -0.006 -0.005    0.603  0.239  0.265
 H          0.000 -0.001  0.002   -0.044  0.182 -0.504   -0.008  0.030 -0.090
 H         -0.001  0.000 -0.002    0.505  0.205  0.233   -0.022 -0.008 -0.007
 H          0.001  0.000 -0.002   -0.461  0.207  0.319    0.021 -0.009 -0.012
 TransDip   0.001 -0.006  0.010    0.002 -0.099  0.018   -0.009 -0.033 -0.104

 Mode:                19                     20                     21
 Frequency:      3082.60                3100.04                3102.62
 Force Cnst:      6.1966                 6.2471                 6.2780
 Red. Mass:       1.1068                 1.1033                 1.1069
 IR Active:          YES                    YES                    YES
 IR Intens:        0.427                  8.670                  7.780
 Raman Active:       YES                    YES                    YES
               X      Y      Z        X      Y      Z        X      Y      Z
 C          0.064  0.000 -0.006   -0.005  0.002 -0.093   -0.068  0.000  0.002
 C         -0.070  0.000  0.006    0.003 -0.005 -0.007   -0.066  0.000  0.005
 S          0.000  0.000  0.000    0.000  0.000  0.000    0.000  0.000  0.000
 H          0.000  0.000  0.000    0.000  0.001  0.000    0.002  0.000  0.000
 H          0.392 -0.180 -0.273   -0.075  0.035  0.051    0.367 -0.171 -0.253
 H          0.435  0.181  0.204    0.042  0.018  0.018    0.411  0.174  0.191
 H          0.012 -0.002  0.003    0.068 -0.293  0.778   -0.007 -0.013  0.036
 H         -0.407 -0.172 -0.195    0.306  0.127  0.127    0.447  0.193  0.213
 H         -0.368  0.172  0.262   -0.312  0.143  0.200    0.375 -0.179 -0.267
 TransDip   0.021  0.000 -0.003   -0.004  0.006 -0.094   -0.089  0.000  0.003

 STANDARD THERMODYNAMIC QUANTITIES AT   298.18 K  AND     1.00 ATM

   This Molecule has  0 Imaginary Frequencies
   Zero point vibrational energy:       46.780 kcal/mol

   Atom    1 Element C  Has Mass   12.00000
   Atom    2 Element C  Has Mass   12.00000
   Atom    3 Element S  Has Mass   31.97207
   Atom    4 Element H  Has Mass    1.00783
   Atom    5 Element H  Has Mass    1.00783
   Atom    6 Element H  Has Mass    1.00783
   Atom    7 Element H  Has Mass    1.00783
   Atom    8 Element H  Has Mass    1.00783
   Atom    9 Element H  Has Mass    1.00783
   Molecular Mass:    62.019050 amu
   Principal axes and moments of inertia in atomic units:
                             1           2           3
    Eigenvalues --       62.44830   321.98554   361.67857
          X              -0.05748     0.06100     0.99648
          Y               0.72843     0.68512     0.00007
          Z              -0.68271     0.72587    -0.08381
   Rotational Symmetry Number is   1
   The Molecule is an Asymmetric Top
   Translational Enthalpy:        0.889 kcal/mol
   Rotational Enthalpy:           0.889 kcal/mol
   Vibrational Enthalpy:         47.921 kcal/mol
   gas constant (RT):             0.593 kcal/mol
   Translational Entropy:        38.294  cal/mol.K
   Rotational Entropy:           23.502  cal/mol.K
   Vibrational Entropy:           6.109  cal/mol.K

   Total Enthalpy:               50.292 kcal/mol
   Total Entropy:                67.904  cal/mol.K
 Total job time:  12468.17s(wall), 12056.33s(cpu) 
 Sun Apr 24 07:22:37 2011

        *************************************************************
        *                                                           *
        *  Thank you very much for using Q-Chem.  Have a nice day.  *
        *                                                           *
        *************************************************************


0 sent ACK to 0 
now end server 0 ... 
