Process 0 of 1 is on cl023.stfx.acenet.ca - thread support 1
initial socket setup ...start
initial socket setup ...done 
now start server 0 ... 

cmd = /usr/bin/ssh clhead /usr/local/qchem/bin/get_hostid 49631057 > /scratch/tmp/6060361.1.short.q/qchem24787/lic.dat
                  Welcome to Q-Chem
     A Quantum Leap Into The Future Of Chemistry

 Y. Shao, L. Fusti-Molnar, Y. Jung, J. Kussmann, C. Ochsenfeld,
 S. T. Brown, A. T. B. Gilbert, L. V. Slipchenko,S. V. Levchenko,
 D. P. O'Neill, R. A. DiStasio Jr., R. C. Lochan, T. Wang,
 G. J. O. Beran, N. A. Besley, J. M. Herbert, C. Y. Lin,
 T. Van Voorhis, S. H. Chien, A. Sodt, R. P. Steele, 
 V. A. Rassolov, P. E. Maslen, P. P. Korambath, R. D. Adamson,
 B. Austin, J. Baker, E. F. C. Byrd, H. Dachsel, R. J. Doerksen,
 A. Dreuw, B. D. Dunietz, A. D. Dutoi, T. R. Furlani,
 S. R. Gwaltney, A. Heyden, S. Hirata, C.-P. Hsu, G. Kedziora,
 R. Z. Khaliullin, P. Klunzinger, A. M. Lee, M. S. Lee, W. Liang,
 I. Lotan, N. Nair, B. Peters, E. I. Proynov, P. A. Pieniazek, 
 Y. M. Rhee, J. Ritchie, E. Rosta, C. D. Sherrill, 
 A. C. Simmonett, J. E. Subotnik, H. L. Woodcock III,
 W. Zhang, A. T. Bell, A. K. Chakraborty, D. M. Chipman,
 F. J. Keil, A. Warshel, W. J. Hehre, H. F. Schaefer III,
 J. Kong, A. I. Krylov, P. M. W. Gill, M. Head-Gordon,
 Q-Chem, Version 3.1, Q-Chem, Inc., Pittsburgh, PA (2007).

 Additional authors for Version 3.1: 
 Z. Gan, Y. Zhao, N. E. Schultz, D. Truhlar, E. Epifanovsky and M. Oana.

 Additional authors for Version 3.2: 
 R. Baer, B. R. Brooks, D. Casanova, J.-D. Chai, C.-L. Cheng, 
 C. Cramer, D. Crittenden, A. Ghysels, G. Hawkins, E. G. Hohenstein, 
 C. Kelley, W. Kurlancheek, D. Liotard, E. Livshits, P. Manohar, 
 A. Marenich, D. Neuhauser, R. Olson, M. A. Rohrdanz, K. S. Thanthiriwatte, 
 A. J. W. Thom, V. Vanovschi, C. F. Williams, Q. Wu and Z.-Q. You. 


 Intel X86 Linux Version

 Q-chem begins on Wed Jul  3 20:15:35 2013  

 Parallel job on  1  processors
Processing $rem in /usr/local/qchem/config/preferences.

theFileMan(): MAXOPENFILES=974 MAX_SUB_FILE_NUM=16
Maximum size of a physical file is 2.0 GB, maximum size of a tmp-file is 32.0 GB


--------------------------------------------------------------
User input:
--------------------------------------------------------------

$molecule
0,1
Cl
N,1,r1
O,2,r2,1,a

 r1=2.00507901
 r2=1.14212673
 a=113.94985326

$end

$comment
neutral
$end

$xc_functional
C PBE   1.00
X wPBE  1.00
$end


$rem
SYMMETRY_DECOMPOSITION	0
LRC_DFT                 true
exchange 		general
BASIS                   g3large
omega			410 
JOBTYPE                 opt
mem_static              760
max_scf_cycles          200
scf_final_print         1
sym_ignore              true
$end


--------------------------------------------------------------
 Writing REM_CC_EA            3
 ----------------------------------------------------
       Standard Nuclear Orientation (Angstroms)
    I     Atom         X            Y            Z
 ----------------------------------------------------
    1      Cl      0.000000     0.000000     0.000000
    2      N       0.000000     0.000000     2.005079
    3      O       1.043791     0.000000     2.468710
 ----------------------------------------------------
 Nuclear Repulsion Energy =    84.2032747492 hartrees
 There are       16 alpha and       16 beta electrons
 Requested basis set is G3large
 There are 39 shells and 150 basis functions

Total QAlloc Memory Limit   2000 MB
Mega-Array Size       743 MB
MEM_STATIC part       760 MB
 A cutoff of  1.0D-11 yielded    697 shell pairs
 There are  10673 function pairs ( 14591 Cartesian)
Evaluating contribution to one-electron hamiltonian from nuclear
 Smallest overlap matrix eigenvalue = 1.15E-03
 Multipole matrices computed through 2nd order

  Scale SEOQF with 1.000000e-01/1.000000e-01/1.000000e-01

 Standard Electronic Orientation quadrupole field applied
 Nucleus-field energy     =    -0.0000000079 hartrees
 Guess from superposition of atomic densities
 Warning:  Energy on first SCF cycle will be non-variational
 Long-range K will be added via erf
 Coulomb attenuation parameter = 0.41 bohr**(-1)
 A restricted Kohn-Sham SCF calculation will be
 performed using Pulay DIIS extrapolation
 Exchange:  wPBE + LR-HF      Correlation:  PBE
 Using SG-1 standard quadrature grid
 SCF converges when DIIS error is below 1.0E-08
 Requested basis set is G3large
 There are 39 shells and 150 basis functions
 A cutoff of  1.0D-11 yielded    697 shell pairs
 There are  10673 function pairs ( 14591 Cartesian)
 ---------------------------------------
  Cycle       Energy         DIIS Error
 ---------------------------------------
    1    -589.9672692135      2.87E-02
    2    -589.7873985328      5.90E-03
    3    -589.7144141629      8.76E-03
    4    -589.8957762678      4.89E-04
    5    -589.8966474462      2.70E-04
    6    -589.8969045054      2.06E-04
    7    -589.8970612810      5.87E-05
    8    -589.8971235199      2.52E-05
    9    -589.8971375783      9.28E-06
   10    -589.8971394544      3.12E-06
   11    -589.8971396963      1.57E-06
   12    -589.8971397236      8.45E-07
   13    -589.8971397426      3.23E-07
   14    -589.8971397651      8.00E-08
   15    -589.8971397589      2.65E-08
   16    -589.8971397595      1.04E-08
   17    -589.8971397592      3.00E-09 Convergence criterion met
 ---------------------------------------
 One-Electron    Energy =  -979.6348180073
 Total Coulomb   Energy =   348.8391705585
 Alpha Exchange  Energy =    -3.3643970762
 Beta  Exchange  Energy =    -3.3643970762
 DFT   Exchange  Energy =   -35.4130067215
 DFT Correlation Energy =    -1.1629661777
 Nuclear Repu.   Energy =    84.2032747413
 Nuclear Attr.   Energy = -1568.5008826989
 Kinetic         Energy =   588.8660646916
 SCF time:  CPU 105.28 s  wall 107.33 s
 Final Alpha MO Eigenvalues
            1           2           3           4           5           6
    1-100.8743208 -19.1556502 -14.4567150  -9.3960366  -7.2134817  -7.2052471
            7           8           9          10          11          12
    1  -7.2039522  -1.4517852  -0.9759684  -0.8526055  -0.7100802  -0.7085275
           13          14          15          16          17          18
    1  -0.6836190  -0.4401919  -0.4374266  -0.4161257  -0.0520599  -0.0119656
           19          20          21
    1   0.0909698   0.1241183   0.1288303
 Analysis of SCF Wavefunction
 
 --------------------------------------------------------------
                    Orbital Energies (a.u.)
 --------------------------------------------------------------
 
 Alpha MOs
 -- Occupied --
******* -19.156 -14.457  -9.396  -7.213  -7.205  -7.204  -1.452
 -0.976  -0.853  -0.710  -0.709  -0.684  -0.440  -0.437  -0.416
 -- Virtual --
 -0.052  -0.012   0.091   0.124   0.129   0.130   0.162   0.180
  0.181   0.236   0.257   0.279   0.287   0.368   0.395   0.397
  0.412   0.472   0.509   0.520   0.594   0.603   0.612   0.812
  0.831   0.850   0.953   1.011   1.015   1.074   1.083   1.108
  1.111   1.162   1.215   1.222   1.227   1.228   1.253   1.253
  1.260   1.310   1.343   1.472   1.498   1.570   1.625   1.730
  1.753   1.776   1.942   2.148   2.186   2.268   2.359   2.496
  2.564   3.553   3.565   3.638   3.674   3.689   3.701   3.909
  3.970   4.060   4.471   4.473   4.475   4.483   4.545   4.558
  4.586   4.616   4.650   4.688   4.725   4.886   4.908   5.011
  5.011   5.041   5.127   5.136   5.144   5.160   5.188   5.446
  5.503   5.519   5.684   6.702   6.718   6.721   6.765   7.106
  7.152   7.352   7.687   9.655  20.575  20.587  20.814  27.115
 27.191  27.195  27.197  27.213  35.616  36.837  36.838  36.839
 36.839  36.845  36.845  36.846  37.151  37.244  37.849  40.297
 40.366  40.411  40.426  40.635  43.513  43.564  43.645  43.663
 43.862  45.555  45.613  46.363  49.964 215.492
 --------------------------------------------------------------
 
          Ground-State Mulliken Net Atomic Charges

     Atom                 Charge (a.u.)
  ----------------------------------------
      1 Cl                   -0.314248
      2 N                     0.140569
      3 O                     0.173679
  ----------------------------------------
  Sum of atomic charges =     0.000000

 -----------------------------------------------------------------
                    Cartesian Multipole Moments
 -----------------------------------------------------------------
    Charge (ESU x 10^10)
                 0.0000
    Dipole Moment (Debye)
         X       0.4340      Y       0.0000      Z       2.1362
       Tot       2.1798
    Quadrupole Moments (Debye-Ang)
        XX     -23.6960     XY       0.0000     YY     -22.6782
        XZ       1.0494     YZ       0.0000     ZZ     -17.9007
    Octapole Moments (Debye-Ang^2)
       XXX     -15.3476    XXY       0.0000    XYY      -4.7455
       YYY       0.0000    XXZ     -22.7472    XYZ       0.0000
       YYZ     -20.7223    XZZ      -3.0494    YZZ       0.0000
       ZZZ     -59.1138
    Hexadecapole Moments (Debye-Ang^3)
      XXXX     -56.7112   XXXY       0.0000   XXYY     -12.8997
      XYYY       0.0000   YYYY     -23.0318   XXXZ     -37.3508
      XXYZ       0.0000   XYYZ     -11.6574   YYYZ       0.0000
      XXZZ     -64.4875   XYZZ       0.0000   YYZZ     -54.1377
      XZZZ     -33.6528   YZZZ       0.0000   ZZZZ    -309.2614
 -----------------------------------------------------------------
 Calculating analytic gradient of the SCF energy
 Gradient of AOints
            1           2           3
    1   2.0971320  14.6661157 -16.7632477
    2   0.0000008  -0.0000012   0.0000004
    3  13.2427896  -2.7058439 -10.5369457
 Gradient of XC Energy
            1           2           3
    1  -0.0053422  -0.5329900   0.5383322
    2  -0.0000000   0.0000000  -0.0000000
    3  -0.0980742  -0.1335870   0.2316612
 Gradient of SCF Energy
            1           2           3
    1  -0.0027258  -0.0409364   0.0436622
    2  -0.0000000   0.0000000  -0.0000000
    3  -0.0202056  -0.0045363   0.0247419
 Max gradient component =       4.366E-02
 RMS gradient           =       2.268E-02
 Gradient time:  CPU 30.70 s  wall 30.92 s
 Geometry Optimization Parameters
   NAtoms,    NIC,     NZ,  NCons,   NDum,   NFix, NCnnct, MaxDiis
        3       9       3       0       0       0       0       0


** GEOMETRY OPTIMIZATION IN DELOCALIZED INTERNAL COORDINATES **
   Searching for a Minimum

   Optimization Cycle:   1

                       Coordinates (Angstroms)
     ATOM              X           Y           Z
    1  Cl          0.000000    0.000000    0.000000
    2  N           0.000000    0.000000    2.005079
    3  O           1.043791    0.000000    2.468710
   Point Group: c1    Number of degrees of freedom:   3


   Energy is   -589.897139759


 Attempting to Generate Delocalized Internal Coordinates

  3 Hessian modes will be used to form the next step
  Hessian Eigenvalues:
     0.148822    0.250000    1.402418

 Minimum Search - Taking Simple RFO Step
 Searching for Lamda that Minimizes Along All modes
 Value Taken    Lamda =  -0.00485944
 Step Taken.  Stepsize is  0.142208

                             Maximum     Tolerance    Cnvgd?
         Gradient           0.043447      0.000300      NO
         Displacement       0.087953      0.001200      NO
         Energy change     *********      0.000001      NO


 New Cartesian Coordinates Obtained by Inverse Iteration

 Displacement from previous Coordinates is:  0.150522
 Writing REM_CC_EA            3
 ----------------------------------------------------
       Standard Nuclear Orientation (Angstroms)
    I     Atom         X            Y            Z
 ----------------------------------------------------
    1      Cl      0.021076     0.000000     0.058080
    2      N      -0.007760     0.000000     1.993403
    3      O       1.030475     0.000000     2.422307
 ----------------------------------------------------
 Nuclear Repulsion Energy =    86.9105035282 hartrees
 There are       16 alpha and       16 beta electrons
 Applying Cartesian multipole field
    Component          Value
    ---------          -----
     (2,0,0)        1.00000E-11
     (0,2,0)        2.00000E-11
     (0,0,2)       -3.00000E-11
 Nucleus-field energy     =    -0.0000000077 hartrees
 Requested basis set is G3large
 There are 39 shells and 150 basis functions
 A cutoff of  1.0D-11 yielded    707 shell pairs
 There are  10817 function pairs ( 14809 Cartesian)
Evaluating contribution to one-electron hamiltonian from nuclear
 Smallest overlap matrix eigenvalue = 1.03E-03
 Multipole matrices computed through 2nd order
 Guess MOs from SCF MO coefficient file
Reading MOs from coefficient file
Reading MOs from coefficient file
 Long-range K will be added via erf
 Coulomb attenuation parameter = 0.41 bohr**(-1)
 A restricted Kohn-Sham SCF calculation will be
 performed using Pulay DIIS extrapolation
 Exchange:  wPBE + LR-HF      Correlation:  PBE
 Using SG-1 standard quadrature grid
 SCF converges when DIIS error is below 1.0E-08
 Requested basis set is G3large
 There are 39 shells and 150 basis functions
 A cutoff of  1.0D-11 yielded    707 shell pairs
 There are  10817 function pairs ( 14809 Cartesian)
 ---------------------------------------
  Cycle       Energy         DIIS Error
 ---------------------------------------
    1    -589.9417299321      2.28E-03
    2    -589.8995384854      2.98E-04
    3    -589.8996368657      2.92E-04
    4    -589.8997839959      9.50E-05
    5    -589.8998084648      2.44E-05
    6    -589.8998138903      1.16E-05
    7    -589.8998150335      5.09E-06
    8    -589.8998152102      2.08E-06
    9    -589.8998152756      4.72E-07
   10    -589.8998152945      1.67E-07
   11    -589.8998152929      4.79E-08
   12    -589.8998152943      1.96E-08
   13    -589.8998152937      7.58E-09 Convergence criterion met
 ---------------------------------------
 One-Electron    Energy =  -984.9904670476
 Total Coulomb   Energy =   351.5314709886
 Alpha Exchange  Energy =    -3.3682179649
 Beta  Exchange  Energy =    -3.3682179649
 DFT   Exchange  Energy =   -35.4481020083
 DFT Correlation Energy =    -1.1667848171
 Nuclear Repu.   Energy =    86.9105035205
 Nuclear Attr.   Energy = -1574.0253356223
 Kinetic         Energy =   589.0348685747
 SCF time:  CPU 82.14 s  wall 83.32 s
 Final Alpha MO Eigenvalues
            1           2           3           4           5           6
    1-100.8772941 -19.1436597 -14.4463904  -9.3997369  -7.2171122  -7.2089091
            7           8           9          10          11          12
    1  -7.2075161  -1.4604406  -0.9881547  -0.8436778  -0.7132860  -0.7121313
           13          14          15          16          17          18
    1  -0.6827336  -0.4452272  -0.4408625  -0.4147009  -0.0397579   0.0071734
           19          20          21
    1   0.0920255   0.1240174   0.1279342
 Analysis of SCF Wavefunction
 
 --------------------------------------------------------------
                    Orbital Energies (a.u.)
 --------------------------------------------------------------
 
 Alpha MOs
 -- Occupied --
******* -19.144 -14.446  -9.400  -7.217  -7.209  -7.208  -1.460
 -0.988  -0.844  -0.713  -0.712  -0.683  -0.445  -0.441  -0.415
 -- Virtual --
 -0.040   0.007   0.092   0.124   0.128   0.129   0.162   0.181
  0.182   0.237   0.258   0.281   0.293   0.371   0.396   0.397
  0.412   0.476   0.514   0.545   0.589   0.591   0.614   0.811
  0.831   0.857   0.959   1.025   1.025   1.078   1.088   1.111
  1.122   1.166   1.210   1.217   1.223   1.225   1.249   1.249
  1.268   1.318   1.361   1.501   1.529   1.583   1.650   1.728
  1.767   1.833   1.974   2.165   2.197   2.266   2.364   2.525
  2.582   3.567   3.578   3.659   3.669   3.695   3.698   3.941
  4.007   4.108   4.467   4.468   4.475   4.489   4.516   4.546
  4.578   4.592   4.678   4.694   4.757   4.900   4.939   5.014
  5.021   5.055   5.132   5.137   5.148   5.177   5.228   5.465
  5.546   5.570   5.791   6.714   6.742   6.817   6.864   7.117
  7.173   7.399   7.744   9.669  20.574  20.588  20.836  27.112
 27.188  27.194  27.214  27.224  35.676  36.834  36.835  36.835
 36.837  36.842  36.843  36.844  37.169  37.284  37.890  40.314
 40.383  40.442  40.452  40.657  43.529  43.577  43.666  43.677
 43.892  45.585  45.656  46.404  50.024 215.514
 --------------------------------------------------------------
 
          Ground-State Mulliken Net Atomic Charges

     Atom                 Charge (a.u.)
  ----------------------------------------
      1 Cl                   -0.287826
      2 N                     0.120933
      3 O                     0.166894
  ----------------------------------------
  Sum of atomic charges =     0.000000

 -----------------------------------------------------------------
                    Cartesian Multipole Moments
 -----------------------------------------------------------------
    Charge (ESU x 10^10)
                 0.0000
    Dipole Moment (Debye)
         X       0.3796      Y       0.0000      Z       1.8262
       Tot       1.8652
    Quadrupole Moments (Debye-Ang)
        XX     -23.7215     XY       0.0000     YY     -22.5436
        XZ       0.8757     YZ       0.0000     ZZ     -18.5921
    Octapole Moments (Debye-Ang^2)
       XXX     -15.9733    XXY       0.0000    XYY      -4.8951
       YYY       0.0000    XXZ     -23.5251    XYZ       0.0000
       YYZ     -21.1614    XZZ      -3.5312    YZZ       0.0000
       ZZZ     -62.3639
    Hexadecapole Moments (Debye-Ang^3)
      XXXX     -56.0152   XXXY       0.0000   XXYY     -12.6975
      XYYY       0.0000   YYYY     -22.7196   XXXZ     -36.2903
      XXYZ       0.0000   XYYZ     -11.1929   YYYZ       0.0000
      XXZZ     -63.8897   XYZZ       0.0000   YYZZ     -52.7933
      XZZZ     -33.3808   YZZZ       0.0000   ZZZZ    -306.6947
 -----------------------------------------------------------------
 Calculating analytic gradient of the SCF energy
 Gradient of AOints
            1           2           3
    1   2.0132187  15.0995096 -17.1127283
    2   0.0000000  -0.0000000   0.0000000
    3  13.9413297  -3.6369637 -10.3043660
 Gradient of XC Energy
            1           2           3
    1  -0.0016133  -0.5464220   0.5480353
    2  -0.0000000   0.0000000  -0.0000000
    3  -0.1073901  -0.1072731   0.2146631
 Gradient of SCF Energy
            1           2           3
    1   0.0021343   0.0014963  -0.0036307
    2  -0.0000000   0.0000000  -0.0000000
    3  -0.0058551   0.0110406  -0.0051855
 Max gradient component =       1.104E-02
 RMS gradient           =       4.750E-03
 Gradient time:  CPU 31.15 s  wall 31.36 s
 Geometry Optimization Parameters
   NAtoms,    NIC,     NZ,  NCons,   NDum,   NFix, NCnnct, MaxDiis
        3       9       3       0       0       0       0       0

 Cartesian Hessian Update
 Hessian Updated using BFGS Update


** GEOMETRY OPTIMIZATION IN DELOCALIZED INTERNAL COORDINATES **
   Searching for a Minimum

   Optimization Cycle:   2

                       Coordinates (Angstroms)
     ATOM              X           Y           Z
    1  Cl          0.021076    0.000000    0.058080
    2  N          -0.007760    0.000000    1.993403
    3  O           1.030475    0.000000    2.422307
   Point Group: c1    Number of degrees of freedom:   3


   Energy is   -589.899815294

 Hessian Updated using BFGS Update

  3 Hessian modes will be used to form the next step
  Hessian Eigenvalues:
     0.111212    0.289263    1.559134

 Minimum Search - Taking Simple RFO Step
 Searching for Lamda that Minimizes Along All modes
 Value Taken    Lamda =  -0.00051959
 Step Taken.  Stepsize is  0.060891

                             Maximum     Tolerance    Cnvgd?
         Gradient           0.008524      0.000300      NO
         Displacement       0.042990      0.001200      NO
         Energy change     -0.002676      0.000001      NO


 New Cartesian Coordinates Obtained by Inverse Iteration

 Displacement from previous Coordinates is:  0.043215
 Writing REM_CC_EA            3
 ----------------------------------------------------
       Standard Nuclear Orientation (Angstroms)
    I     Atom         X            Y            Z
 ----------------------------------------------------
    1      Cl      0.017365     0.000000     0.069762
    2      N      -0.001236     0.000000     1.976292
    3      O       1.027662     0.000000     2.427735
 ----------------------------------------------------
 Nuclear Repulsion Energy =    87.4571762696 hartrees
 There are       16 alpha and       16 beta electrons
 Applying Cartesian multipole field
    Component          Value
    ---------          -----
     (2,0,0)        1.00000E-11
     (0,2,0)        2.00000E-11
     (0,0,2)       -3.00000E-11
 Nucleus-field energy     =    -0.0000000077 hartrees
 Requested basis set is G3large
 There are 39 shells and 150 basis functions
 A cutoff of  1.0D-11 yielded    711 shell pairs
 There are  10851 function pairs ( 14855 Cartesian)
Evaluating contribution to one-electron hamiltonian from nuclear
 Smallest overlap matrix eigenvalue = 1.01E-03
 Multipole matrices computed through 2nd order
 Guess MOs from SCF MO coefficient file
Reading MOs from coefficient file
Reading MOs from coefficient file
 Long-range K will be added via erf
 Coulomb attenuation parameter = 0.41 bohr**(-1)
 A restricted Kohn-Sham SCF calculation will be
 performed using Pulay DIIS extrapolation
 Exchange:  wPBE + LR-HF      Correlation:  PBE
 Using SG-1 standard quadrature grid
 SCF converges when DIIS error is below 1.0E-08
 Requested basis set is G3large
 There are 39 shells and 150 basis functions
 A cutoff of  1.0D-11 yielded    711 shell pairs
 There are  10851 function pairs ( 14855 Cartesian)
 ---------------------------------------
  Cycle       Energy         DIIS Error
 ---------------------------------------
    1    -589.9122532499      9.61E-04
    2    -589.8999732426      2.30E-04
    3    -589.9000181593      2.17E-04
    4    -589.9001153298      5.40E-05
    5    -589.9001210399      2.11E-05
    6    -589.9001225707      8.38E-06
    7    -589.9001230402      2.75E-06
    8    -589.9001231272      9.87E-07
    9    -589.9001230920      1.97E-07
   10    -589.9001231006      7.26E-08
   11    -589.9001230977      1.85E-08
   12    -589.9001230984      6.50E-09 Convergence criterion met
 ---------------------------------------
 One-Electron    Energy =  -986.0640639939
 Total Coulomb   Energy =   352.0672253537
 Alpha Exchange  Energy =    -3.3690235993
 Beta  Exchange  Energy =    -3.3690235993
 DFT   Exchange  Energy =   -35.4547034869
 DFT Correlation Energy =    -1.1677100346
 Nuclear Repu.   Energy =    87.4571762619
 Nuclear Attr.   Energy = -1575.1246345238
 Kinetic         Energy =   589.0605705299
 SCF time:  CPU 75.67 s  wall 76.32 s
 Final Alpha MO Eigenvalues
            1           2           3           4           5           6
    1-100.8812750 -19.1380419 -14.4416229  -9.4038532  -7.2212933  -7.2130120
            7           8           9          10          11          12
    1  -7.2115284  -1.4562469  -0.9957043  -0.8397916  -0.7111156  -0.7088703
           13          14          15          16          17          18
    1  -0.6807661  -0.4489667  -0.4443479  -0.4133252  -0.0366547   0.0135293
           19          20          21
    1   0.0916520   0.1237264   0.1276620
 Analysis of SCF Wavefunction
 
 --------------------------------------------------------------
                    Orbital Energies (a.u.)
 --------------------------------------------------------------
 
 Alpha MOs
 -- Occupied --
******* -19.138 -14.442  -9.404  -7.221  -7.213  -7.212  -1.456
 -0.996  -0.840  -0.711  -0.709  -0.681  -0.449  -0.444  -0.413
 -- Virtual --
 -0.037   0.014   0.092   0.124   0.128   0.128   0.163   0.182
  0.183   0.238   0.259   0.282   0.294   0.370   0.394   0.395
  0.412   0.474   0.517   0.549   0.583   0.589   0.612   0.814
  0.834   0.861   0.964   1.028   1.028   1.079   1.092   1.110
  1.125   1.167   1.206   1.214   1.221   1.223   1.245   1.246
  1.270   1.318   1.368   1.514   1.533   1.587   1.661   1.716
  1.776   1.840   1.985   2.171   2.195   2.265   2.373   2.529
  2.592   3.570   3.580   3.667   3.667   3.698   3.704   3.946
  4.012   4.122   4.464   4.465   4.472   4.486   4.509   4.543
  4.565   4.598   4.686   4.698   4.765   4.901   4.952   5.017
  5.025   5.059   5.128   5.135   5.157   5.187   5.230   5.474
  5.551   5.570   5.852   6.719   6.745   6.820   6.867   7.122
  7.177   7.405   7.750   9.674  20.571  20.585  20.842  27.108
 27.184  27.191  27.211  27.236  35.679  36.830  36.831  36.831
 36.833  36.838  36.840  36.841  37.174  37.296  37.901  40.320
 40.389  40.447  40.458  40.667  43.535  43.582  43.669  43.682
 43.899  45.591  45.663  46.411  50.031 215.522
 --------------------------------------------------------------
 
          Ground-State Mulliken Net Atomic Charges

     Atom                 Charge (a.u.)
  ----------------------------------------
      1 Cl                   -0.267262
      2 N                     0.113033
      3 O                     0.154229
  ----------------------------------------
  Sum of atomic charges =     0.000000

 -----------------------------------------------------------------
                    Cartesian Multipole Moments
 -----------------------------------------------------------------
    Charge (ESU x 10^10)
                 0.0000
    Dipole Moment (Debye)
         X       0.3488      Y       0.0000      Z       1.6106
       Tot       1.6480
    Quadrupole Moments (Debye-Ang)
        XX     -23.7616     XY       0.0000     YY     -22.4917
        XZ       0.8197     YZ       0.0000     ZZ     -19.1110
    Octapole Moments (Debye-Ang^2)
       XXX     -16.0262    XXY       0.0000    XYY      -4.8762
       YYY       0.0000    XXZ     -23.8364    XYZ       0.0000
       YYZ     -21.3156    XZZ      -3.7388    YZZ       0.0000
       ZZZ     -64.1421
    Hexadecapole Moments (Debye-Ang^3)
      XXXX     -56.0423   XXXY       0.0000   XXYY     -12.6554
      XYYY       0.0000   YYYY     -22.5686   XXXZ     -36.7523
      XXYZ       0.0000   XYYZ     -11.2689   YYYZ       0.0000
      XXZZ     -64.1550   XYZZ       0.0000   YYZZ     -52.7429
      XZZZ     -34.1724   YZZZ       0.0000   ZZZZ    -309.6557
 -----------------------------------------------------------------
 Calculating analytic gradient of the SCF energy
 Gradient of AOints
            1           2           3
    1   2.1410257  14.7406854 -16.8817111
    2   0.0000000  -0.0000000   0.0000000
    3  14.2308063  -3.5289461 -10.7018602
 Gradient of XC Energy
            1           2           3
    1  -0.0038792  -0.5339221   0.5378012
    2   0.0000000   0.0000000  -0.0000000
    3  -0.1144635  -0.1132717   0.2277353
 Gradient of SCF Energy
            1           2           3
    1  -0.0001498   0.0102245  -0.0100747
    2   0.0000000  -0.0000000   0.0000000
    3  -0.0019626   0.0059140  -0.0039514
 Max gradient component =       1.022E-02
 RMS gradient           =       5.380E-03
 Gradient time:  CPU 31.71 s  wall 31.80 s
 Geometry Optimization Parameters
   NAtoms,    NIC,     NZ,  NCons,   NDum,   NFix, NCnnct, MaxDiis
        3       9       3       0       0       0       0       0

 Cartesian Hessian Update
 Hessian Updated using BFGS Update


** GEOMETRY OPTIMIZATION IN DELOCALIZED INTERNAL COORDINATES **
   Searching for a Minimum

   Optimization Cycle:   3

                       Coordinates (Angstroms)
     ATOM              X           Y           Z
    1  Cl          0.017365    0.000000    0.069762
    2  N          -0.001236    0.000000    1.976292
    3  O           1.027662    0.000000    2.427735
   Point Group: c1    Number of degrees of freedom:   3


   Energy is   -589.900123098

 Hessian Updated using BFGS Update

  3 Hessian modes will be used to form the next step
  Hessian Eigenvalues:
     0.076604    0.346157    1.572550

 Minimum Search - Taking Simple RFO Step
 Searching for Lamda that Minimizes Along All modes
 Value Taken    Lamda =  -0.00015314
 Step Taken.  Stepsize is  0.032930

                             Maximum     Tolerance    Cnvgd?
         Gradient           0.008580      0.000300      NO
         Displacement       0.029298      0.001200      NO
         Energy change     -0.000308      0.000001      NO


 New Cartesian Coordinates Obtained by Inverse Iteration

 Displacement from previous Coordinates is:  0.023564
 Writing REM_CC_EA            3
 ----------------------------------------------------
       Standard Nuclear Orientation (Angstroms)
    I     Atom         X            Y            Z
 ----------------------------------------------------
    1      Cl      0.018643     0.000000     0.079300
    2      N      -0.003227     0.000000     1.968981
    3      O       1.028375     0.000000     2.425508
 ----------------------------------------------------
 Nuclear Repulsion Energy =    87.7664304934 hartrees
 There are       16 alpha and       16 beta electrons
 Applying Cartesian multipole field
    Component          Value
    ---------          -----
     (2,0,0)        1.00000E-11
     (0,2,0)        2.00000E-11
     (0,0,2)       -3.00000E-11
 Nucleus-field energy     =    -0.0000000077 hartrees
 Requested basis set is G3large
 There are 39 shells and 150 basis functions
 A cutoff of  1.0D-11 yielded    711 shell pairs
 There are  10851 function pairs ( 14855 Cartesian)
Evaluating contribution to one-electron hamiltonian from nuclear
 Smallest overlap matrix eigenvalue = 1.01E-03
 Multipole matrices computed through 2nd order
 Guess MOs from SCF MO coefficient file
Reading MOs from coefficient file
Reading MOs from coefficient file
 Long-range K will be added via erf
 Coulomb attenuation parameter = 0.41 bohr**(-1)
 A restricted Kohn-Sham SCF calculation will be
 performed using Pulay DIIS extrapolation
 Exchange:  wPBE + LR-HF      Correlation:  PBE
 Using SG-1 standard quadrature grid
 SCF converges when DIIS error is below 1.0E-08
 Requested basis set is G3large
 There are 39 shells and 150 basis functions
 A cutoff of  1.0D-11 yielded    711 shell pairs
 There are  10851 function pairs ( 14855 Cartesian)
 ---------------------------------------
  Cycle       Energy         DIIS Error
 ---------------------------------------
    1    -589.9047864664      4.90E-04
    2    -589.9001427414      1.84E-04
    3    -589.9001523289      1.88E-04
    4    -589.9002210859      3.15E-05
    5    -589.9002231984      1.35E-05
    6    -589.9002238063      4.17E-06
    7    -589.9002239843      1.56E-06
    8    -589.9002239838      5.48E-07
    9    -589.9002239591      1.94E-07
   10    -589.9002240333      6.76E-08
   11    -589.9002240376      1.26E-08
   12    -589.9002240379      2.44E-09 Convergence criterion met
 ---------------------------------------
 One-Electron    Energy =  -986.6797371413
 Total Coulomb   Energy =   352.3747438743
 Alpha Exchange  Energy =    -3.3693250789
 Beta  Exchange  Energy =    -3.3693250789
 DFT   Exchange  Energy =   -35.4549402079
 DFT Correlation Energy =    -1.1680708909
 Nuclear Repu.   Energy =    87.7664304857
 Nuclear Attr.   Energy = -1575.7355167644
 Kinetic         Energy =   589.0557796230
 SCF time:  CPU 75.49 s  wall 76.15 s
 Final Alpha MO Eigenvalues
            1           2           3           4           5           6
    1-100.8845134 -19.1336997 -14.4392940  -9.4071474  -7.2246854  -7.2162692
            7           8           9          10          11          12
    1  -7.2147372  -1.4497808  -1.0005687  -0.8377639  -0.7079818  -0.7044627
           13          14          15          16          17          18
    1  -0.6783746  -0.4516161  -0.4466799  -0.4135972  -0.0361056   0.0164395
           19          20          21
    1   0.0917174   0.1236090   0.1272894
 Analysis of SCF Wavefunction
 
 --------------------------------------------------------------
                    Orbital Energies (a.u.)
 --------------------------------------------------------------
 
 Alpha MOs
 -- Occupied --
******* -19.134 -14.439  -9.407  -7.225  -7.216  -7.215  -1.450
 -1.001  -0.838  -0.708  -0.704  -0.678  -0.452  -0.447  -0.414
 -- Virtual --
 -0.036   0.016   0.092   0.124   0.127   0.127   0.163   0.182
  0.184   0.239   0.259   0.283   0.295   0.370   0.393   0.393
  0.411   0.474   0.518   0.548   0.578   0.588   0.611   0.815
  0.836   0.862   0.968   1.029   1.031   1.080   1.094   1.110
  1.128   1.167   1.204   1.211   1.219   1.222   1.243   1.244
  1.271   1.318   1.371   1.521   1.538   1.591   1.665   1.711
  1.779   1.849   1.989   2.172   2.194   2.263   2.374   2.529
  2.595   3.572   3.583   3.665   3.672   3.703   3.706   3.949
  4.008   4.122   4.461   4.462   4.470   4.483   4.510   4.539
  4.556   4.608   4.688   4.702   4.761   4.903   4.959   5.019
  5.029   5.060   5.125   5.132   5.159   5.192   5.235   5.479
  5.546   5.569   5.880   6.723   6.748   6.802   6.850   7.125
  7.180   7.404   7.742   9.676  20.569  20.583  20.843  27.105
 27.181  27.189  27.209  27.243  35.672  36.827  36.827  36.828
 36.830  36.834  36.837  36.838  37.175  37.303  37.899  40.323
 40.393  40.447  40.457  40.668  43.539  43.587  43.673  43.686
 43.899  45.591  45.664  46.409  50.024 215.524
 --------------------------------------------------------------
 
          Ground-State Mulliken Net Atomic Charges

     Atom                 Charge (a.u.)
  ----------------------------------------
      1 Cl                   -0.252142
      2 N                     0.109108
      3 O                     0.143034
  ----------------------------------------
  Sum of atomic charges =     0.000000

 -----------------------------------------------------------------
                    Cartesian Multipole Moments
 -----------------------------------------------------------------
    Charge (ESU x 10^10)
                 0.0000
    Dipole Moment (Debye)
         X       0.3092      Y       0.0000      Z       1.4457
       Tot       1.4784
    Quadrupole Moments (Debye-Ang)
        XX     -23.8019     XY       0.0000     YY     -22.4653
        XZ       0.7205     YZ       0.0000     ZZ     -19.5079
    Octapole Moments (Debye-Ang^2)
       XXX     -16.1654    XXY       0.0000    XYY      -4.9016
       YYY       0.0000    XXZ     -24.1013    XYZ       0.0000
       YYZ     -21.4590    XZZ      -4.0012    YZZ       0.0000
       ZZZ     -65.5892
    Hexadecapole Moments (Debye-Ang^3)
      XXXX     -56.2391   XXXY       0.0000   XXYY     -12.6589
      XYYY       0.0000   YYYY     -22.4737   XXXZ     -36.9405
      XXYZ       0.0000   XYYZ     -11.2938   YYYZ       0.0000
      XXZZ     -64.4215   XYZZ       0.0000   YYZZ     -52.7256
      XZZZ     -34.8359   YZZZ       0.0000   ZZZZ    -312.1195
 -----------------------------------------------------------------
 Calculating analytic gradient of the SCF energy
 Gradient of AOints
            1           2           3
    1   2.1503722  14.6242630 -16.7746352
    2   0.0000000  -0.0000000   0.0000000
    3  14.4276240  -3.6721170 -10.7555069
 Gradient of XC Energy
            1           2           3
    1  -0.0038497  -0.5272948   0.5311445
    2  -0.0000000   0.0000000  -0.0000000
    3  -0.1188066  -0.1087960   0.2276026
 Gradient of SCF Energy
            1           2           3
    1  -0.0001832   0.0051888  -0.0050056
    2   0.0000000  -0.0000000   0.0000000
    3  -0.0001640   0.0019072  -0.0017432
 Max gradient component =       5.189E-03
 RMS gradient           =       2.554E-03
 Gradient time:  CPU 31.64 s  wall 31.73 s
 Geometry Optimization Parameters
   NAtoms,    NIC,     NZ,  NCons,   NDum,   NFix, NCnnct, MaxDiis
        3       9       3       0       0       0       0       0

 Cartesian Hessian Update
 Hessian Updated using BFGS Update


** GEOMETRY OPTIMIZATION IN DELOCALIZED INTERNAL COORDINATES **
   Searching for a Minimum

   Optimization Cycle:   4

                       Coordinates (Angstroms)
     ATOM              X           Y           Z
    1  Cl          0.018643    0.000000    0.079300
    2  N          -0.003227    0.000000    1.968981
    3  O           1.028375    0.000000    2.425508
   Point Group: c1    Number of degrees of freedom:   3


   Energy is   -589.900224038

 Hessian Updated using BFGS Update

  3 Hessian modes will be used to form the next step
  Hessian Eigenvalues:
     0.074668    0.343706    1.109887

 Minimum Search - Taking Simple RFO Step
 Searching for Lamda that Minimizes Along All modes
 Value Taken    Lamda =  -0.00003354
 Step Taken.  Stepsize is  0.011076

                             Maximum     Tolerance    Cnvgd?
         Gradient           0.003954      0.000300      NO
         Displacement       0.010522      0.001200      NO
         Energy change     -0.000101      0.000001      NO


 New Cartesian Coordinates Obtained by Inverse Iteration

 Displacement from previous Coordinates is:  0.008376
 Writing REM_CC_EA            3
 ----------------------------------------------------
       Standard Nuclear Orientation (Angstroms)
    I     Atom         X            Y            Z
 ----------------------------------------------------
    1      Cl      0.019488     0.000000     0.082326
    2      N      -0.005158     0.000000     1.967087
    3      O       1.029461     0.000000     2.424376
 ----------------------------------------------------
 Nuclear Repulsion Energy =    87.8227030553 hartrees
 There are       16 alpha and       16 beta electrons
 Applying Cartesian multipole field
    Component          Value
    ---------          -----
     (2,0,0)        1.00000E-11
     (0,2,0)        2.00000E-11
     (0,0,2)       -3.00000E-11
 Nucleus-field energy     =    -0.0000000076 hartrees
 Requested basis set is G3large
 There are 39 shells and 150 basis functions
 A cutoff of  1.0D-11 yielded    713 shell pairs
 There are  10893 function pairs ( 14915 Cartesian)
Evaluating contribution to one-electron hamiltonian from nuclear
 Smallest overlap matrix eigenvalue = 1.01E-03
 Multipole matrices computed through 2nd order
 Guess MOs from SCF MO coefficient file
Reading MOs from coefficient file
Reading MOs from coefficient file
 Long-range K will be added via erf
 Coulomb attenuation parameter = 0.41 bohr**(-1)
 A restricted Kohn-Sham SCF calculation will be
 performed using Pulay DIIS extrapolation
 Exchange:  wPBE + LR-HF      Correlation:  PBE
 Using SG-1 standard quadrature grid
 SCF converges when DIIS error is below 1.0E-08
 Requested basis set is G3large
 There are 39 shells and 150 basis functions
 A cutoff of  1.0D-11 yielded    713 shell pairs
 There are  10893 function pairs ( 14915 Cartesian)
 ---------------------------------------
  Cycle       Energy         DIIS Error
 ---------------------------------------
    1    -589.9004439490      2.36E-04
    2    -589.9002252993      8.22E-05
    3    -589.9002252580      8.94E-05
    4    -589.9002406955      1.33E-05
    5    -589.9002410874      6.13E-06
    6    -589.9002412319      1.79E-06
    7    -589.9002412444      6.31E-07
    8    -589.9002412348      2.22E-07
    9    -589.9002412574      8.22E-08
   10    -589.9002412677      2.66E-08
   11    -589.9002412679      6.20E-09 Convergence criterion met
 ---------------------------------------
 One-Electron    Energy =  -986.7946043327
 Total Coulomb   Energy =   352.4318460126
 Alpha Exchange  Energy =    -3.3693213853
 Beta  Exchange  Energy =    -3.3693213853
 DFT   Exchange  Energy =   -35.4534595862
 DFT Correlation Energy =    -1.1680836386
 Nuclear Repu.   Energy =    87.8227030476
 Nuclear Attr.   Energy = -1575.8405310098
 Kinetic         Energy =   589.0459266771
 SCF time:  CPU 69.43 s  wall 70.28 s
 Final Alpha MO Eigenvalues
            1           2           3           4           5           6
    1-100.8858465 -19.1321151 -14.4387560  -9.4084783  -7.2260661  -7.2175819
            7           8           9          10          11          12
    1  -7.2160351  -1.4463093  -1.0021768  -0.8372679  -0.7063623  -0.7021974
           13          14          15          16          17          18
    1  -0.6771864  -0.4525849  -0.4475264  -0.4140277  -0.0364383   0.0169800
           19          20          21
    1   0.0917871   0.1235719   0.1271267
 Analysis of SCF Wavefunction
 
 --------------------------------------------------------------
                    Orbital Energies (a.u.)
 --------------------------------------------------------------
 
 Alpha MOs
 -- Occupied --
******* -19.132 -14.439  -9.408  -7.226  -7.218  -7.216  -1.446
 -1.002  -0.837  -0.706  -0.702  -0.677  -0.453  -0.448  -0.414
 -- Virtual --
 -0.036   0.017   0.092   0.124   0.127   0.127   0.162   0.182
  0.184   0.239   0.260   0.283   0.295   0.370   0.392   0.392
  0.411   0.474   0.518   0.545   0.577   0.587   0.611   0.815
  0.836   0.862   0.969   1.030   1.032   1.080   1.094   1.110
  1.129   1.167   1.202   1.210   1.218   1.221   1.242   1.243
  1.271   1.318   1.371   1.523   1.540   1.592   1.666   1.709
  1.779   1.852   1.989   2.171   2.194   2.262   2.373   2.528
  2.595   3.573   3.584   3.664   3.674   3.706   3.706   3.951
  4.004   4.119   4.459   4.461   4.469   4.482   4.511   4.538
  4.554   4.613   4.686   4.703   4.757   4.904   4.962   5.020
  5.030   5.060   5.124   5.131   5.159   5.194   5.237   5.481
  5.542   5.567   5.887   6.725   6.749   6.789   6.839   7.126
  7.181   7.401   7.736   9.676  20.568  20.582  20.842  27.104
 27.180  27.188  27.209  27.244  35.666  36.825  36.826  36.827
 36.828  36.833  36.836  36.837  37.175  37.304  37.896  40.324
 40.394  40.446  40.455  40.667  43.541  43.588  43.674  43.687
 43.897  45.590  45.662  46.406  50.018 215.524
 --------------------------------------------------------------
 
          Ground-State Mulliken Net Atomic Charges

     Atom                 Charge (a.u.)
  ----------------------------------------
      1 Cl                   -0.246508
      2 N                     0.108292
      3 O                     0.138217
  ----------------------------------------
  Sum of atomic charges =     0.000000

 -----------------------------------------------------------------
                    Cartesian Multipole Moments
 -----------------------------------------------------------------
    Charge (ESU x 10^10)
                 0.0000
    Dipole Moment (Debye)
         X       0.2907      Y       0.0000      Z       1.3824
       Tot       1.4127
    Quadrupole Moments (Debye-Ang)
        XX     -23.8200     XY       0.0000     YY     -22.4593
        XZ       0.6725     YZ       0.0000     ZZ     -19.6610
    Octapole Moments (Debye-Ang^2)
       XXX     -16.2287    XXY       0.0000    XYY      -4.9163
       YYY       0.0000    XXZ     -24.2023    XYZ       0.0000
       YYZ     -21.5160    XZZ      -4.1201    YZZ       0.0000
       ZZZ     -66.1502
    Hexadecapole Moments (Debye-Ang^3)
      XXXX     -56.3668   XXXY       0.0000   XXYY     -12.6707
      XYYY       0.0000   YYYY     -22.4439   XXXZ     -37.0112
      XXYZ       0.0000   XYYZ     -11.3077   YYYZ       0.0000
      XXZZ     -64.5534   XYZZ       0.0000   YYZZ     -52.7462
      XZZZ     -35.1304   YZZZ       0.0000   ZZZZ    -313.2263
 -----------------------------------------------------------------
 Calculating analytic gradient of the SCF energy
 Gradient of AOints
            1           2           3
    1   2.1400089  14.5957954 -16.7358043
    2  -0.0000000  -0.0000000   0.0000000
    3  14.4921928  -3.7524394 -10.7397535
 Gradient of XC Energy
            1           2           3
    1  -0.0035924  -0.5247860   0.5283784
    2   0.0000000  -0.0000000  -0.0000000
    3  -0.1202681  -0.1058857   0.2261538
 Gradient of SCF Energy
            1           2           3
    1   0.0000078   0.0001832  -0.0001910
    2   0.0000000  -0.0000000   0.0000000
    3  -0.0000056  -0.0000128   0.0000184
 Max gradient component =       1.910E-04
 RMS gradient           =       8.858E-05
 Gradient time:  CPU 31.66 s  wall 31.73 s
 Geometry Optimization Parameters
   NAtoms,    NIC,     NZ,  NCons,   NDum,   NFix, NCnnct, MaxDiis
        3       9       3       0       0       0       0       0

 Cartesian Hessian Update
 Hessian Updated using BFGS Update


** GEOMETRY OPTIMIZATION IN DELOCALIZED INTERNAL COORDINATES **
   Searching for a Minimum

   Optimization Cycle:   5

                       Coordinates (Angstroms)
     ATOM              X           Y           Z
    1  Cl          0.019488    0.000000    0.082326
    2  N          -0.005158    0.000000    1.967087
    3  O           1.029461    0.000000    2.424376
   Point Group: c1    Number of degrees of freedom:   3


   Energy is   -589.900241268

 Hessian Updated using BFGS Update

  3 Hessian modes will be used to form the next step
  Hessian Eigenvalues:
     0.074906    0.337866    1.089626

 Minimum Search - Taking Simple RFO Step
 Searching for Lamda that Minimizes Along All modes
 Value Taken    Lamda =   0.00000000
 Step Taken.  Stepsize is  0.000433

                             Maximum     Tolerance    Cnvgd?
         Gradient           0.000159      0.000300     YES
         Displacement       0.000358      0.001200     YES
         Energy change     -0.000017      0.000001      NO


                       Distance Matrix (Angstroms)
             Cl(  1)   N (  2)
   N (  2)  1.884922
   O (  3)  2.550538  1.131172
 


 ******************************
 **  OPTIMIZATION CONVERGED  **
 ******************************
 Analysis of SCF Wavefunction
 
 --------------------------------------------------------------
                    Orbital Energies (a.u.)
 --------------------------------------------------------------
 
 Alpha MOs
 -- Occupied --
******* -19.132 -14.439  -9.408  -7.226  -7.218  -7.216  -1.446
 -1.002  -0.837  -0.706  -0.702  -0.677  -0.453  -0.448  -0.414
 -- Virtual --
 -0.036   0.017   0.092   0.124   0.127   0.127   0.162   0.182
  0.184   0.239   0.260   0.283   0.295   0.370   0.392   0.392
  0.411   0.474   0.518   0.545   0.577   0.587   0.611   0.815
  0.836   0.862   0.969   1.030   1.032   1.080   1.094   1.110
  1.129   1.167   1.202   1.210   1.218   1.221   1.242   1.243
  1.271   1.318   1.371   1.523   1.540   1.592   1.666   1.709
  1.779   1.852   1.989   2.171   2.194   2.262   2.373   2.528
  2.595   3.573   3.584   3.664   3.674   3.706   3.706   3.951
  4.004   4.119   4.459   4.461   4.469   4.482   4.511   4.538
  4.554   4.613   4.686   4.703   4.757   4.904   4.962   5.020
  5.030   5.060   5.124   5.131   5.159   5.194   5.237   5.481
  5.542   5.567   5.887   6.725   6.749   6.789   6.839   7.126
  7.181   7.401   7.736   9.676  20.568  20.582  20.842  27.104
 27.180  27.188  27.209  27.244  35.666  36.825  36.826  36.827
 36.828  36.833  36.836  36.837  37.175  37.304  37.896  40.324
 40.394  40.446  40.455  40.667  43.541  43.588  43.674  43.687
 43.897  45.590  45.662  46.406  50.018 215.524
 --------------------------------------------------------------
 
          Ground-State Mulliken Net Atomic Charges

     Atom                 Charge (a.u.)
  ----------------------------------------
      1 Cl                   -0.246508
      2 N                     0.108292
      3 O                     0.138217
  ----------------------------------------
  Sum of atomic charges =     0.000000

 -----------------------------------------------------------------
                    Cartesian Multipole Moments
 -----------------------------------------------------------------
    Charge (ESU x 10^10)
                 0.0000
    Dipole Moment (Debye)
         X       0.2907      Y       0.0000      Z       1.3824
       Tot       1.4127
    Quadrupole Moments (Debye-Ang)
        XX     -23.8200     XY       0.0000     YY     -22.4593
        XZ       0.6725     YZ       0.0000     ZZ     -19.6610
    Octapole Moments (Debye-Ang^2)
       XXX     -16.2287    XXY       0.0000    XYY      -4.9163
       YYY       0.0000    XXZ     -24.2023    XYZ       0.0000
       YYZ     -21.5160    XZZ      -4.1201    YZZ       0.0000
       ZZZ     -66.1502
    Hexadecapole Moments (Debye-Ang^3)
      XXXX     -56.3668   XXXY       0.0000   XXYY     -12.6707
      XYYY       0.0000   YYYY     -22.4439   XXXZ     -37.0112
      XXYZ       0.0000   XYYZ     -11.3077   YYYZ       0.0000
      XXZZ     -64.5534   XYZZ       0.0000   YYZZ     -52.7462
      XZZZ     -35.1304   YZZZ       0.0000   ZZZZ    -313.2263
 -----------------------------------------------------------------
 Total job time:  571.85s(wall), 565.66s(cpu) 
 Wed Jul  3 20:25:07 2013

        *************************************************************
        *                                                           *
        *  Thank you very much for using Q-Chem.  Have a nice day.  *
        *                                                           *
        *************************************************************


0 sent ACK to 0 
now end server 0 ... 
 
**********************************************************************
Job 2 of 2 
**********************************************************************
 
Process 0 of 1 is on cl023.stfx.acenet.ca - thread support 1
initial socket setup ...start
initial socket setup ...done 
now start server 0 ... 

cmd = /usr/bin/ssh clhead /usr/local/qchem/bin/get_hostid 1275599995 > /scratch/tmp/6060361.1.short.q/qchem24787/lic.dat
                  Welcome to Q-Chem
     A Quantum Leap Into The Future Of Chemistry

 Y. Shao, L. Fusti-Molnar, Y. Jung, J. Kussmann, C. Ochsenfeld,
 S. T. Brown, A. T. B. Gilbert, L. V. Slipchenko,S. V. Levchenko,
 D. P. O'Neill, R. A. DiStasio Jr., R. C. Lochan, T. Wang,
 G. J. O. Beran, N. A. Besley, J. M. Herbert, C. Y. Lin,
 T. Van Voorhis, S. H. Chien, A. Sodt, R. P. Steele, 
 V. A. Rassolov, P. E. Maslen, P. P. Korambath, R. D. Adamson,
 B. Austin, J. Baker, E. F. C. Byrd, H. Dachsel, R. J. Doerksen,
 A. Dreuw, B. D. Dunietz, A. D. Dutoi, T. R. Furlani,
 S. R. Gwaltney, A. Heyden, S. Hirata, C.-P. Hsu, G. Kedziora,
 R. Z. Khaliullin, P. Klunzinger, A. M. Lee, M. S. Lee, W. Liang,
 I. Lotan, N. Nair, B. Peters, E. I. Proynov, P. A. Pieniazek, 
 Y. M. Rhee, J. Ritchie, E. Rosta, C. D. Sherrill, 
 A. C. Simmonett, J. E. Subotnik, H. L. Woodcock III,
 W. Zhang, A. T. Bell, A. K. Chakraborty, D. M. Chipman,
 F. J. Keil, A. Warshel, W. J. Hehre, H. F. Schaefer III,
 J. Kong, A. I. Krylov, P. M. W. Gill, M. Head-Gordon,
 Q-Chem, Version 3.1, Q-Chem, Inc., Pittsburgh, PA (2007).

 Additional authors for Version 3.1: 
 Z. Gan, Y. Zhao, N. E. Schultz, D. Truhlar, E. Epifanovsky and M. Oana.

 Additional authors for Version 3.2: 
 R. Baer, B. R. Brooks, D. Casanova, J.-D. Chai, C.-L. Cheng, 
 C. Cramer, D. Crittenden, A. Ghysels, G. Hawkins, E. G. Hohenstein, 
 C. Kelley, W. Kurlancheek, D. Liotard, E. Livshits, P. Manohar, 
 A. Marenich, D. Neuhauser, R. Olson, M. A. Rohrdanz, K. S. Thanthiriwatte, 
 A. J. W. Thom, V. Vanovschi, C. F. Williams, Q. Wu and Z.-Q. You. 


 Intel X86 Linux Version

 Q-chem begins on Wed Jul  3 20:25:09 2013  

 Parallel job on  1  processors
Processing $rem in /usr/local/qchem/config/preferences.

theFileMan(): MAXOPENFILES=974 MAX_SUB_FILE_NUM=16
Maximum size of a physical file is 2.0 GB, maximum size of a tmp-file is 32.0 GB


--------------------------------------------------------------
User input:
--------------------------------------------------------------

$molecule 
READ 
$end 

$xc_functional
C PBE   1.00
X wPBE  1.00
$end


$rem
SYMMETRY_DECOMPOSITION	0
LRC_DFT                 true
exchange 		general
BASIS                   g3large
omega			410 
JOBTYPE                 freq
IDERIV 1
SCF_GUESS READ
mem_static              760
max_scf_cycles          200
scf_final_print         1
sym_ignore              true
$end

--------------------------------------------------------------
 Writing REM_CC_EA            3
 ----------------------------------------------------
       Standard Nuclear Orientation (Angstroms)
    I     Atom         X            Y            Z
 ----------------------------------------------------
    1      Cl      0.019488     0.000000     0.082326
    2      N      -0.005158     0.000000     1.967087
    3      O       1.029461     0.000000     2.424376
 ----------------------------------------------------
 Nuclear Repulsion Energy =    87.8227030553 hartrees
 There are       16 alpha and       16 beta electrons
 Requested basis set is G3large
 There are 39 shells and 150 basis functions

Total QAlloc Memory Limit   2000 MB
Mega-Array Size       759 MB
MEM_STATIC part       760 MB

                       Distance Matrix (Angstroms)
             Cl(  1)   N (  2)
   N (  2)  1.884922
   O (  3)  2.550538  1.131172
 
 A cutoff of  1.0D-11 yielded    713 shell pairs
 There are  10893 function pairs ( 14915 Cartesian)
Evaluating contribution to one-electron hamiltonian from nuclear
 Smallest overlap matrix eigenvalue = 1.01E-03
 Multipole matrices computed through 2nd order
 Guess MOs from SCF MO coefficient file
Reading MOs from coefficient file
Reading MOs from coefficient file
 Long-range K will be added via erf
 Coulomb attenuation parameter = 0.41 bohr**(-1)
 A restricted Kohn-Sham SCF calculation will be
 performed using Pulay DIIS extrapolation
 Exchange:  wPBE + LR-HF      Correlation:  PBE
 Using SG-1 standard quadrature grid
 SCF converges when DIIS error is below 1.0E-08
 ---------------------------------------
  Cycle       Energy         DIIS Error
 ---------------------------------------
    1    -589.9002412561      1.42E-09
    2    -589.9002412558      8.03E-10 Convergence criterion met
 ---------------------------------------
 One-Electron    Energy =  -986.7946027538
 Total Coulomb   Energy =   352.4318443042
 Alpha Exchange  Energy =    -3.3693213998
 Beta  Exchange  Energy =    -3.3693213998
 DFT   Exchange  Energy =   -35.4534594277
 DFT Correlation Energy =    -1.1680836343
 Nuclear Repu.   Energy =    87.8227030553
 Nuclear Attr.   Energy = -1575.8405275494
 Kinetic         Energy =   589.0459247957
 SCF time:  CPU 14.12 s  wall 14.23 s
 Final Alpha MO Eigenvalues
            1           2           3           4           5           6
    1-100.8858465 -19.1321151 -14.4387560  -9.4084783  -7.2260661  -7.2175820
            7           8           9          10          11          12
    1  -7.2160351  -1.4463093  -1.0021768  -0.8372679  -0.7063623  -0.7021974
           13          14          15          16          17          18
    1  -0.6771864  -0.4525849  -0.4475264  -0.4140277  -0.0364383   0.0169800
           19          20          21
    1   0.0917871   0.1235719   0.1271267
 Analysis of SCF Wavefunction
 
 --------------------------------------------------------------
                    Orbital Energies (a.u.)
 --------------------------------------------------------------
 
 Alpha MOs
 -- Occupied --
******* -19.132 -14.439  -9.408  -7.226  -7.218  -7.216  -1.446
 -1.002  -0.837  -0.706  -0.702  -0.677  -0.453  -0.448  -0.414
 -- Virtual --
 -0.036   0.017   0.092   0.124   0.127   0.127   0.162   0.182
  0.184   0.239   0.260   0.283   0.295   0.370   0.392   0.392
  0.411   0.474   0.518   0.545   0.577   0.587   0.611   0.815
  0.836   0.862   0.969   1.030   1.032   1.080   1.094   1.110
  1.129   1.167   1.202   1.210   1.218   1.221   1.242   1.243
  1.271   1.318   1.371   1.523   1.540   1.592   1.666   1.709
  1.779   1.852   1.989   2.171   2.194   2.262   2.373   2.528
  2.595   3.573   3.584   3.664   3.674   3.706   3.706   3.951
  4.004   4.119   4.459   4.461   4.469   4.482   4.511   4.538
  4.554   4.613   4.686   4.703   4.757   4.904   4.962   5.020
  5.030   5.060   5.124   5.131   5.159   5.194   5.237   5.481
  5.542   5.567   5.887   6.725   6.749   6.789   6.839   7.126
  7.181   7.401   7.736   9.676  20.568  20.582  20.842  27.104
 27.180  27.188  27.209  27.244  35.666  36.825  36.826  36.827
 36.828  36.833  36.836  36.837  37.175  37.304  37.896  40.324
 40.394  40.446  40.455  40.667  43.541  43.588  43.674  43.687
 43.897  45.590  45.662  46.406  50.018 215.524
 --------------------------------------------------------------
 
          Ground-State Mulliken Net Atomic Charges

     Atom                 Charge (a.u.)
  ----------------------------------------
      1 Cl                   -0.246508
      2 N                     0.108292
      3 O                     0.138217
  ----------------------------------------
  Sum of atomic charges =     0.000000

 -----------------------------------------------------------------
                    Cartesian Multipole Moments
 -----------------------------------------------------------------
    Charge (ESU x 10^10)
                 0.0000
    Dipole Moment (Debye)
         X       0.2907      Y       0.0000      Z       1.3824
       Tot       1.4127
    Quadrupole Moments (Debye-Ang)
        XX     -23.8200     XY       0.0000     YY     -22.4593
        XZ       0.6725     YZ       0.0000     ZZ     -19.6610
    Octapole Moments (Debye-Ang^2)
       XXX     -16.2287    XXY       0.0000    XYY      -4.9163
       YYY       0.0000    XXZ     -24.2023    XYZ       0.0000
       YYZ     -21.5160    XZZ      -4.1201    YZZ       0.0000
       ZZZ     -66.1502
    Hexadecapole Moments (Debye-Ang^3)
      XXXX     -56.3668   XXXY       0.0000   XXYY     -12.6707
      XYYY       0.0000   YYYY     -22.4439   XXXZ     -37.0112
      XXYZ       0.0000   XYYZ     -11.3077   YYYZ       0.0000
      XXZZ     -64.5534   XYZZ       0.0000   YYZZ     -52.7462
      XZZZ     -35.1304   YZZZ       0.0000   ZZZZ    -313.2264
 -----------------------------------------------------------------
 Calculating analytic gradient of the SCF energy
 Gradient of AOints
            1           2           3
    1   2.1400078  14.5957960 -16.7358038
    2  -0.0000000   0.0000000  -0.0000000
    3  14.4921929  -3.7524400 -10.7397529
 Gradient of XC Energy
            1           2           3
    1  -0.0035924  -0.5247860   0.5283784
    2   0.0000000  -0.0000000   0.0000000
    3  -0.1202681  -0.1058857   0.2261538
 Gradient of SCF Energy
            1           2           3
    1   0.0000079   0.0001831  -0.0001910
    2   0.0000000  -0.0000000   0.0000000
    3  -0.0000056  -0.0000128   0.0000184
 Max gradient component =       1.910E-04
 RMS gradient           =       8.858E-05
 Gradient time:  CPU 35.87 s  wall 36.04 s
 ######################################################
 ######################################################
 # Starting finite difference calculation for IDERIV  #
 Finite diff step size: 1.89e-03 a.u.
 Writing REM_CC_EA            3
 ----------------------------------------------------
       Standard Nuclear Orientation (Angstroms)
    I     Atom         X            Y            Z
 ----------------------------------------------------
    1      Cl      0.020488     0.000000     0.082326
    2      N      -0.005158     0.000000     1.967087
    3      O       1.029461     0.000000     2.424376
 ----------------------------------------------------
 Nuclear Repulsion Energy =    87.8268462683 hartrees
 There are       16 alpha and       16 beta electrons

                       Distance Matrix (Angstroms)
             Cl(  1)   N (  2)
   N (  2)  1.884935
   O (  3)  2.550142  1.131172
 
 Requested basis set is G3large
 There are 39 shells and 150 basis functions
 A cutoff of  1.0D-11 yielded    713 shell pairs
 There are  10893 function pairs ( 14915 Cartesian)
Evaluating contribution to one-electron hamiltonian from nuclear
 Smallest overlap matrix eigenvalue = 1.01E-03
 Multipole matrices computed through 2nd order
 Guess MOs from SCF MO coefficient file
Reading MOs from coefficient file
Reading MOs from coefficient file
 Long-range K will be added via erf
 Coulomb attenuation parameter = 0.41 bohr**(-1)
 A restricted Kohn-Sham SCF calculation will be
 performed using Pulay DIIS extrapolation
 Exchange:  wPBE + LR-HF      Correlation:  PBE
 Using SG-1 standard quadrature grid
 SCF converges when DIIS error is below 1.0E-08
 ---------------------------------------
  Cycle       Energy         DIIS Error
 ---------------------------------------
    1    -589.9002451250      7.97E-06
    2    -589.9002411384      2.26E-06
    3    -589.9002411627      2.78E-06
    4    -589.9002412129      4.61E-07
    5    -589.9002412251      2.89E-07
    6    -589.9002412188      1.26E-07
    7    -589.9002412239      2.84E-08
    8    -589.9002412226      9.14E-09 Convergence criterion met
 ---------------------------------------
 One-Electron    Energy =  -986.8029819855
 Total Coulomb   Energy =   352.4361017442
 Alpha Exchange  Energy =    -3.3693246197
 Beta  Exchange  Energy =    -3.3693246197
 DFT   Exchange  Energy =   -35.4534719457
 DFT Correlation Energy =    -1.1680860645
 Nuclear Repu.   Energy =    87.8268462683
 Nuclear Attr.   Energy = -1575.8489974179
 Kinetic         Energy =   589.0460154324
 SCF time:  CPU 51.17 s  wall 51.60 s
 Final Alpha MO Eigenvalues
            1           2           3           4           5           6
    1-100.8858364 -19.1321046 -14.4387673  -9.4084693  -7.2260573  -7.2175725
            7           8           9          10          11          12
    1  -7.2160261  -1.4463148  -1.0021620  -0.8372730  -0.7063611  -0.7021999
           13          14          15          16          17          18
    1  -0.6771829  -0.4525774  -0.4475119  -0.4140509  -0.0364412   0.0169788
           19          20          21
    1   0.0917982   0.1235753   0.1271240
 Analysis of SCF Wavefunction
 
 --------------------------------------------------------------
                    Orbital Energies (a.u.)
 --------------------------------------------------------------
 
 Alpha MOs
 -- Occupied --
******* -19.132 -14.439  -9.408  -7.226  -7.218  -7.216  -1.446
 -1.002  -0.837  -0.706  -0.702  -0.677  -0.453  -0.448  -0.414
 -- Virtual --
 -0.036   0.017   0.092   0.124   0.127   0.127   0.162   0.182
  0.184   0.239   0.260   0.283   0.295   0.370   0.392   0.392
  0.411   0.474   0.518   0.545   0.577   0.587   0.611   0.814
  0.836   0.862   0.969   1.030   1.032   1.080   1.094   1.110
  1.129   1.167   1.202   1.210   1.218   1.221   1.242   1.243
  1.270   1.318   1.371   1.523   1.540   1.592   1.666   1.709
  1.778   1.852   1.989   2.171   2.194   2.262   2.373   2.528
  2.595   3.573   3.584   3.664   3.674   3.706   3.706   3.951
  4.004   4.119   4.459   4.461   4.469   4.482   4.511   4.538
  4.554   4.613   4.686   4.703   4.757   4.904   4.962   5.020
  5.030   5.060   5.124   5.131   5.159   5.194   5.237   5.481
  5.542   5.568   5.887   6.725   6.749   6.789   6.839   7.126
  7.182   7.401   7.736   9.676  20.568  20.582  20.842  27.104
 27.180  27.188  27.209  27.244  35.666  36.825  36.826  36.827
 36.828  36.833  36.836  36.837  37.175  37.304  37.896  40.324
 40.394  40.445  40.455  40.667  43.541  43.588  43.674  43.687
 43.897  45.590  45.662  46.406  50.018 215.524
 --------------------------------------------------------------
 
          Ground-State Mulliken Net Atomic Charges

     Atom                 Charge (a.u.)
  ----------------------------------------
      1 Cl                   -0.246538
      2 N                     0.108303
      3 O                     0.138234
  ----------------------------------------
  Sum of atomic charges =     0.000000

 -----------------------------------------------------------------
                    Cartesian Multipole Moments
 -----------------------------------------------------------------
    Charge (ESU x 10^10)
                 0.0000
    Dipole Moment (Debye)
         X       0.2900      Y       0.0000      Z       1.3827
       Tot       1.4128
    Quadrupole Moments (Debye-Ang)
        XX     -23.8200     XY       0.0000     YY     -22.4593
        XZ       0.6711     YZ       0.0000     ZZ     -19.6602
    Octapole Moments (Debye-Ang^2)
       XXX     -16.2680    XXY       0.0000    XYY      -4.9293
       YYY       0.0000    XXZ     -24.2021    XYZ       0.0000
       YYZ     -21.5157    XZZ      -4.1330    YZZ       0.0000
       ZZZ     -66.1489
    Hexadecapole Moments (Debye-Ang^3)
      XXXX     -56.3696   XXXY       0.0000   XXYY     -12.6711
      XYYY       0.0000   YYYY     -22.4439   XXXZ     -37.0147
      XXYZ       0.0000   XYYZ     -11.3091   YYYZ       0.0000
      XXZZ     -64.5537   XYZZ       0.0000   YYZZ     -52.7457
      XZZZ     -35.1392   YZZZ       0.0000   ZZZZ    -313.2252
 -----------------------------------------------------------------
 Calculating analytic gradient of the SCF energy
 Gradient of AOints
            1           2           3
    1   2.1322335  14.6027574 -16.7349908
    2  -0.0000000   0.0000000  -0.0000000
    3  14.4932288  -3.7533287 -10.7399001
 Gradient of XC Energy
            1           2           3
    1  -0.0034944  -0.5248949   0.5283892
    2   0.0000000  -0.0000000   0.0000000
    3  -0.1202449  -0.1058528   0.2260977
 Gradient of SCF Energy
            1           2           3
    1   0.0000631   0.0001128  -0.0001759
    2   0.0000000  -0.0000000   0.0000000
    3   0.0000078   0.0000684  -0.0000762
 Max gradient component =       1.759E-04
 RMS gradient           =       8.040E-05
 Gradient time:  CPU 37.06 s  wall 37.14 s
 Writing REM_CC_EA            3
 ----------------------------------------------------
       Standard Nuclear Orientation (Angstroms)
    I     Atom         X            Y            Z
 ----------------------------------------------------
    1      Cl      0.018488     0.000000     0.082326
    2      N      -0.005158     0.000000     1.967087
    3      O       1.029461     0.000000     2.424376
 ----------------------------------------------------
 Nuclear Repulsion Energy =    87.8185481469 hartrees
 There are       16 alpha and       16 beta electrons

                       Distance Matrix (Angstroms)
             Cl(  1)   N (  2)
   N (  2)  1.884909
   O (  3)  2.550934  1.131172
 
 Requested basis set is G3large
 There are 39 shells and 150 basis functions
 A cutoff of  1.0D-11 yielded    713 shell pairs
 There are  10893 function pairs ( 14915 Cartesian)
Evaluating contribution to one-electron hamiltonian from nuclear
 Smallest overlap matrix eigenvalue = 1.01E-03
 Multipole matrices computed through 2nd order
 Guess MOs from SCF MO coefficient file
Reading MOs from coefficient file
Reading MOs from coefficient file
 Long-range K will be added via erf
 Coulomb attenuation parameter = 0.41 bohr**(-1)
 A restricted Kohn-Sham SCF calculation will be
 performed using Pulay DIIS extrapolation
 Exchange:  wPBE + LR-HF      Correlation:  PBE
 Using SG-1 standard quadrature grid
 SCF converges when DIIS error is below 1.0E-08
 ---------------------------------------
  Cycle       Energy         DIIS Error
 ---------------------------------------
    1    -589.9002326734      1.60E-05
    2    -589.9002411170      4.53E-06
    3    -589.9002411803      5.57E-06
    4    -589.9002412072      9.20E-07
    5    -589.9002411960      5.76E-07
    6    -589.9002412115      2.53E-07
    7    -589.9002412020      5.67E-08
    8    -589.9002412020      1.82E-08
    9    -589.9002412009      4.14E-09 Convergence criterion met
 ---------------------------------------
 One-Electron    Energy =  -986.7862024411
 Total Coulomb   Energy =   352.4275776400
 Alpha Exchange  Energy =    -3.3693181722
 Beta  Exchange  Energy =    -3.3693181722
 DFT   Exchange  Energy =   -35.4534470104
 DFT Correlation Energy =    -1.1680811919
 Nuclear Repu.   Energy =    87.8185481469
 Nuclear Attr.   Energy = -1575.8320386395
 Kinetic         Energy =   589.0458361984
 SCF time:  CPU 57.13 s  wall 57.75 s
 Final Alpha MO Eigenvalues
            1           2           3           4           5           6
    1-100.8858566 -19.1321256 -14.4387448  -9.4084871  -7.2260747  -7.2175913
            7           8           9          10          11          12
    1  -7.2160441  -1.4463039  -1.0021915  -0.8372629  -0.7063634  -0.7021950
           13          14          15          16          17          18
    1  -0.6771899  -0.4525924  -0.4475408  -0.4140044  -0.0364354   0.0169812
           19          20          21
    1   0.0917759   0.1235686   0.1271294
 Analysis of SCF Wavefunction
 
 --------------------------------------------------------------
                    Orbital Energies (a.u.)
 --------------------------------------------------------------
 
 Alpha MOs
 -- Occupied --
******* -19.132 -14.439  -9.408  -7.226  -7.218  -7.216  -1.446
 -1.002  -0.837  -0.706  -0.702  -0.677  -0.453  -0.448  -0.414
 -- Virtual --
 -0.036   0.017   0.092   0.124   0.127   0.127   0.162   0.182
  0.184   0.239   0.260   0.283   0.295   0.370   0.392   0.392
  0.411   0.474   0.518   0.545   0.577   0.587   0.611   0.815
  0.836   0.862   0.969   1.030   1.032   1.080   1.094   1.110
  1.129   1.167   1.202   1.210   1.218   1.221   1.242   1.243
  1.271   1.318   1.371   1.523   1.540   1.592   1.666   1.709
  1.779   1.852   1.989   2.171   2.194   2.262   2.374   2.528
  2.595   3.573   3.584   3.664   3.674   3.706   3.706   3.951
  4.004   4.120   4.459   4.461   4.469   4.482   4.511   4.538
  4.554   4.613   4.686   4.703   4.757   4.904   4.961   5.020
  5.030   5.060   5.124   5.131   5.159   5.194   5.237   5.481
  5.542   5.567   5.887   6.725   6.749   6.789   6.839   7.126
  7.181   7.401   7.736   9.676  20.568  20.582  20.842  27.104
 27.180  27.188  27.209  27.244  35.666  36.825  36.826  36.827
 36.828  36.833  36.836  36.837  37.175  37.304  37.896  40.324
 40.394  40.446  40.455  40.667  43.541  43.588  43.674  43.687
 43.897  45.590  45.662  46.406  50.018 215.524
 --------------------------------------------------------------
 
          Ground-State Mulliken Net Atomic Charges

     Atom                 Charge (a.u.)
  ----------------------------------------
      1 Cl                   -0.246480
      2 N                     0.108280
      3 O                     0.138200
  ----------------------------------------
  Sum of atomic charges =     0.000000

 -----------------------------------------------------------------
                    Cartesian Multipole Moments
 -----------------------------------------------------------------
    Charge (ESU x 10^10)
                 0.0000
    Dipole Moment (Debye)
         X       0.2915      Y       0.0000      Z       1.3821
       Tot       1.4125
    Quadrupole Moments (Debye-Ang)
        XX     -23.8200     XY       0.0000     YY     -22.4593
        XZ       0.6739     YZ       0.0000     ZZ     -19.6617
    Octapole Moments (Debye-Ang^2)
       XXX     -16.1893    XXY       0.0000    XYY      -4.9033
       YYY       0.0000    XXZ     -24.2026    XYZ       0.0000
       YYZ     -21.5162    XZZ      -4.1072    YZZ       0.0000
       ZZZ     -66.1514
    Hexadecapole Moments (Debye-Ang^3)
      XXXX     -56.3641   XXXY       0.0000   XXYY     -12.6703
      XYYY       0.0000   YYYY     -22.4438   XXXZ     -37.0076
      XXYZ       0.0000   XYYZ     -11.3063   YYYZ       0.0000
      XXZZ     -64.5530   XYZZ       0.0000   YYZZ     -52.7467
      XZZZ     -35.1216   YZZZ       0.0000   ZZZZ    -313.2274
 -----------------------------------------------------------------
 Calculating analytic gradient of the SCF energy
 Gradient of AOints
            1           2           3
    1   2.1477794  14.5888366 -16.7366160
    2   0.0000000  -0.0000000  -0.0000000
    3  14.4911455  -3.7515418 -10.7396037
 Gradient of XC Energy
            1           2           3
    1  -0.0036903  -0.5246773   0.5283677
    2  -0.0000000  -0.0000000   0.0000000
    3  -0.1202911  -0.1059187   0.2262098
 Gradient of SCF Energy
            1           2           3
    1  -0.0000473   0.0002533  -0.0002060
    2  -0.0000000  -0.0000000   0.0000000
    3  -0.0000189  -0.0000939   0.0001128
 Max gradient component =       2.533E-04
 RMS gradient           =       1.205E-04
 Gradient time:  CPU 37.44 s  wall 37.54 s
 Writing REM_CC_EA            3
 ----------------------------------------------------
       Standard Nuclear Orientation (Angstroms)
    I     Atom         X            Y            Z
 ----------------------------------------------------
    1      Cl      0.019488     0.001000     0.082326
    2      N      -0.005158     0.000000     1.967087
    3      O       1.029461     0.000000     2.424376
 ----------------------------------------------------
 Nuclear Repulsion Energy =    87.8226961850 hartrees
 There are       16 alpha and       16 beta electrons

                       Distance Matrix (Angstroms)
             Cl(  1)   N (  2)
   N (  2)  1.884922
   O (  3)  2.550538  1.131172
 
 Requested basis set is G3large
 There are 39 shells and 150 basis functions
 A cutoff of  1.0D-11 yielded    713 shell pairs
 There are  10893 function pairs ( 14915 Cartesian)
Evaluating contribution to one-electron hamiltonian from nuclear
 Smallest overlap matrix eigenvalue = 1.01E-03
 Multipole matrices computed through 2nd order
 Guess MOs from SCF MO coefficient file
Reading MOs from coefficient file
Reading MOs from coefficient file
 Long-range K will be added via erf
 Coulomb attenuation parameter = 0.41 bohr**(-1)
 A restricted Kohn-Sham SCF calculation will be
 performed using Pulay DIIS extrapolation
 Exchange:  wPBE + LR-HF      Correlation:  PBE
 Using SG-1 standard quadrature grid
 SCF converges when DIIS error is below 1.0E-08
 ---------------------------------------
  Cycle       Energy         DIIS Error
 ---------------------------------------
    1    -589.9002452529      1.09E-05
    2    -589.9002411791      2.53E-06
    3    -589.9002412189      3.03E-06
    4    -589.9002412793      7.11E-07
    5    -589.9002412940      4.02E-07
    6    -589.9002412866      2.13E-07
    7    -589.9002412943      8.62E-08
    8    -589.9002412932      4.35E-08
    9    -589.9002412939      1.84E-08
   10    -589.9002412934      5.12E-09 Convergence criterion met
 ---------------------------------------
 One-Electron    Energy =  -986.7945896573
 Total Coulomb   Energy =   352.4318380360
 Alpha Exchange  Energy =    -3.3693213946
 Beta  Exchange  Energy =    -3.3693213946
 DFT   Exchange  Energy =   -35.4534594398
 DFT Correlation Energy =    -1.1680836280
 Nuclear Repu.   Energy =    87.8226961850
 Nuclear Attr.   Energy = -1575.8405147727
 Kinetic         Energy =   589.0459251154
 SCF time:  CPU 63.23 s  wall 63.77 s
 Final Alpha MO Eigenvalues
            1           2           3           4           5           6
    1-100.8858465 -19.1321151 -14.4387561  -9.4084783  -7.2260660  -7.2175819
            7           8           9          10          11          12
    1  -7.2160351  -1.4463094  -1.0021768  -0.8372679  -0.7063623  -0.7021974
           13          14          15          16          17          18
    1  -0.6771864  -0.4525849  -0.4475264  -0.4140277  -0.0364383   0.0169800
           19          20          21
    1   0.0917871   0.1235719   0.1271267
 Analysis of SCF Wavefunction
 
 --------------------------------------------------------------
                    Orbital Energies (a.u.)
 --------------------------------------------------------------
 
 Alpha MOs
 -- Occupied --
******* -19.132 -14.439  -9.408  -7.226  -7.218  -7.216  -1.446
 -1.002  -0.837  -0.706  -0.702  -0.677  -0.453  -0.448  -0.414
 -- Virtual --
 -0.036   0.017   0.092   0.124   0.127   0.127   0.162   0.182
  0.184   0.239   0.260   0.283   0.295   0.370   0.392   0.392
  0.411   0.474   0.518   0.545   0.577   0.587   0.611   0.815
  0.836   0.862   0.969   1.030   1.032   1.080   1.094   1.110
  1.129   1.167   1.202   1.210   1.218   1.221   1.242   1.243
  1.271   1.318   1.371   1.523   1.540   1.592   1.666   1.709
  1.779   1.852   1.989   2.171   2.194   2.262   2.373   2.528
  2.595   3.573   3.584   3.664   3.674   3.706   3.706   3.951
  4.004   4.119   4.459   4.461   4.469   4.482   4.511   4.538
  4.554   4.613   4.686   4.703   4.757   4.904   4.962   5.020
  5.030   5.060   5.124   5.131   5.159   5.194   5.237   5.481
  5.542   5.567   5.887   6.725   6.749   6.789   6.839   7.126
  7.181   7.401   7.736   9.676  20.568  20.582  20.842  27.104
 27.180  27.188  27.209  27.244  35.666  36.825  36.826  36.827
 36.828  36.833  36.836  36.837  37.175  37.304  37.896  40.324
 40.394  40.446  40.455  40.667  43.541  43.588  43.674  43.687
 43.897  45.590  45.662  46.406  50.018 215.524
 --------------------------------------------------------------
 
          Ground-State Mulliken Net Atomic Charges

     Atom                 Charge (a.u.)
  ----------------------------------------
      1 Cl                   -0.246509
      2 N                     0.108292
      3 O                     0.138217
  ----------------------------------------
  Sum of atomic charges =     0.000000

 -----------------------------------------------------------------
                    Cartesian Multipole Moments
 -----------------------------------------------------------------
    Charge (ESU x 10^10)
                 0.0000
    Dipole Moment (Debye)
         X       0.2907      Y      -0.0007      Z       1.3824
       Tot       1.4127
    Quadrupole Moments (Debye-Ang)
        XX     -23.8200     XY      -0.0004     YY     -22.4593
        XZ       0.6725     YZ       0.0001     ZZ     -19.6610
    Octapole Moments (Debye-Ang^2)
       XXX     -16.2287    XXY      -0.0135    XYY      -4.9163
       YYY      -0.0394    XXZ     -24.2023    XYZ      -0.0003
       YYZ     -21.5160    XZZ      -4.1201    YZZ      -0.0092
       ZZZ     -66.1502
    Hexadecapole Moments (Debye-Ang^3)
      XXXX     -56.3668   XXXY      -0.0016   XXYY     -12.6707
      XYYY      -0.0011   YYYY     -22.4439   XXXZ     -37.0112
      XXYZ      -0.0011   XYYZ     -11.3077   YYYZ      -0.0033
      XXZZ     -64.5534   XYZZ      -0.0004   YYZZ     -52.7462
      XZZZ     -35.1304   YZZZ       0.0048   ZZZZ    -313.2263
 -----------------------------------------------------------------
 Calculating analytic gradient of the SCF energy
 Gradient of AOints
            1           2           3
    1   2.1400072  14.5957969 -16.7358041
    2  -0.0071532   0.0053863   0.0017669
    3  14.4921884  -3.7524363 -10.7397521
 Gradient of XC Energy
            1           2           3
    1  -0.0035924  -0.5247861   0.5283784
    2   0.0000619  -0.0000658   0.0000039
    3  -0.1202681  -0.1058858   0.2261538
 Gradient of SCF Energy
            1           2           3
    1   0.0000079   0.0001831  -0.0001909
    2  -0.0000008   0.0000008   0.0000000
    3  -0.0000056  -0.0000128   0.0000184
 Max gradient component =       1.909E-04
 RMS gradient           =       8.855E-05
 Gradient time:  CPU 37.46 s  wall 37.56 s
 Writing REM_CC_EA            3
 ----------------------------------------------------
       Standard Nuclear Orientation (Angstroms)
    I     Atom         X            Y            Z
 ----------------------------------------------------
    1      Cl      0.019488    -0.001000     0.082326
    2      N      -0.005158     0.000000     1.967087
    3      O       1.029461     0.000000     2.424376
 ----------------------------------------------------
 Nuclear Repulsion Energy =    87.8226961850 hartrees
 There are       16 alpha and       16 beta electrons

                       Distance Matrix (Angstroms)
             Cl(  1)   N (  2)
   N (  2)  1.884922
   O (  3)  2.550538  1.131172
 
 Requested basis set is G3large
 There are 39 shells and 150 basis functions
 A cutoff of  1.0D-11 yielded    713 shell pairs
 There are  10893 function pairs ( 14915 Cartesian)
[...]
Reading MOs from coefficient file
 Long-range K will be added via erf
 Coulomb attenuation parameter = 0.41 bohr**(-1)
 A restricted Kohn-Sham SCF calculation will be
 performed using Pulay DIIS extrapolation
 Exchange:  wPBE + LR-HF      Correlation:  PBE
 Using SG-1 standard quadrature grid
 SCF converges when DIIS error is below 1.0E-08
 ---------------------------------------
  Cycle       Energy         DIIS Error
 ---------------------------------------
    1    -589.9000064935      5.21E-05
    2    -589.9002404781      8.22E-06
    3    -589.9002405764      8.27E-06
    4    -589.9002407344      1.93E-06
    5    -589.9002407470      1.14E-06
    6    -589.9002407334      4.85E-07
    7    -589.9002407193      1.57E-07
    8    -589.9002407166      7.90E-08
    9    -589.9002407174      3.64E-08
   10    -589.9002407190      1.23E-08
   11    -589.9002407172      4.25E-09 Convergence criterion met
 ---------------------------------------
 One-Electron    Energy =  -986.7561312954
 Total Coulomb   Energy =   352.4123991446
 Alpha Exchange  Energy =    -3.3692899032
 Beta  Exchange  Energy =    -3.3692899032
 DFT   Exchange  Energy =   -35.4530541468
 DFT Correlation Energy =    -1.1680544646
 Nuclear Repu.   Energy =    87.8031798514
 Nuclear Attr.   Energy = -1575.7998138599
 Kinetic         Energy =   589.0436825645
 SCF time:  CPU 68.89 s  wall 69.50 s
 Final Alpha MO Eigenvalues
            1           2           3           4           5           6
    1-100.8859568 -19.1320736 -14.4387651  -9.4085810  -7.2261732  -7.2176843
            7           8           9          10          11          12
    1  -7.2161361  -1.4459291  -1.0022461  -0.8372783  -0.7061952  -0.7019630
           13          14          15          16          17          18
    1  -0.6770848  -0.4526467  -0.4476000  -0.4140539  -0.0365473   0.0169028
           19          20          21
    1   0.0917745   0.1235586   0.1271225
 Analysis of SCF Wavefunction
 
 --------------------------------------------------------------
                    Orbital Energies (a.u.)
 --------------------------------------------------------------
 
 Alpha MOs
 -- Occupied --
******* -19.132 -14.439  -9.409  -7.226  -7.218  -7.216  -1.446
 -1.002  -0.837  -0.706  -0.702  -0.677  -0.453  -0.448  -0.414
 -- Virtual --
 -0.037   0.017   0.092   0.124   0.127   0.127   0.162   0.182
  0.184   0.239   0.260   0.283   0.295   0.370   0.392   0.392
  0.411   0.474   0.518   0.545   0.577   0.587   0.611   0.815
  0.836   0.862   0.969   1.030   1.032   1.080   1.094   1.110
  1.129   1.167   1.202   1.210   1.218   1.221   1.242   1.243
  1.270   1.318   1.371   1.523   1.540   1.592   1.666   1.709
  1.779   1.851   1.988   2.171   2.193   2.262   2.374   2.528
  2.595   3.573   3.584   3.664   3.674   3.706   3.707   3.951
  4.003   4.119   4.459   4.461   4.469   4.482   4.511   4.537
  4.554   4.614   4.686   4.703   4.757   4.904   4.961   5.020
  5.030   5.059   5.124   5.131   5.159   5.194   5.237   5.481
  5.541   5.567   5.887   6.725   6.749   6.787   6.837   7.126
  7.181   7.401   7.735   9.676  20.568  20.582  20.842  27.104
 27.179  27.188  27.208  27.244  35.665  36.825  36.826  36.827
 36.828  36.833  36.836  36.837  37.175  37.304  37.896  40.324
 40.394  40.445  40.454  40.667  43.541  43.588  43.674  43.687
 43.897  45.590  45.662  46.405  50.017 215.524
 --------------------------------------------------------------
 
          Ground-State Mulliken Net Atomic Charges

     Atom                 Charge (a.u.)
  ----------------------------------------
      1 Cl                   -0.246183
      2 N                     0.108357
      3 O                     0.137826
  ----------------------------------------
  Sum of atomic charges =     0.000000

 -----------------------------------------------------------------
                    Cartesian Multipole Moments
 -----------------------------------------------------------------
    Charge (ESU x 10^10)
                 0.0000
    Dipole Moment (Debye)
         X       0.2895      Y       0.0000      Z       1.3787
       Tot       1.4087
    Quadrupole Moments (Debye-Ang)
        XX     -23.8214     XY       0.0000     YY     -22.4597
        XZ       0.6705     YZ       0.0000     ZZ     -19.6696
    Octapole Moments (Debye-Ang^2)
       XXX     -16.2325    XXY       0.0000    XYY      -4.9174
       YYY       0.0000    XXZ     -24.2123    XYZ       0.0000
       YYZ     -21.5242    XZZ      -4.1267    YZZ       0.0000
       ZZZ     -66.1944
    Hexadecapole Moments (Debye-Ang^3)
      XXXX     -56.3730   XXXY       0.0000   XXYY     -12.6715
      XYYY       0.0000   YYYY     -22.4433   XXXZ     -37.0335
      XXYZ       0.0000   XYYZ     -11.3147   YYYZ       0.0000
      XXZZ     -64.5870   XYZZ       0.0000   YYZZ     -52.7765
      XZZZ     -35.1626   YZZZ       0.0000   ZZZZ    -313.4601
 -----------------------------------------------------------------
 Calculating analytic gradient of the SCF energy
 Gradient of AOints
            1           2           3
    1   2.1404044  14.5836098 -16.7240142
    2   0.0000003  -0.0000005   0.0000002
    3  14.4930435  -3.7420368 -10.7510067
 Gradient of XC Energy
            1           2           3
    1  -0.0036495  -0.5242561   0.5279056
    2  -0.0000000   0.0000000   0.0000000
    3  -0.1203654  -0.1062059   0.2265713
 Gradient of SCF Energy
            1           2           3
    1  -0.0000865  -0.0004689   0.0005554
    2  -0.0000000  -0.0000000   0.0000000
    3  -0.0001370  -0.0003867   0.0005237
 Max gradient component =       5.554E-04
 RMS gradient           =       3.297E-04
 Gradient time:  CPU 34.96 s  wall 35.05 s
 Writing REM_CC_EA            3
 ----------------------------------------------------
       Standard Nuclear Orientation (Angstroms)
    I     Atom         X            Y            Z
 ----------------------------------------------------
    1      Cl      0.019488     0.000000     0.082326
    2      N      -0.005158     0.000000     1.967087
    3      O       1.029461     0.000000     2.423376
 ----------------------------------------------------
 Nuclear Repulsion Energy =    87.8422224578 hartrees
 There are       16 alpha and       16 beta electrons

                       Distance Matrix (Angstroms)
             Cl(  1)   N (  2)
   N (  2)  1.884922
   O (  3)  2.549619  1.130768
 
 Requested basis set is G3large
 There are 39 shells and 150 basis functions
 A cutoff of  1.0D-11 yielded    713 shell pairs
 There are  10893 function pairs ( 14915 Cartesian)
Evaluating contribution to one-electron hamiltonian from nuclear
 Smallest overlap matrix eigenvalue = 1.01E-03
 Multipole matrices computed through 2nd order
 Guess MOs from SCF MO coefficient file
Reading MOs from coefficient file
Reading MOs from coefficient file
 Long-range K will be added via erf
 Coulomb attenuation parameter = 0.41 bohr**(-1)
 A restricted Kohn-Sham SCF calculation will be
 performed using Pulay DIIS extrapolation
 Exchange:  wPBE + LR-HF      Correlation:  PBE
 Using SG-1 standard quadrature grid
 SCF converges when DIIS error is below 1.0E-08
 ---------------------------------------
  Cycle       Energy         DIIS Error
 ---------------------------------------
    1    -589.9007056044      8.33E-05
    2    -589.9002401689      1.49E-05
    3    -589.9002402670      1.57E-05
    4    -589.9002407787      2.92E-06
    5    -589.9002408107      1.61E-06
    6    -589.9002408621      4.84E-07
    7    -589.9002407988      1.22E-07
    8    -589.9002407968      5.02E-08
    9    -589.9002408001      1.18E-08
   10    -589.9002407987      3.32E-09 Convergence criterion met
 ---------------------------------------
 One-Electron    Energy =  -986.8330669085
 Total Coulomb   Energy =   352.4512867606
 Alpha Exchange  Energy =    -3.3693528573
 Beta  Exchange  Energy =    -3.3693528573
 DFT   Exchange  Energy =   -35.4538646241
 DFT Correlation Energy =    -1.1681127700
 Nuclear Repu.   Energy =    87.8422224578
 Nuclear Attr.   Energy = -1575.8812368561
 Kinetic         Energy =   589.0481699477
 SCF time:  CPU 63.01 s  wall 63.46 s
 Final Alpha MO Eigenvalues
            1           2           3           4           5           6
    1-100.8857362 -19.1321564 -14.4387470  -9.4083756  -7.2259590  -7.2174796
            7           8           9          10          11          12
    1  -7.2159342  -1.4466891  -1.0021076  -0.8372576  -0.7065293  -0.7024316
           13          14          15          16          17          18
    1  -0.6772875  -0.4525232  -0.4474529  -0.4140014  -0.0363294   0.0170571
           19          20          21
    1   0.0917996   0.1235852   0.1271309
 Analysis of SCF Wavefunction
 
 --------------------------------------------------------------
                    Orbital Energies (a.u.)
 --------------------------------------------------------------
 
 Alpha MOs
 -- Occupied --
******* -19.132 -14.439  -9.408  -7.226  -7.217  -7.216  -1.447
 -1.002  -0.837  -0.707  -0.702  -0.677  -0.453  -0.447  -0.414
 -- Virtual --
 -0.036   0.017   0.092   0.124   0.127   0.127   0.162   0.182
  0.184   0.239   0.260   0.283   0.295   0.370   0.392   0.392
  0.411   0.474   0.518   0.546   0.577   0.587   0.611   0.814
  0.836   0.862   0.969   1.030   1.032   1.080   1.094   1.110
  1.129   1.167   1.203   1.210   1.218   1.221   1.242   1.243
  1.271   1.318   1.371   1.523   1.540   1.592   1.666   1.709
  1.779   1.852   1.989   2.171   2.194   2.262   2.373   2.528
  2.595   3.573   3.584   3.664   3.674   3.706   3.706   3.951
  4.005   4.120   4.459   4.461   4.469   4.482   4.511   4.538
  4.554   4.613   4.687   4.703   4.758   4.904   4.962   5.020
  5.030   5.060   5.124   5.131   5.159   5.194   5.238   5.481
  5.542   5.568   5.887   6.725   6.749   6.791   6.841   7.126
  7.182   7.402   7.737   9.676  20.568  20.582  20.842  27.104
 27.180  27.188  27.209  27.244  35.667  36.825  36.826  36.827
 36.828  36.833  36.836  36.837  37.175  37.305  37.897  40.324
 40.394  40.446  40.455  40.667  43.541  43.588  43.674  43.687
 43.897  45.590  45.662  46.407  50.019 215.524
 --------------------------------------------------------------
 
          Ground-State Mulliken Net Atomic Charges

     Atom                 Charge (a.u.)
  ----------------------------------------
      1 Cl                   -0.246834
      2 N                     0.108226
      3 O                     0.138608
  ----------------------------------------
  Sum of atomic charges =     0.000000

 -----------------------------------------------------------------
                    Cartesian Multipole Moments
 -----------------------------------------------------------------
    Charge (ESU x 10^10)
                 0.0000
    Dipole Moment (Debye)
         X       0.2920      Y       0.0000      Z       1.3862
       Tot       1.4166
    Quadrupole Moments (Debye-Ang)
        XX     -23.8185     XY       0.0000     YY     -22.4589
        XZ       0.6744     YZ       0.0000     ZZ     -19.6523
    Octapole Moments (Debye-Ang^2)
       XXX     -16.2249    XXY       0.0000    XYY      -4.9152
       YYY       0.0000    XXZ     -24.1924    XYZ       0.0000
       YYZ     -21.5077    XZZ      -4.1135    YZZ       0.0000
       ZZZ     -66.1061
    Hexadecapole Moments (Debye-Ang^3)
      XXXX     -56.3605   XXXY       0.0000   XXYY     -12.6699
      XYYY       0.0000   YYYY     -22.4444   XXXZ     -36.9888
      XXYZ       0.0000   XYYZ     -11.3007   YYYZ       0.0000
      XXZZ     -64.5198   XYZZ       0.0000   YYZZ     -52.7159
      XZZZ     -35.0982   YZZZ       0.0000   ZZZZ    -312.9928
 -----------------------------------------------------------------
 Calculating analytic gradient of the SCF energy
 Gradient of AOints
            1           2           3
    1   2.1396059  14.6079684 -16.7475743
    2  -0.0000000   0.0000000  -0.0000000
    3  14.4913388  -3.7628702 -10.7284686
 Gradient of XC Energy
            1           2           3
    1  -0.0035351  -0.5253153   0.5288503
    2   0.0000000  -0.0000000   0.0000000
    3  -0.1201707  -0.1055641   0.2257348
 Gradient of SCF Energy
            1           2           3
    1   0.0001025   0.0008366  -0.0009390
    2   0.0000000  -0.0000000   0.0000000
    3   0.0001261   0.0003606  -0.0004867
 Max gradient component =       9.390E-04
 RMS gradient           =       4.684E-04
 Gradient time:  CPU 34.97 s  wall 35.07 s
Dipole drv :
gprntSymmMtrx error report: 
 Final Hessian.
            1           2           3           4           5           6
    1   0.0292083  -0.0000009   0.0070604  -0.0371569   0.0000027   0.0429341
    2  -0.0000009  -0.0004362  -0.0000016   0.0000064   0.0004401   0.0000042
    3   0.0070604  -0.0000016   0.0989493   0.1144881  -0.0000027  -0.0293152
    4  -0.0371569   0.0000064   0.1144881   0.9696251  -0.0000054   0.2309355
    5   0.0000027   0.0004401  -0.0000027  -0.0000054   0.0001242   0.0000044
    6   0.0429341   0.0000042  -0.0293152   0.2309355   0.0000044   0.2270429
    7   0.0079547  -0.0000055  -0.1215489  -0.9324749   0.0000000  -0.2738595
    8  -0.0000007  -0.0000004   0.0000002   0.0000051  -0.0005644  -0.0000017
    9  -0.0499994  -0.0000003  -0.0696348  -0.3454092  -0.0000058  -0.1977250
            7           8           9
    1   0.0079547  -0.0000007  -0.0499994
    2  -0.0000055  -0.0000004  -0.0000003
    3  -0.1215489   0.0000002  -0.0696348
    4  -0.9324749   0.0000051  -0.3454092
    5   0.0000000  -0.0005644  -0.0000058
    6  -0.2738595  -0.0000017  -0.1977250
    7   0.9245208  -0.0000043   0.3953989
    8  -0.0000043   0.0005614   0.0000032
    9   0.3953989   0.0000032   0.2673577
 Writing REM_CC_EA            3
 ----------------------------------------------------
       Standard Nuclear Orientation (Angstroms)
    I     Atom         X            Y            Z
 ----------------------------------------------------
    1      Cl      0.019488     0.000000     0.082326
    2      N      -0.005158     0.000000     1.967087
    3      O       1.029461     0.000000     2.424376
 ----------------------------------------------------
 Nuclear Repulsion Energy =    87.8227030553 hartrees
 There are       16 alpha and       16 beta electrons
 old dipole drv.
            1           2           3           4           5           6
    1  -0.1516515  -0.0000078  -0.2840476   0.7503806  -0.0000045   0.5431084
    2   0.0000003  -0.1381258  -0.0000217  -0.0000006   0.0765134   0.0000028
    3   0.0629064  -0.0001212  -1.5254539   1.6599073   0.0000321   2.3069959
            7           8           9
    1  -0.5986926   0.0000056  -0.2590799
    2  -0.0000003   0.0615551  -0.0000022
    3  -1.7227421  -0.0000481  -0.7815913
 New transposed dipole drv.
            1           2           3
    1  -0.1516515   0.0000003   0.0629064
    2  -0.0000078  -0.1381258  -0.0001212
    3  -0.2840476  -0.0000217  -1.5254539
    4   0.7503806  -0.0000006   1.6599073
    5  -0.0000045   0.0765134   0.0000321
    6   0.5431084   0.0000028   2.3069959
    7  -0.5986926  -0.0000003  -1.7227421
    8   0.0000056   0.0615551  -0.0000481
    9  -0.2590799  -0.0000022  -0.7815913
FINAL TENSOR RESULT:
Order 2, Length 9
Order 1, Length 9
   0.0292083  -0.0000009   0.0070604  -0.0371569   0.0000027   0.0429341   0.0079547  -0.0000007  -0.0499994
Order 1, Length 9
  -0.0000009  -0.0004362  -0.0000016   0.0000064   0.0004401   0.0000042  -0.0000055  -0.0000004  -0.0000003
Order 1, Length 9
   0.0070604  -0.0000016   0.0989493   0.1144881  -0.0000027  -0.0293152  -0.1215489   0.0000002  -0.0696348
Order 1, Length 9
  -0.0371569   0.0000064   0.1144881   0.9696251  -0.0000054   0.2309355  -0.9324749   0.0000051  -0.3454092
Order 1, Length 9
   0.0000027   0.0004401  -0.0000027  -0.0000054   0.0001242   0.0000044   0.0000000  -0.0005644  -0.0000058
Order 1, Length 9
   0.0429341   0.0000042  -0.0293152   0.2309355   0.0000044   0.2270429  -0.2738595  -0.0000017  -0.1977250
Order 1, Length 9
   0.0079547  -0.0000055  -0.1215489  -0.9324749   0.0000000  -0.2738595   0.9245208  -0.0000043   0.3953989
Order 1, Length 9
  -0.0000007  -0.0000004   0.0000002   0.0000051  -0.0005644  -0.0000017  -0.0000043   0.0005614   0.0000032
Order 1, Length 9
  -0.0499994  -0.0000003  -0.0696348  -0.3454092  -0.0000058  -0.1977250   0.3953989   0.0000032   0.2673577


 # Finishing finite difference calculation for IDERIV #
 ######################################################
 ######################################################
 Requested basis set is G3large
 There are 39 shells and 150 basis functions
 **********************************************************************
 **                                                                  **
 **                       VIBRATIONAL ANALYSIS                       **
 **                       --------------------                       **
 **                                                                  **
 **        VIBRATIONAL FREQUENCIES (CM**-1) AND NORMAL MODES         **
 **     FORCE CONSTANTS (mDYN/ANGSTROM) AND REDUCED MASSES (AMU)     **
 **                  INFRARED INTENSITIES (KM/MOL)                   **
 **                                                                  **
 **********************************************************************
 

 Mode:                 1                      2                      3
 Frequency:       371.01                 659.63                1936.81
 Force Cnst:      1.6505                 3.8418                32.9862
 Red. Mass:      20.3517                14.9860                14.9247
 IR Active:          YES                    YES                    YES
 IR Intens:      152.157                158.014                623.115
 Raman Active:       YES                    YES                    YES
               X      Y      Z        X      Y      Z        X      Y      Z
 Cl         0.141  0.000  0.495    0.131  0.000 -0.078   -0.002  0.000  0.035
 N         -0.254  0.000 -0.521   -0.386  0.000  0.761    0.708  0.000  0.218
 O         -0.086  0.000 -0.626    0.051  0.000 -0.495   -0.616  0.000 -0.266
 TransDip  -0.093  0.000 -0.384    0.058  0.000  0.398    0.279  0.000  0.749

 STANDARD THERMODYNAMIC QUANTITIES AT   298.18 K  AND     1.00 ATM

   This Molecule has  0 Imaginary Frequencies
   Zero point vibrational energy:        4.242 kcal/mol

   Atom    1 Element Cl Has Mass   34.96885
   Atom    2 Element N  Has Mass   14.00307
   Atom    3 Element O  Has Mass   15.99491
   Molecular Mass:    64.966830 amu
   Principal axes and moments of inertia in atomic units:
                             1           2           3
    Eigenvalues --       20.31777   291.06738   311.38514
          X               0.29920     0.95419     0.00000
          Y               0.00000     0.00000     1.00000
          Z               0.95419    -0.29920     0.00000
   Rotational Symmetry Number is   1
   The Molecule is an Asymmetric Top
   Translational Enthalpy:        0.889 kcal/mol
   Rotational Enthalpy:           0.889 kcal/mol
   Vibrational Enthalpy:          4.537 kcal/mol
   gas constant (RT):             0.593 kcal/mol
   Translational Entropy:        38.433  cal/mol.K
   Rotational Entropy:           22.137  cal/mol.K
   Vibrational Entropy:           1.435  cal/mol.K

   Total Enthalpy:                6.907 kcal/mol
   Total Entropy:                62.005  cal/mol.K
 Total job time:  1864.44s(wall), 1854.67s(cpu) 
 Wed Jul  3 20:56:14 2013

        *************************************************************
        *                                                           *
        *  Thank you very much for using Q-Chem.  Have a nice day.  *
        *                                                           *
        *************************************************************


0 sent ACK to 0 
now end server 0 ... 
