Process 0 of 1 is on cl206.stfx.acenet.ca - thread support 1
initial socket setup ...start
initial socket setup ...done 
now start server 0 ... 

cmd = /usr/bin/ssh clhead /usr/local/qchem/bin/get_hostid 785503782 > /scratch/tmp/5998435.1.medium.q/qchem10005/lic.dat
                  Welcome to Q-Chem
     A Quantum Leap Into The Future Of Chemistry

 Y. Shao, L. Fusti-Molnar, Y. Jung, J. Kussmann, C. Ochsenfeld,
 S. T. Brown, A. T. B. Gilbert, L. V. Slipchenko,S. V. Levchenko,
 D. P. O'Neill, R. A. DiStasio Jr., R. C. Lochan, T. Wang,
 G. J. O. Beran, N. A. Besley, J. M. Herbert, C. Y. Lin,
 T. Van Voorhis, S. H. Chien, A. Sodt, R. P. Steele, 
 V. A. Rassolov, P. E. Maslen, P. P. Korambath, R. D. Adamson,
 B. Austin, J. Baker, E. F. C. Byrd, H. Dachsel, R. J. Doerksen,
 A. Dreuw, B. D. Dunietz, A. D. Dutoi, T. R. Furlani,
 S. R. Gwaltney, A. Heyden, S. Hirata, C.-P. Hsu, G. Kedziora,
 R. Z. Khaliullin, P. Klunzinger, A. M. Lee, M. S. Lee, W. Liang,
 I. Lotan, N. Nair, B. Peters, E. I. Proynov, P. A. Pieniazek, 
 Y. M. Rhee, J. Ritchie, E. Rosta, C. D. Sherrill, 
 A. C. Simmonett, J. E. Subotnik, H. L. Woodcock III,
 W. Zhang, A. T. Bell, A. K. Chakraborty, D. M. Chipman,
 F. J. Keil, A. Warshel, W. J. Hehre, H. F. Schaefer III,
 J. Kong, A. I. Krylov, P. M. W. Gill, M. Head-Gordon,
 Q-Chem, Version 3.1, Q-Chem, Inc., Pittsburgh, PA (2007).

 Additional authors for Version 3.1: 
 Z. Gan, Y. Zhao, N. E. Schultz, D. Truhlar, E. Epifanovsky and M. Oana.

 Additional authors for Version 3.2: 
 R. Baer, B. R. Brooks, D. Casanova, J.-D. Chai, C.-L. Cheng, 
 C. Cramer, D. Crittenden, A. Ghysels, G. Hawkins, E. G. Hohenstein, 
 C. Kelley, W. Kurlancheek, D. Liotard, E. Livshits, P. Manohar, 
 A. Marenich, D. Neuhauser, R. Olson, M. A. Rohrdanz, K. S. Thanthiriwatte, 
 A. J. W. Thom, V. Vanovschi, C. F. Williams, Q. Wu and Z.-Q. You. 


 Intel X86 Linux Version

 Q-chem begins on Wed May 22 11:33:52 2013  

 Parallel job on  1  processors
Processing $rem in /usr/local/qchem/config/preferences.

theFileMan(): MAXOPENFILES=974 MAX_SUB_FILE_NUM=16
Maximum size of a physical file is 2.0 GB, maximum size of a tmp-file is 32.0 GB


--------------------------------------------------------------
User input:
--------------------------------------------------------------

$molecule
-1,2
C          0.07036       -1.44581        0.82535
C          0.06888        0.07267        0.82564
S         -0.07700        0.66260       -0.87828
H         -0.04712        1.97314       -0.61059
H         -0.76989        0.45245        1.41169
H          0.99426        0.45402        1.26102
H          0.15897       -1.82570        1.84570
H         -0.85370       -1.83993        0.39540
H          0.90789       -1.83776        0.24308
$end

$comment
negative
$end

$xc_functional
C PBE   1.00
X wPBE  1.00
$end

$rem
SYMMETRY_DECOMPOSITION	0
exchange 		general
LRC_DFT                 true
BASIS                   g3large
omega			500
mem_static              760
max_scf_cycles          200
scf_final_print         1
sym_ignore              true
$end

--------------------------------------------------------------
 Writing REM_CC_EA            9
 ----------------------------------------------------
       Standard Nuclear Orientation (Angstroms)
    I     Atom         X            Y            Z
 ----------------------------------------------------
    1      C       0.070360    -1.445810     0.825350
    2      C       0.068880     0.072670     0.825640
    3      S      -0.077000     0.662600    -0.878280
    4      H      -0.047120     1.973140    -0.610590
    5      H      -0.769890     0.452450     1.411690
    6      H       0.994260     0.454020     1.261020
    7      H       0.158970    -1.825700     1.845700
    8      H      -0.853700    -1.839930     0.395400
    9      H       0.907890    -1.837760     0.243080
 ----------------------------------------------------
 Nuclear Repulsion Energy =   108.0630136950 hartrees
 There are       18 alpha and       17 beta electrons
 Requested basis set is G3large
 There are 75 shells and 210 basis functions

Total QAlloc Memory Limit   2000 MB
Mega-Array Size       743 MB
MEM_STATIC part       760 MB

                       Distance Matrix (Angstroms)
             C (  1)   C (  2)   S (  3)   H (  4)   H (  5)   H (  6)
   C (  2)  1.518481
   S (  3)  2.714675  1.809044
   H (  4)  3.710114  2.384953  1.337933
   H (  5)  2.157129  1.091431  2.401712  2.631447
   H (  6)  2.157024  1.091472  2.401605  2.625856  1.770573
   H (  7)  1.092375  2.156953  3.696943  4.528468  2.498222  2.497335
   H (  8)  1.092737  2.166633  2.913448  4.025182  2.508959  3.070254
   H (  9)  1.092758  2.166346  2.911916  4.020417  3.070123  2.509167
             H (  7)   H (  8)
   H (  8)  1.768919
   H (  9)  1.769016  1.768164
 
 A cutoff of  1.0D-08 yielded   2657 shell pairs
 There are  20913 function pairs ( 26256 Cartesian)
Evaluating contribution to one-electron hamiltonian from nuclear
 Smallest overlap matrix eigenvalue = 6.91E-05

 Q-Chem warning in module mkSTV.C, line 194:

 Overlap eigenvalue is smaller than square root of threshold

 Multipole matrices computed through 2nd order

  Scale SEOQF with 1.000000e-01/1.000000e-01/1.000000e-01

 Standard Electronic Orientation quadrupole field applied
 Nucleus-field energy     =    -0.0000000005 hartrees
 Guess from superposition of atomic densities
 Warning:  Energy on first SCF cycle will be non-variational
 Long-range K will be added via erf
 Coulomb attenuation parameter = 0.5 bohr**(-1)
 An unrestricted Kohn-Sham SCF calculation will be
 performed using Pulay DIIS extrapolation
 Exchange:  wPBE + LR-HF      Correlation:  PBE
 Using SG-1 standard quadrature grid
 SCF converges when DIIS error is below 1.0E-05
 Requested basis set is G3large
 There are 75 shells and 210 basis functions
 A cutoff of  1.0D-08 yielded   2657 shell pairs
 There are  20913 function pairs ( 26256 Cartesian)
 Warning!  Inaccurate integrated density:
   Number of electrons =    35
   Numerical integral  =    33.999794976761
   Relative error      =    -2.8577286378 %
 ---------------------------------------
  Cycle       Energy         DIIS Error
 ---------------------------------------
    1    -478.5493726287      2.78E-02
    2    -477.7513223268      2.80E-03
    3    -477.8167594536      2.15E-03
    4    -477.8445746209      4.19E-04
    5    -477.8527631411      2.57E-04
    6    -477.8572351716      1.35E-04
    7    -477.8592212190      6.15E-05
    8    -477.8598975688      2.11E-05
    9    -477.8599969541      1.09E-05
   10    -477.8600242808      5.41E-06 Convergence criterion met
 ---------------------------------------
 One-Electron    Energy =  -875.3545332713
 Total Coulomb   Energy =   328.1505729184
 Alpha Exchange  Energy =    -4.1654176103
 Beta  Exchange  Energy =    -4.0952301779
 DFT   Exchange  Energy =   -29.2599062446
 DFT Correlation Energy =    -1.1985235897
 Nuclear Repu.   Energy =   108.0630136945
 Nuclear Attr.   Energy = -1352.2461341996
 Kinetic         Energy =   476.8916009283
 <S^2> = 0.7502
 SCF time:  CPU 187.32 s  wall 188.21 s
 Final Alpha MO Eigenvalues
            1           2           3           4           5           6
    1 -88.1764999 -10.0501060 -10.0228079  -7.8155331  -5.8271063  -5.8228412
            7           8           9          10          11          12
    1  -5.8164679  -0.8643384  -0.7547766  -0.6351967  -0.4794548  -0.4767556
           13          14          15          16          17          18
    1  -0.4001593  -0.3677035  -0.3649921  -0.3237960  -0.2354808   0.0270543
           19          20          21          22          23
    1   0.1330643   0.1462271   0.1468936   0.1715891   0.1845913
 Final Beta MO Eigenvalues
            1           2           3           4           5           6
    1 -88.1764156 -10.0496949 -10.0225491  -7.8154407  -5.8268835  -5.8227739
            7           8           9          10          11          12
    1  -5.8164235  -0.8634560  -0.7537479  -0.6333647  -0.4789989  -0.4749503
           13          14          15          16          17          18
    1  -0.3991525  -0.3674746  -0.3641730  -0.3229208  -0.2352530   0.1376073
           19          20          21          22
    1   0.1499890   0.1617872   0.1620723   0.1779771
 Analysis of SCF Wavefunction
 
 --------------------------------------------------------------
                    Orbital Energies (a.u.)
 --------------------------------------------------------------
 
 Alpha MOs
 -- Occupied --
-88.176 -10.050 -10.023  -7.816  -5.827  -5.823  -5.816  -0.864
 -0.755  -0.635  -0.479  -0.477  -0.400  -0.368  -0.365  -0.324
 -0.235   0.027
 -- Virtual --
  0.133   0.146   0.147   0.172   0.185   0.199   0.226   0.229
  0.242   0.271   0.277   0.283   0.288   0.292   0.307   0.314
  0.317   0.335   0.365   0.387   0.393   0.410   0.445   0.469
  0.470   0.515   0.528   0.549   0.561   0.595   0.612   0.637
  0.662   0.663   0.687   0.738   0.757   0.781   0.791   0.794
  0.807   0.817   0.867   0.891   0.907   0.929   0.956   0.975
  1.001   1.043   1.087   1.095   1.122   1.130   1.155   1.159
  1.197   1.248   1.269   1.285   1.298   1.346   1.349   1.366
  1.401   1.406   1.454   1.460   1.470   1.505   1.510   1.546
  1.575   1.575   1.602   1.638   1.657   1.660   1.704   1.726
  1.731   1.752   1.789   1.806   1.849   1.856   1.876   2.000
  2.157   2.361   2.399   2.692   2.770   2.872   2.895   2.911
  3.042   3.088   3.099   3.188   3.200   3.258   3.290   3.299
  3.376   3.406   3.414   3.442   3.480   3.572   3.598   3.632
  3.664   3.670   3.701   3.777   3.797   3.828   3.872   3.887
  3.899   3.909   3.933   3.942   4.029   4.093   4.174   4.194
  4.236   4.274   4.284   4.326   4.335   4.342   4.414   4.507
  4.508   4.545   4.569   4.632   4.681   4.744   4.809   4.826
  4.831   4.850   4.908   4.950   5.099   5.103   5.358   5.516
  5.722   5.817   5.908   5.954   5.990   8.656  17.333  17.512
 17.626  23.742  23.758  23.805  23.827  24.001  24.285  24.471
 27.850  28.108  28.266  28.330  28.368  28.564  31.106  31.109
 31.113  31.117  31.119  31.132  31.142  41.115  41.142  41.169
 41.256  41.366  41.381  41.382  41.426  41.443  41.464 189.200
 
 Beta MOs
 -- Occupied --
-88.176 -10.050 -10.023  -7.815  -5.827  -5.823  -5.816  -0.863
 -0.754  -0.633  -0.479  -0.475  -0.399  -0.367  -0.364  -0.323
 -0.235
 -- Virtual --
  0.138   0.150   0.162   0.162   0.178   0.190   0.201   0.227
  0.230   0.243   0.270   0.279   0.280   0.288   0.292   0.308
  0.314   0.316   0.334   0.365   0.387   0.394   0.410   0.446
  0.468   0.470   0.512   0.526   0.548   0.560   0.595   0.611
  0.636   0.661   0.662   0.686   0.738   0.757   0.780   0.789
  0.792   0.806   0.816   0.865   0.890   0.907   0.929   0.955
  0.975   1.002   1.043   1.088   1.095   1.122   1.130   1.156
  1.159   1.198   1.248   1.270   1.285   1.298   1.346   1.349
  1.367   1.401   1.407   1.455   1.460   1.470   1.506   1.511
  1.546   1.575   1.575   1.603   1.638   1.657   1.661   1.704
  1.726   1.731   1.752   1.790   1.806   1.849   1.856   1.876
  2.001   2.157   2.361   2.400   2.692   2.770   2.872   2.895
  2.911   3.042   3.088   3.099   3.189   3.200   3.258   3.290
  3.300   3.376   3.407   3.414   3.442   3.481   3.572   3.598
  3.633   3.664   3.671   3.701   3.777   3.797   3.828   3.872
  3.888   3.899   3.910   3.934   3.943   4.029   4.093   4.174
  4.195   4.236   4.275   4.284   4.326   4.335   4.342   4.415
  4.507   4.508   4.545   4.569   4.633   4.682   4.744   4.810
  4.827   4.831   4.850   4.908   4.950   5.099   5.103   5.358
  5.517   5.723   5.818   5.908   5.954   5.990   8.656  17.333
 17.512  17.626  23.742  23.758  23.805  23.827  24.001  24.285
 24.471  27.850  28.108  28.266  28.330  28.369  28.564  31.107
 31.109  31.113  31.117  31.119  31.132  31.142  41.115  41.143
 41.169  41.256  41.366  41.381  41.382  41.426  41.443  41.464
189.200
 --------------------------------------------------------------
 
          Ground-State Mulliken Net Atomic Charges

     Atom                 Charge (a.u.)    Spin (a.u.)
  --------------------------------------------------------
      1 C                     1.642969      -2.001796
      2 C                     0.366474      -0.127158
      3 S                     0.450746      -0.868952
      4 H                    -0.466948       0.585572
      5 H                    -0.924250       1.001657
      6 H                    -0.932278       1.009680
      7 H                    -0.972511       1.069066
      8 H                    -0.080206       0.163912
      9 H                    -0.083995       0.168018
  --------------------------------------------------------
  Sum of atomic charges =    -1.000000
  Sum of spin   charges =     1.000000

 -----------------------------------------------------------------
                    Cartesian Multipole Moments
 -----------------------------------------------------------------
    Charge (ESU x 10^10)
                -4.8032
    Dipole Moment (Debye)
         X      -0.6614      Y      -1.3499      Z      -7.2134
       Tot       7.3683
    Quadrupole Moments (Debye-Ang)
        XX     -53.7660     XY       0.2139     YY     -53.8754
        XZ      -1.1934     YZ       2.8414     ZZ     -66.7359
    Octapole Moments (Debye-Ang^2)
       XXX     -10.7324    XXY      -6.6160    XYY      -4.0812
       YYY      -9.7550    XXZ     -40.4147    XYZ       1.3713
       YYZ     -45.0039    XZZ      -4.7658    YZZ       9.7440
       ZZZ    -133.8601
    Hexadecapole Moments (Debye-Ang^3)
      XXXX    -341.7244   XXXY       5.7552   XXYY    -150.6243
      XYYY       8.6830   YYYY    -611.7452   XXXZ     -20.9627
      XXYZ      23.7765   XYYZ      -8.4434   YYYZ     105.7133
      XXZZ    -192.5017   XYZZ       6.0091   YYZZ    -245.3714
      XZZZ     -20.0087   YZZZ     118.0710   ZZZZ    -801.2903
 -----------------------------------------------------------------
 Total job time:  188.49s(wall), 187.58s(cpu) 
 Wed May 22 11:37:01 2013

        *************************************************************
        *                                                           *
        *  Thank you very much for using Q-Chem.  Have a nice day.  *
        *                                                           *
        *************************************************************


0 sent ACK to 0 
now end server 0 ... 
 
**********************************************************************
Job 2 of 3 
**********************************************************************
 
Process 0 of 1 is on cl206.stfx.acenet.ca - thread support 1
initial socket setup ...start
initial socket setup ...done 
now start server 0 ... 

cmd = /usr/bin/ssh clhead /usr/local/qchem/bin/get_hostid 1450195356 > /scratch/tmp/5998435.1.medium.q/qchem10005/lic.dat
                  Welcome to Q-Chem
     A Quantum Leap Into The Future Of Chemistry

 Y. Shao, L. Fusti-Molnar, Y. Jung, J. Kussmann, C. Ochsenfeld,
 S. T. Brown, A. T. B. Gilbert, L. V. Slipchenko,S. V. Levchenko,
 D. P. O'Neill, R. A. DiStasio Jr., R. C. Lochan, T. Wang,
 G. J. O. Beran, N. A. Besley, J. M. Herbert, C. Y. Lin,
 T. Van Voorhis, S. H. Chien, A. Sodt, R. P. Steele, 
 V. A. Rassolov, P. E. Maslen, P. P. Korambath, R. D. Adamson,
 B. Austin, J. Baker, E. F. C. Byrd, H. Dachsel, R. J. Doerksen,
 A. Dreuw, B. D. Dunietz, A. D. Dutoi, T. R. Furlani,
 S. R. Gwaltney, A. Heyden, S. Hirata, C.-P. Hsu, G. Kedziora,
 R. Z. Khaliullin, P. Klunzinger, A. M. Lee, M. S. Lee, W. Liang,
 I. Lotan, N. Nair, B. Peters, E. I. Proynov, P. A. Pieniazek, 
 Y. M. Rhee, J. Ritchie, E. Rosta, C. D. Sherrill, 
 A. C. Simmonett, J. E. Subotnik, H. L. Woodcock III,
 W. Zhang, A. T. Bell, A. K. Chakraborty, D. M. Chipman,
 F. J. Keil, A. Warshel, W. J. Hehre, H. F. Schaefer III,
 J. Kong, A. I. Krylov, P. M. W. Gill, M. Head-Gordon,
 Q-Chem, Version 3.1, Q-Chem, Inc., Pittsburgh, PA (2007).

 Additional authors for Version 3.1: 
 Z. Gan, Y. Zhao, N. E. Schultz, D. Truhlar, E. Epifanovsky and M. Oana.

 Additional authors for Version 3.2: 
 R. Baer, B. R. Brooks, D. Casanova, J.-D. Chai, C.-L. Cheng, 
 C. Cramer, D. Crittenden, A. Ghysels, G. Hawkins, E. G. Hohenstein, 
 C. Kelley, W. Kurlancheek, D. Liotard, E. Livshits, P. Manohar, 
 A. Marenich, D. Neuhauser, R. Olson, M. A. Rohrdanz, K. S. Thanthiriwatte, 
 A. J. W. Thom, V. Vanovschi, C. F. Williams, Q. Wu and Z.-Q. You. 


 Intel X86 Linux Version

 Q-chem begins on Wed May 22 11:37:04 2013  

 Parallel job on  1  processors
Processing $rem in /usr/local/qchem/config/preferences.

theFileMan(): MAXOPENFILES=974 MAX_SUB_FILE_NUM=16
Maximum size of a physical file is 2.0 GB, maximum size of a tmp-file is 32.0 GB


--------------------------------------------------------------
User input:
--------------------------------------------------------------

$molecule
0,1
C          0.07036       -1.44581        0.82535
C          0.06888        0.07267        0.82564
S         -0.07700        0.66260       -0.87828
H         -0.04712        1.97314       -0.61059
H         -0.76989        0.45245        1.41169
H          0.99426        0.45402        1.26102
H          0.15897       -1.82570        1.84570
H         -0.85370       -1.83993        0.39540
H          0.90789       -1.83776        0.24308
$end

$comment
neutral
$end

$xc_functional
C PBE   1.00
X wPBE  1.00
$end


$rem
SYMMETRY_DECOMPOSITION	0
LRC_DFT                 true
exchange 		general
BASIS                   g3large
omega			500
mem_static              760
max_scf_cycles          200
scf_final_print         1
sym_ignore              true
$end

--------------------------------------------------------------
 Writing REM_CC_EA            9
 ----------------------------------------------------
       Standard Nuclear Orientation (Angstroms)
    I     Atom         X            Y            Z
 ----------------------------------------------------
    1      C       0.070360    -1.445810     0.825350
    2      C       0.068880     0.072670     0.825640
    3      S      -0.077000     0.662600    -0.878280
    4      H      -0.047120     1.973140    -0.610590
    5      H      -0.769890     0.452450     1.411690
    6      H       0.994260     0.454020     1.261020
    7      H       0.158970    -1.825700     1.845700
    8      H      -0.853700    -1.839930     0.395400
    9      H       0.907890    -1.837760     0.243080
 ----------------------------------------------------
 Nuclear Repulsion Energy =   108.0630136950 hartrees
 There are       17 alpha and       17 beta electrons
 Requested basis set is G3large
 There are 75 shells and 210 basis functions

Total QAlloc Memory Limit   2000 MB
Mega-Array Size       743 MB
MEM_STATIC part       760 MB

                       Distance Matrix (Angstroms)
             C (  1)   C (  2)   S (  3)   H (  4)   H (  5)   H (  6)
   C (  2)  1.518481
   S (  3)  2.714675  1.809044
   H (  4)  3.710114  2.384953  1.337933
   H (  5)  2.157129  1.091431  2.401712  2.631447
   H (  6)  2.157024  1.091472  2.401605  2.625856  1.770573
   H (  7)  1.092375  2.156953  3.696943  4.528468  2.498222  2.497335
   H (  8)  1.092737  2.166633  2.913448  4.025182  2.508959  3.070254
   H (  9)  1.092758  2.166346  2.911916  4.020417  3.070123  2.509167
             H (  7)   H (  8)
   H (  8)  1.768919
   H (  9)  1.769016  1.768164
 
 A cutoff of  1.0D-08 yielded   2657 shell pairs
 There are  20913 function pairs ( 26256 Cartesian)
Evaluating contribution to one-electron hamiltonian from nuclear
 Smallest overlap matrix eigenvalue = 6.91E-05

 Q-Chem warning in module mkSTV.C, line 194:

 Overlap eigenvalue is smaller than square root of threshold

 Multipole matrices computed through 2nd order

  Scale SEOQF with 1.000000e-01/1.000000e-01/1.000000e-01

 Standard Electronic Orientation quadrupole field applied
 Nucleus-field energy     =    -0.0000000005 hartrees
 Guess from superposition of atomic densities
 Warning:  Energy on first SCF cycle will be non-variational
 Long-range K will be added via erf
 Coulomb attenuation parameter = 0.5 bohr**(-1)
 A restricted Kohn-Sham SCF calculation will be
 performed using Pulay DIIS extrapolation
 Exchange:  wPBE + LR-HF      Correlation:  PBE
 Using SG-1 standard quadrature grid
 SCF converges when DIIS error is below 1.0E-05
 Requested basis set is G3large
 There are 75 shells and 210 basis functions
 A cutoff of  1.0D-08 yielded   2657 shell pairs
 There are  20913 function pairs ( 26256 Cartesian)
 ---------------------------------------
  Cycle       Energy         DIIS Error
 ---------------------------------------
    1    -478.5493726287      2.78E-02
    2    -477.8508863432      2.25E-03
    3    -477.8856600092      1.00E-03
    4    -477.8907512875      2.83E-04
    5    -477.8914913262      6.93E-05
    6    -477.8915697983      2.68E-05
    7    -477.8915841122      1.11E-05
    8    -477.8915867559      4.09E-06 Convergence criterion met
 ---------------------------------------
 One-Electron    Energy =  -870.8749310395
 Total Coulomb   Energy =   323.5625391948
 Alpha Exchange  Energy =    -4.0977743614
 Beta  Exchange  Energy =    -4.0977743614
 DFT   Exchange  Energy =   -29.2560018302
 DFT Correlation Energy =    -1.1906580527
 Nuclear Repu.   Energy =   108.0630136945
 Nuclear Attr.   Energy = -1347.7057070584
 Kinetic         Energy =   476.8307760188
 SCF time:  CPU 112.99 s  wall 113.79 s
 Final Alpha MO Eigenvalues
            1           2           3           4           5           6
    1 -88.3061070 -10.1904381 -10.1564127  -7.9449612  -5.9568110  -5.9523040
            7           8           9          10          11          12
    1  -5.9455810  -0.9987011  -0.8860165  -0.7705127  -0.6164829  -0.6098154
           13          14          15          16          17          18
    1  -0.5335181  -0.5026334  -0.4977980  -0.4544363  -0.3646141   0.0377641
           19          20          21          22
    1   0.0539726   0.0624434   0.0627727   0.0801169
 Analysis of SCF Wavefunction
 
 --------------------------------------------------------------
                    Orbital Energies (a.u.)
 --------------------------------------------------------------
 
 Alpha MOs
 -- Occupied --
-88.306 -10.190 -10.156  -7.945  -5.957  -5.952  -5.946  -0.999
 -0.886  -0.771  -0.616  -0.610  -0.534  -0.503  -0.498  -0.454
 -0.365
 -- Virtual --
  0.038   0.054   0.062   0.063   0.080   0.093   0.102   0.122
  0.131   0.137   0.161   0.174   0.175   0.181   0.185   0.194
  0.201   0.207   0.224   0.245   0.258   0.273   0.286   0.318
  0.342   0.352   0.390   0.408   0.424   0.437   0.479   0.486
  0.513   0.537   0.540   0.563   0.607   0.630   0.653   0.660
  0.663   0.679   0.686   0.736   0.761   0.782   0.796   0.825
  0.842   0.868   0.911   0.959   0.965   0.995   0.999   1.025
  1.028   1.068   1.119   1.141   1.158   1.167   1.213   1.214
  1.235   1.267   1.280   1.322   1.325   1.336   1.373   1.382
  1.415   1.445   1.446   1.473   1.503   1.522   1.532   1.571
  1.590   1.597   1.618   1.653   1.674   1.716   1.722   1.747
  1.866   2.030   2.235   2.270   2.558   2.634   2.734   2.757
  2.779   2.908   2.952   2.964   3.055   3.068   3.122   3.153
  3.165   3.242   3.272   3.278   3.307   3.346   3.438   3.461
  3.497   3.532   3.540   3.565   3.646   3.666   3.693   3.740
  3.750   3.768   3.776   3.798   3.807   3.893   3.959   4.041
  4.059   4.101   4.144   4.150   4.193   4.198   4.209   4.278
  4.371   4.373   4.411   4.430   4.499   4.547   4.610   4.674
  4.691   4.696   4.716   4.777   4.812   4.968   4.972   5.229
  5.380   5.585   5.686   5.772   5.820   5.852   8.527  17.204
 17.382  17.496  23.613  23.628  23.675  23.697  23.871  24.146
 24.336  27.713  27.968  28.129  28.197  28.231  28.427  30.977
 30.979  30.984  30.988  30.990  31.002  31.012  40.976  41.004
 41.035  41.120  41.226  41.241  41.248  41.292  41.303  41.330
189.070
 --------------------------------------------------------------
 
          Ground-State Mulliken Net Atomic Charges

     Atom                 Charge (a.u.)
  ----------------------------------------
      1 C                    -0.347602
      2 C                     0.200312
      3 S                    -0.375699
      4 H                     0.111750
      5 H                     0.067041
      6 H                     0.066795
      7 H                     0.081103
      8 H                     0.098052
      9 H                     0.098248
  ----------------------------------------
  Sum of atomic charges =     0.000000

 -----------------------------------------------------------------
                    Cartesian Multipole Moments
 -----------------------------------------------------------------
    Charge (ESU x 10^10)
                 0.0000
    Dipole Moment (Debye)
         X       0.1495      Y       0.1179      Z       1.6927
       Tot       1.7034
    Quadrupole Moments (Debye-Ang)
        XX     -28.6912     XY       0.0138     YY     -24.6194
        XZ       0.0590     YZ      -0.0794     ZZ     -27.9698
    Octapole Moments (Debye-Ang^2)
       XXX       0.7200    XXY      -1.1146    XYY      -0.0817
       YYY       7.3144    XXZ       2.3779    XYZ       0.1183
       YYZ      -1.7178    XZZ      -0.2202    YZZ       0.4543
       ZZZ       1.8154
    Hexadecapole Moments (Debye-Ang^3)
      XXXX     -50.5260   XXXY       5.1319   XXYY     -40.7072
      XYYY       4.0648   YYYY    -183.3974   XXXZ      -5.5838
      XXYZ      19.7699   XYYZ      -1.4656   YYYZ      46.3230
      XXZZ     -38.2282   XYZZ       0.6203   YYZZ     -57.3927
      XZZZ      -4.4344   YZZZ      46.7131   ZZZZ    -166.1982
 -----------------------------------------------------------------
 Total job time:  114.05s(wall), 113.24s(cpu) 
 Wed May 22 11:38:58 2013

        *************************************************************
        *                                                           *
        *  Thank you very much for using Q-Chem.  Have a nice day.  *
        *                                                           *
        *************************************************************


0 sent ACK to 0 
now end server 0 ... 
 
**********************************************************************
Job 3 of 3 
**********************************************************************
 
Process 0 of 1 is on cl206.stfx.acenet.ca - thread support 1
initial socket setup ...start
initial socket setup ...done 
now start server 0 ... 

cmd = /usr/bin/ssh clhead /usr/local/qchem/bin/get_hostid 1299702465 > /scratch/tmp/5998435.1.medium.q/qchem10005/lic.dat
                  Welcome to Q-Chem
     A Quantum Leap Into The Future Of Chemistry

 Y. Shao, L. Fusti-Molnar, Y. Jung, J. Kussmann, C. Ochsenfeld,
 S. T. Brown, A. T. B. Gilbert, L. V. Slipchenko,S. V. Levchenko,
 D. P. O'Neill, R. A. DiStasio Jr., R. C. Lochan, T. Wang,
 G. J. O. Beran, N. A. Besley, J. M. Herbert, C. Y. Lin,
 T. Van Voorhis, S. H. Chien, A. Sodt, R. P. Steele, 
 V. A. Rassolov, P. E. Maslen, P. P. Korambath, R. D. Adamson,
 B. Austin, J. Baker, E. F. C. Byrd, H. Dachsel, R. J. Doerksen,
 A. Dreuw, B. D. Dunietz, A. D. Dutoi, T. R. Furlani,
 S. R. Gwaltney, A. Heyden, S. Hirata, C.-P. Hsu, G. Kedziora,
 R. Z. Khaliullin, P. Klunzinger, A. M. Lee, M. S. Lee, W. Liang,
 I. Lotan, N. Nair, B. Peters, E. I. Proynov, P. A. Pieniazek, 
 Y. M. Rhee, J. Ritchie, E. Rosta, C. D. Sherrill, 
 A. C. Simmonett, J. E. Subotnik, H. L. Woodcock III,
 W. Zhang, A. T. Bell, A. K. Chakraborty, D. M. Chipman,
 F. J. Keil, A. Warshel, W. J. Hehre, H. F. Schaefer III,
 J. Kong, A. I. Krylov, P. M. W. Gill, M. Head-Gordon,
 Q-Chem, Version 3.1, Q-Chem, Inc., Pittsburgh, PA (2007).

 Additional authors for Version 3.1: 
 Z. Gan, Y. Zhao, N. E. Schultz, D. Truhlar, E. Epifanovsky and M. Oana.

 Additional authors for Version 3.2: 
 R. Baer, B. R. Brooks, D. Casanova, J.-D. Chai, C.-L. Cheng, 
 C. Cramer, D. Crittenden, A. Ghysels, G. Hawkins, E. G. Hohenstein, 
 C. Kelley, W. Kurlancheek, D. Liotard, E. Livshits, P. Manohar, 
 A. Marenich, D. Neuhauser, R. Olson, M. A. Rohrdanz, K. S. Thanthiriwatte, 
 A. J. W. Thom, V. Vanovschi, C. F. Williams, Q. Wu and Z.-Q. You. 


 Intel X86 Linux Version

 Q-chem begins on Wed May 22 11:39:01 2013  

 Parallel job on  1  processors
Processing $rem in /usr/local/qchem/config/preferences.

theFileMan(): MAXOPENFILES=974 MAX_SUB_FILE_NUM=16
Maximum size of a physical file is 2.0 GB, maximum size of a tmp-file is 32.0 GB


--------------------------------------------------------------
User input:
--------------------------------------------------------------

$molecule
1,2
C          0.07036       -1.44581        0.82535
C          0.06888        0.07267        0.82564
S         -0.07700        0.66260       -0.87828
H         -0.04712        1.97314       -0.61059
H         -0.76989        0.45245        1.41169
H          0.99426        0.45402        1.26102
H          0.15897       -1.82570        1.84570
H         -0.85370       -1.83993        0.39540
H          0.90789       -1.83776        0.24308
$end

$comment
positive
$end

$xc_functional
C PBE   1.00
X wPBE  1.00
$end

$rem
SYMMETRY_DECOMPOSITION	0
LRC_DFT                 true
exchange 		general
BASIS                   g3large
omega			500
mem_static              760
max_scf_cycles          200
scf_final_print         1
sym_ignore              true
$end

--------------------------------------------------------------
 Writing REM_CC_EA            9
 ----------------------------------------------------
       Standard Nuclear Orientation (Angstroms)
    I     Atom         X            Y            Z
 ----------------------------------------------------
    1      C       0.070360    -1.445810     0.825350
    2      C       0.068880     0.072670     0.825640
    3      S      -0.077000     0.662600    -0.878280
    4      H      -0.047120     1.973140    -0.610590
    5      H      -0.769890     0.452450     1.411690
    6      H       0.994260     0.454020     1.261020
    7      H       0.158970    -1.825700     1.845700
    8      H      -0.853700    -1.839930     0.395400
    9      H       0.907890    -1.837760     0.243080
 ----------------------------------------------------
 Nuclear Repulsion Energy =   108.0630136950 hartrees
 There are       17 alpha and       16 beta electrons
 Requested basis set is G3large
 There are 75 shells and 210 basis functions

Total QAlloc Memory Limit   2000 MB
Mega-Array Size       743 MB
MEM_STATIC part       760 MB

                       Distance Matrix (Angstroms)
             C (  1)   C (  2)   S (  3)   H (  4)   H (  5)   H (  6)
   C (  2)  1.518481
   S (  3)  2.714675  1.809044
   H (  4)  3.710114  2.384953  1.337933
   H (  5)  2.157129  1.091431  2.401712  2.631447
   H (  6)  2.157024  1.091472  2.401605  2.625856  1.770573
   H (  7)  1.092375  2.156953  3.696943  4.528468  2.498222  2.497335
   H (  8)  1.092737  2.166633  2.913448  4.025182  2.508959  3.070254
   H (  9)  1.092758  2.166346  2.911916  4.020417  3.070123  2.509167
             H (  7)   H (  8)
   H (  8)  1.768919
   H (  9)  1.769016  1.768164
 
 A cutoff of  1.0D-08 yielded   2657 shell pairs
 There are  20913 function pairs ( 26256 Cartesian)
Evaluating contribution to one-electron hamiltonian from nuclear
 Smallest overlap matrix eigenvalue = 6.91E-05

 Q-Chem warning in module mkSTV.C, line 194:

 Overlap eigenvalue is smaller than square root of threshold

 Multipole matrices computed through 2nd order

  Scale SEOQF with 1.000000e-01/1.000000e-01/1.000000e-01

 Standard Electronic Orientation quadrupole field applied
 Nucleus-field energy     =    -0.0000000005 hartrees
 Guess from superposition of atomic densities
 Warning:  Energy on first SCF cycle will be non-variational
 Long-range K will be added via erf
 Coulomb attenuation parameter = 0.5 bohr**(-1)
 An unrestricted Kohn-Sham SCF calculation will be
 performed using Pulay DIIS extrapolation
 Exchange:  wPBE + LR-HF      Correlation:  PBE
 Using SG-1 standard quadrature grid
 SCF converges when DIIS error is below 1.0E-05
 Requested basis set is G3large
 There are 75 shells and 210 basis functions
 A cutoff of  1.0D-08 yielded   2657 shell pairs
 There are  20913 function pairs ( 26256 Cartesian)
 Warning!  Inaccurate integrated density:
   Number of electrons =    33
   Numerical integral  =    33.999794976761
   Relative error      =     3.0296817478 %
 ---------------------------------------
  Cycle       Energy         DIIS Error
 ---------------------------------------
    1    -478.5493726287      2.78E-02
    2    -477.4631142782      2.90E-03
    3    -477.5336550738      1.35E-03
    4    -477.5450832291      3.58E-04
    5    -477.5478820952      1.35E-04
    6    -477.5488148071      7.49E-05
    7    -477.5493010076      4.34E-05
    8    -477.5495156414      2.17E-05
    9    -477.5495780577      1.22E-05
   10    -477.5495981447      6.63E-06 Convergence criterion met
 ---------------------------------------
 One-Electron    Energy =  -861.6643779007
 Total Coulomb   Energy =   314.3920689650
 Alpha Exchange  Energy =    -4.1208127675
 Beta  Exchange  Energy =    -3.8928988743
 DFT   Exchange  Energy =   -29.1744686278
 DFT Correlation Energy =    -1.1521226339
 Nuclear Repu.   Energy =   108.0630136945
 Nuclear Attr.   Energy = -1338.1926645446
 Kinetic         Energy =   476.5282866439
 <S^2> = 0.7582
 SCF time:  CPU 179.94 s  wall 181.45 s
 Final Alpha MO Eigenvalues
            1           2           3           4           5           6
    1 -88.6650055 -10.4273474 -10.3424059  -8.2987071  -6.3140734  -6.3056472
            7           8           9          10          11          12
    1  -6.3007941  -1.2802095  -1.1379260  -0.9971989  -0.8688658  -0.8514817
           13          14          15          16          17          18
    1  -0.7729530  -0.7289641  -0.7278277  -0.7006545  -0.6855219  -0.1389832
           19          20          21          22
    1  -0.1106650  -0.0861637  -0.0729235  -0.0669695
 Final Beta MO Eigenvalues
            1           2           3           4           5           6
    1 -88.6598020 -10.4274471 -10.3424419  -8.2936499  -6.3026412  -6.2989846
            7           8           9          10          11          12
    1  -6.2980314  -1.2491843  -1.1177283  -0.9899878  -0.8609078  -0.8264802
           13          14          15          16          17          18
    1  -0.7624787  -0.7252764  -0.6974020  -0.6955556  -0.3169652  -0.1345988
           19          20          21
    1  -0.1032945  -0.0789074  -0.0700892
 Analysis of SCF Wavefunction
 
 --------------------------------------------------------------
                    Orbital Energies (a.u.)
 --------------------------------------------------------------
 
 Alpha MOs
 -- Occupied --
-88.665 -10.427 -10.342  -8.299  -6.314  -6.306  -6.301  -1.280
 -1.138  -0.997  -0.869  -0.851  -0.773  -0.729  -0.728  -0.701
 -0.686
 -- Virtual --
 -0.139  -0.111  -0.086  -0.073  -0.067  -0.056  -0.035  -0.033
 -0.021  -0.020  -0.014   0.005   0.025   0.026   0.031   0.041
  0.044   0.053   0.055   0.077   0.081   0.083   0.106   0.115
  0.130   0.175   0.183   0.190   0.233   0.238   0.263   0.282
  0.289   0.340   0.351   0.368   0.421   0.438   0.453   0.462
  0.470   0.499   0.508   0.523   0.560   0.565   0.609   0.616
  0.629   0.635   0.676   0.713   0.724   0.746   0.767   0.780
  0.789   0.807   0.852   0.869   0.910   0.936   0.993   0.996
  1.021   1.029   1.068   1.108   1.119   1.125   1.136   1.156
  1.172   1.201   1.239   1.260   1.294   1.302   1.313   1.372
  1.377   1.398   1.409   1.430   1.446   1.497   1.523   1.555
  1.644   1.705   1.948   1.987   2.358   2.427   2.531   2.540
  2.584   2.679   2.744   2.744   2.812   2.847   2.898   2.923
  2.930   3.036   3.048   3.059   3.061   3.143   3.200   3.201
  3.254   3.259   3.296   3.329   3.339   3.358   3.452   3.453
  3.491   3.518   3.526   3.567   3.575   3.688   3.705   3.807
  3.831   3.840   3.907   3.931   3.947   3.969   3.996   4.052
  4.156   4.181   4.196   4.211   4.235   4.312   4.373   4.428
  4.459   4.487   4.511   4.521   4.602   4.646   4.666   4.889
  5.171   5.353   5.395   5.560   5.636   5.650   8.185  16.836
 17.036  17.151  23.252  23.274  23.317  23.341  23.528  23.915
 24.141  27.498  27.730  27.915  28.011  28.023  28.219  30.618
 30.626  30.628  30.633  30.636  30.656  30.667  40.743  40.778
 40.849  40.919  40.988  41.004  41.054  41.074  41.106  41.144
188.713
 
 Beta MOs
 -- Occupied --
-88.660 -10.427 -10.342  -8.294  -6.303  -6.299  -6.298  -1.249
 -1.118  -0.990  -0.861  -0.826  -0.762  -0.725  -0.697  -0.696
 -- Virtual --
 -0.317  -0.135  -0.103  -0.079  -0.070  -0.066  -0.049  -0.031
 -0.030  -0.017  -0.015  -0.008   0.010   0.028   0.032   0.035
  0.045   0.054   0.055   0.061   0.078   0.084   0.107   0.109
  0.122   0.132   0.177   0.204   0.213   0.236   0.240   0.268
  0.287   0.316   0.343   0.354   0.371   0.424   0.444   0.454
  0.466   0.472   0.499   0.509   0.530   0.567   0.569   0.613
  0.618   0.638   0.645   0.687   0.721   0.735   0.753   0.785
  0.804   0.805   0.818   0.870   0.884   0.916   0.941   1.001
  1.004   1.027   1.039   1.074   1.116   1.121   1.128   1.149
  1.160   1.183   1.213   1.242   1.263   1.298   1.311   1.316
  1.377   1.380   1.400   1.411   1.434   1.450   1.500   1.525
  1.556   1.645   1.749   1.955   1.995   2.361   2.429   2.532
  2.542   2.585   2.679   2.746   2.746   2.816   2.850   2.899
  2.926   2.933   3.039   3.053   3.060   3.065   3.144   3.217
  3.235   3.265   3.267   3.297   3.345   3.369   3.381   3.467
  3.487   3.500   3.518   3.528   3.570   3.579   3.689   3.712
  3.814   3.831   3.847   3.910   3.931   3.948   3.973   3.997
  4.053   4.159   4.183   4.199   4.215   4.239   4.315   4.383
  4.434   4.462   4.487   4.512   4.525   4.604   4.660   4.670
  4.910   5.174   5.357   5.399   5.564   5.636   5.651   8.194
 16.861  17.040  17.155  23.264  23.283  23.327  23.350  23.531
 23.915  24.141  27.498  27.730  27.915  28.011  28.023  28.219
 30.623  30.630  30.632  30.638  30.640  30.657  30.668  40.742
 40.778  40.849  40.919  40.989  41.003  41.054  41.074  41.106
 41.144 188.719
 --------------------------------------------------------------
 
          Ground-State Mulliken Net Atomic Charges

     Atom                 Charge (a.u.)    Spin (a.u.)
  --------------------------------------------------------
      1 C                    -0.329713       0.016315
      2 C                     0.236315      -0.059190
      3 S                     0.284139       0.999322
      4 H                     0.193915      -0.026227
      5 H                     0.126227       0.034918
      6 H                     0.126087       0.035269
      7 H                     0.126214      -0.002474
      8 H                     0.118472       0.001087
      9 H                     0.118344       0.000980
  --------------------------------------------------------
  Sum of atomic charges =     1.000000
  Sum of spin   charges =     1.000000

 -----------------------------------------------------------------
                    Cartesian Multipole Moments
 -----------------------------------------------------------------
    Charge (ESU x 10^10)
                 4.8032
    Dipole Moment (Debye)
         X      -0.0167      Y       2.3235      Z      -0.1502
       Tot       2.3284
    Quadrupole Moments (Debye-Ang)
        XX     -22.6157     XY      -0.2957     YY     -16.3318
        XZ       0.3091     YZ      -3.5544     ZZ     -19.0731
    Octapole Moments (Debye-Ang^2)
       XXX      -0.0451    XXY       1.5950    XYY      -0.1625
       YYY       9.9441    XXZ      -0.4496    XYZ       0.0457
       YYZ      -2.4465    XZZ       0.1128    YZZ       2.1276
       ZZZ       0.1616
    Hexadecapole Moments (Debye-Ang^3)
      XXXX     -35.1417   XXXY       4.2199   XXYY     -32.0831
      XYYY       2.8579   YYYY    -142.0897   XXXZ      -4.1821
      XXYZ      16.3194   XYYZ      -1.0409   YYYZ      32.3693
      XXZZ     -27.8047   XYZZ       0.3685   YYZZ     -44.0820
      XZZZ      -4.1493   YZZZ      37.1560   ZZZZ    -131.6380
 -----------------------------------------------------------------
 Total job time:  181.72s(wall), 180.19s(cpu) 
 Wed May 22 11:42:03 2013

        *************************************************************
        *                                                           *
        *  Thank you very much for using Q-Chem.  Have a nice day.  *
        *                                                           *
        *************************************************************


0 sent ACK to 0 
now end server 0 ... 
