Process 0 of 1 is on cl183 - thread support 1
initial socket setup ...start
initial socket setup ...done 
now start server 0 ... 

cmd = /usr/bin/ssh clhead /usr/local/qchem/bin/get_hostid 1343000653 > /tmp/1591247.1.medium.q/qchem18498/lic.dat

cmd = /usr/bin/ssh clhead /usr/local/qchem/bin/get_hostid 1343000653 > /tmp/1591247.1.medium.q/qchem18498/lic.dat

cmd = /usr/bin/ssh clhead /usr/local/qchem/bin/get_hostid 1343000653 > /tmp/1591247.1.medium.q/qchem18498/lic.dat

cmd = /usr/bin/ssh clhead /usr/local/qchem/bin/get_hostid 1343000653 > /tmp/1591247.1.medium.q/qchem18498/lic.dat

cmd = /usr/bin/ssh clhead /usr/local/qchem/bin/get_hostid 1343000653 > /tmp/1591247.1.medium.q/qchem18498/lic.dat
                  Welcome to Q-Chem
     A Quantum Leap Into The Future Of Chemistry

 Y. Shao, L. Fusti-Molnar, Y. Jung, J. Kussmann, C. Ochsenfeld,
 S. T. Brown, A. T. B. Gilbert, L. V. Slipchenko,S. V. Levchenko,
 D. P. O'Neill, R. A. DiStasio Jr., R. C. Lochan, T. Wang,
 G. J. O. Beran, N. A. Besley, J. M. Herbert, C. Y. Lin,
 T. Van Voorhis, S. H. Chien, A. Sodt, R. P. Steele, 
 V. A. Rassolov, P. E. Maslen, P. P. Korambath, R. D. Adamson,
 B. Austin, J. Baker, E. F. C. Byrd, H. Dachsel, R. J. Doerksen,
 A. Dreuw, B. D. Dunietz, A. D. Dutoi, T. R. Furlani,
 S. R. Gwaltney, A. Heyden, S. Hirata, C.-P. Hsu, G. Kedziora,
 R. Z. Khaliullin, P. Klunzinger, A. M. Lee, M. S. Lee, W. Liang,
 I. Lotan, N. Nair, B. Peters, E. I. Proynov, P. A. Pieniazek, 
 Y. M. Rhee, J. Ritchie, E. Rosta, C. D. Sherrill, 
 A. C. Simmonett, J. E. Subotnik, H. L. Woodcock III,
 W. Zhang, A. T. Bell, A. K. Chakraborty, D. M. Chipman,
 F. J. Keil, A. Warshel, W. J. Hehre, H. F. Schaefer III,
 J. Kong, A. I. Krylov, P. M. W. Gill, M. Head-Gordon,
 Q-Chem, Version 3.1, Q-Chem, Inc., Pittsburgh, PA (2007).

 Additional authors for Version 3.1: 
 Z. Gan, Y. Zhao, N. E. Schultz, D. Truhlar, E. Epifanovsky and M. Oana.

 Additional authors for Version 3.2: 
 R. Baer, B. R. Brooks, D. Casanova, J.-D. Chai, C.-L. Cheng, 
 C. Cramer, D. Crittenden, A. Ghysels, G. Hawkins, E. G. Hohenstein, 
 C. Kelley, W. Kurlancheek, D. Liotard, E. Livshits, P. Manohar, 
 A. Marenich, D. Neuhauser, R. Olson, M. A. Rohrdanz, K. S. Thanthiriwatte, 
 A. J. W. Thom, V. Vanovschi, C. F. Williams, Q. Wu and Z.-Q. You. 


 Intel X86 Linux Version

 Q-chem begins on Fri Mar  7 23:00:45 2014  

 Parallel job on  1  processors
Processing $rem in /usr/local/qchem/config/preferences.

theFileMan(): MAXOPENFILES=974 MAX_SUB_FILE_NUM=16
Maximum size of a physical file is 2.0 GB, maximum size of a tmp-file is 32.0 GB


--------------------------------------------------------------
User input:
--------------------------------------------------------------

$molecule
-1,2
Si        -0.00009        0.00000        0.00110
Cl         0.00019        0.00000        2.01284
Cl         1.89621        0.00000       -0.67116
Cl        -0.94815        1.64199       -0.67139
Cl        -0.94815       -1.64199       -0.67139
$end

$comment
negative
$end

$xc_functional
C PBE   1.00
X wPBE  1.00
$end

$rem
SYMMETRY_DECOMPOSITION	0
exchange 		general
LRC_DFT                 true
BASIS                   g3large
omega			430
mem_static              760
max_scf_cycles          200
scf_final_print         1
sym_ignore              true
$end

--------------------------------------------------------------
 Writing REM_CC_EA            5
 ----------------------------------------------------
       Standard Nuclear Orientation (Angstroms)
    I     Atom         X            Y            Z
 ----------------------------------------------------
    1      Si     -0.000090     0.000000     0.001100
    2      Cl      0.000190     0.000000     2.012840
    3      Cl      1.896210     0.000000    -0.671160
    4      Cl     -0.948150     1.641990    -0.671390
    5      Cl     -0.948150    -1.641990    -0.671390
 ----------------------------------------------------
 Nuclear Repulsion Energy =   529.7173585981 hartrees
 There are       42 alpha and       41 beta electrons
 Requested basis set is G3large
 There are 95 shells and 330 basis functions

Total QAlloc Memory Limit   2000 MB
Mega-Array Size       743 MB
MEM_STATIC part       760 MB

                       Distance Matrix (Angstroms)
             Si(  1)   Cl(  2)   Cl(  3)   Cl(  4)
   Cl(  2)  2.011740
   Cl(  3)  2.011936  3.286145
   Cl(  4)  2.011763  3.286422  3.284283
   Cl(  5)  2.011763  3.286422  3.284283  3.283980
 
 A cutoff of  1.0D-08 yielded   3472 shell pairs
 There are  43435 function pairs ( 61990 Cartesian)
Evaluating contribution to one-electron hamiltonian from nuclear
 Smallest overlap matrix eigenvalue = 2.86E-04
 Multipole matrices computed through 2nd order

  Scale SEOQF with 1.000000e-01/1.000000e-01/1.000000e-01

 Standard Electronic Orientation quadrupole field applied
 Guess from superposition of atomic densities
 Warning:  Energy on first SCF cycle will be non-variational
 Long-range K will be added via erf
 Coulomb attenuation parameter = 0.43 bohr**(-1)
 An unrestricted Kohn-Sham SCF calculation will be
 performed using Pulay DIIS extrapolation
 Exchange:  wPBE + LR-HF      Correlation:  PBE
 Using SG-1 standard quadrature grid
 SCF converges when DIIS error is below 1.0E-05
 Requested basis set is G3large
 There are 95 shells and 330 basis functions
 A cutoff of  1.0D-08 yielded   3472 shell pairs
 There are  43435 function pairs ( 61990 Cartesian)
 Warning!  Inaccurate integrated density:
   Number of electrons =    83
   Numerical integral  =    82.000036047218
   Relative error      =    -1.2047758467 %
 ---------------------------------------
  Cycle       Energy         DIIS Error
 ---------------------------------------
    1   -2130.7344604772      1.93E-02
    2   -2129.7949140098      1.88E-03
    3   -2129.8383585969      1.32E-03
    4   -2129.8545330052      2.39E-04
    5   -2129.8561793369      9.35E-05
    6   -2129.8571866128      7.41E-05
    7   -2129.8580875862      5.43E-05
    8   -2129.8595110837      4.75E-05
    9   -2129.8613719069      3.03E-05
   10   -2129.8624853187      1.74E-05
   11   -2129.8623635618      3.24E-05
   12   -2129.8628181583      2.99E-05
   13   -2129.8628296770      1.30E-05
   14   -2129.8628258643      5.97E-06 Convergence criterion met
 ---------------------------------------
 One-Electron    Energy = -4010.9287046598
 Total Coulomb   Energy =  1484.8844074285
 Alpha Exchange  Energy =    -9.1879232772
 Beta  Exchange  Energy =    -9.1164281814
 DFT   Exchange  Energy =  -112.0086292657
 DFT Correlation Energy =    -3.2229065068
 Nuclear Repu.   Energy =   529.7173585980
 Nuclear Attr.   Energy = -6138.1991115425
 Kinetic         Energy =  2127.2704068827
 <S^2> = 0.7509
 SCF time:  CPU 891.05 s  wall 897.84 s
 Final Alpha MO Eigenvalues
            1           2           3           4           5           6
    1-100.7766977-100.7766964-100.7766869-100.7766052 -65.6336040  -9.3019843
            7           8           9          10          11          12
    1  -9.3019765  -9.3019743  -9.3018838  -7.1165394  -7.1165384  -7.1164838
           13          14          15          16          17          18
    1  -7.1162991  -7.1103047  -7.1102891  -7.1102845  -7.1102406  -7.1102261
           19          20          21          22          23          24
    1  -7.1102253  -7.1102034  -7.1102017  -5.2820753  -3.6829000  -3.6828759
           25          26          27          28          29          30
    1  -3.6828685  -0.9264028  -0.8692504  -0.8692480  -0.8692256  -0.5568059
           31          32          33          34          35          36
    1  -0.4450196  -0.4450098  -0.4450030  -0.3724261  -0.3724079  -0.3559071
           37          38          39          40          41          42
    1  -0.3557846  -0.3557545  -0.3231892  -0.3231880  -0.3231690   0.0328962
           43          44          45          46          47
    1   0.1568558   0.1568973   0.1569887   0.1927397   0.2115307
 Final Beta MO Eigenvalues
            1           2           3           4           5           6
    1-100.7764390-100.7764367-100.7764282-100.7763422 -65.6330665  -9.3016965
            7           8           9          10          11          12
    1  -9.3016892  -9.3016865  -9.3015915  -7.1161307  -7.1161283  -7.1160684
           13          14          15          16          17          18
    1  -7.1158705  -7.1100602  -7.1100395  -7.1100359  -7.1099897  -7.1099765
           19          20          21          22          23          24
    1  -7.1099762  -7.1099486  -7.1099474  -5.2813456  -3.6821451  -3.6821208
           25          26          27          28          29          30
    1  -3.6821154  -0.9242381  -0.8671710  -0.8671654  -0.8671336  -0.5525061
           31          32          33          34          35          36
    1  -0.4435709  -0.4435504  -0.4435434  -0.3717884  -0.3717717  -0.3539669
           37          38          39          40          41          42
    1  -0.3538607  -0.3538324  -0.3227661  -0.3227643  -0.3227503   0.1439693
           43          44          45          46
    1   0.1708838   0.1710643   0.1711313   0.2041066
 Analysis of SCF Wavefunction
 
 --------------------------------------------------------------
                    Orbital Energies (a.u.)
 --------------------------------------------------------------
 
 Alpha MOs
 -- Occupied --
*******-100.777-100.777-100.777 -65.634  -9.302  -9.302  -9.302
 -9.302  -7.117  -7.117  -7.116  -7.116  -7.110  -7.110  -7.110
 -7.110  -7.110  -7.110  -7.110  -7.110  -5.282  -3.683  -3.683
 -3.683  -0.926  -0.869  -0.869  -0.869  -0.557  -0.445  -0.445
 -0.445  -0.372  -0.372  -0.356  -0.356  -0.356  -0.323  -0.323
 -0.323   0.033
 -- Virtual --
  0.157   0.157   0.157   0.193   0.212   0.212   0.212   0.238
  0.238   0.251   0.251   0.252   0.275   0.275   0.275   0.276
  0.303   0.303   0.303   0.307   0.316   0.316   0.316   0.371
  0.371   0.426   0.426   0.426   0.492   0.492   0.492   0.525
  0.525   0.525   0.540   0.540   0.552   0.552   0.552   0.597
  0.597   0.597   0.614   0.668   0.668   0.669   0.694   0.694
  0.694   0.729   0.729   0.729   0.809   0.821   0.821   0.821
  0.824   0.824   0.824   0.863   0.864   0.864   0.926   0.926
  1.013   1.025   1.026   1.026   1.047   1.047   1.083   1.083
  1.083   1.145   1.145   1.145   1.302   1.302   1.302   1.313
  1.313   1.313   1.331   1.331   1.342   1.342   1.342   1.356
  1.356   1.356   1.369   1.415   1.421   1.421   1.421   1.448
  1.448   1.448   1.473   1.473   1.474   1.475   1.475   1.569
  1.570   1.570   1.590   1.591   1.591   1.757   1.758   1.758
  1.766   1.769   1.769   1.769   1.834   1.834   1.834   1.855
  1.855   1.855   1.917   1.917   1.918   1.970   1.970   2.081
  2.204   2.204   2.204   2.453   2.455   2.455   2.476   2.477
  2.477   2.492   2.493   2.493   2.601   2.601   2.601   2.711
  2.711   2.711   2.804   2.804   2.804   2.904   3.970   3.971
  4.120   4.122   4.124   4.605   4.609   4.609   4.609   4.610
  4.610   4.610   4.634   4.634   4.647   4.714   4.714   4.714
  4.723   4.723   4.723   4.735   4.735   4.788   4.815   4.815
  4.815   4.818   4.818   4.818   4.833   4.833   4.833   5.278
  5.279   5.280   5.281   5.282   5.294   5.295   5.296   5.378
  5.378   5.378   5.458   5.458   5.458   5.484   5.498   5.498
  5.681   5.682   5.683   6.613  10.040  10.040  10.040  10.188
 11.813  11.813  11.814  17.717  17.792  17.798  17.873  17.930
 20.739  20.739  20.771  20.771  20.771  20.845  20.845  20.845
 21.029  21.029  21.029  21.068  22.247  22.250  22.255  22.257
 22.257  22.259  22.269  27.244  27.247  27.253  27.266  27.290
 27.308  27.321  27.321  27.330  27.337  27.350  27.363  27.366
 27.368  27.373  27.395  27.414  27.417  27.446  27.446  36.955
 36.955  36.956  36.956  36.956  36.957  36.957  36.959  36.959
 36.961  36.967  36.968  36.969  36.969  36.970  36.971  36.972
 36.973  36.979  36.980  36.982  36.982  36.983  36.983  36.983
 36.984  36.984  36.984 141.570 215.951 215.951 215.952 216.131
 
 Beta MOs
 -- Occupied --
*******-100.776-100.776-100.776 -65.633  -9.302  -9.302  -9.302
 -9.302  -7.116  -7.116  -7.116  -7.116  -7.110  -7.110  -7.110
 -7.110  -7.110  -7.110  -7.110  -7.110  -5.281  -3.682  -3.682
 -3.682  -0.924  -0.867  -0.867  -0.867  -0.553  -0.444  -0.444
 -0.444  -0.372  -0.372  -0.354  -0.354  -0.354  -0.323  -0.323
 -0.323
 -- Virtual --
  0.144   0.171   0.171   0.171   0.204   0.216   0.216   0.216
  0.240   0.240   0.255   0.255   0.255   0.275   0.275   0.275
  0.287   0.303   0.303   0.304   0.309   0.317   0.317   0.317
  0.372   0.372   0.427   0.427   0.427   0.491   0.491   0.491
  0.525   0.525   0.525   0.540   0.540   0.554   0.554   0.555
  0.598   0.598   0.598   0.617   0.669   0.669   0.669   0.693
  0.695   0.695   0.731   0.731   0.731   0.811   0.821   0.821
  0.821   0.825   0.825   0.825   0.864   0.864   0.864   0.928
  0.928   1.015   1.026   1.027   1.027   1.048   1.048   1.084
  1.084   1.084   1.146   1.146   1.146   1.304   1.304   1.304
  1.315   1.315   1.315   1.332   1.332   1.343   1.343   1.343
  1.358   1.358   1.358   1.370   1.415   1.422   1.422   1.422
  1.449   1.449   1.449   1.474   1.474   1.474   1.476   1.476
  1.570   1.571   1.571   1.591   1.592   1.592   1.758   1.758
  1.759   1.765   1.770   1.770   1.770   1.834   1.834   1.834
  1.855   1.855   1.855   1.918   1.918   1.919   1.970   1.970
  2.082   2.205   2.205   2.205   2.456   2.456   2.457   2.477
  2.477   2.478   2.496   2.496   2.496   2.601   2.601   2.601
  2.714   2.715   2.715   2.805   2.806   2.806   2.905   3.971
  3.972   4.121   4.123   4.125   4.606   4.610   4.611   4.611
  4.611   4.611   4.611   4.635   4.635   4.649   4.715   4.715
  4.716   4.724   4.724   4.724   4.736   4.736   4.790   4.817
  4.817   4.817   4.820   4.820   4.820   4.834   4.835   4.835
  5.279   5.279   5.281   5.282   5.282   5.294   5.295   5.296
  5.378   5.378   5.379   5.458   5.458   5.459   5.485   5.498
  5.498   5.681   5.682   5.683   6.614  10.040  10.040  10.040
 10.188  11.814  11.814  11.814  17.718  17.793  17.799  17.874
 17.931  20.739  20.739  20.771  20.772  20.772  20.845  20.845
 20.846  21.029  21.030  21.030  21.068  22.248  22.250  22.256
 22.258  22.258  22.260  22.270  27.244  27.247  27.253  27.267
 27.291  27.308  27.321  27.321  27.330  27.338  27.350  27.363
 27.367  27.369  27.373  27.396  27.414  27.417  27.446  27.447
 36.955  36.955  36.956  36.956  36.956  36.957  36.958  36.959
 36.959  36.961  36.967  36.968  36.969  36.970  36.970  36.972
 36.972  36.974  36.979  36.980  36.982  36.982  36.983  36.983
 36.983  36.984  36.984  36.984 141.571 215.952 215.952 215.952
216.131
 --------------------------------------------------------------
 
          Ground-State Mulliken Net Atomic Charges

     Atom                 Charge (a.u.)    Spin (a.u.)
  --------------------------------------------------------
      1 Si                   -3.261865       4.959765
      2 Cl                    0.573858      -0.997582
      3 Cl                    0.561816      -0.986642
      4 Cl                    0.562880      -0.987713
      5 Cl                    0.563311      -0.987828
  --------------------------------------------------------
  Sum of atomic charges =    -1.000000
  Sum of spin   charges =     1.000000

 -----------------------------------------------------------------
                    Cartesian Multipole Moments
 -----------------------------------------------------------------
    Charge (ESU x 10^10)
                -4.8032
    Dipole Moment (Debye)
         X      -0.0098      Y       0.0044      Z      -0.0730
       Tot       0.0738
    Quadrupole Moments (Debye-Ang)
        XX     -89.7413     XY       0.0052     YY     -89.7848
        XZ       0.0032     YZ       0.0038     ZZ     -89.8119
    Octapole Moments (Debye-Ang^2)
       XXX      -0.6765    XXY       0.0204    XYY       0.5206
       YYY       0.0614    XXZ       0.1276    XYZ      -0.0036
       YYZ       0.1596    XZZ      -0.0540    YZZ       0.0227
       ZZZ      -2.0795
    Hexadecapole Moments (Debye-Ang^3)
      XXXX    -821.7699   XXXY       0.0406   XXYY    -273.9682
      XYYY       0.0477   YYYY    -822.4803   XXXZ       5.7232
      XXYZ       0.0117   XYYZ      -5.6811   YYYZ       0.0351
      XXZZ    -270.3506   XYZZ       0.0141   YYZZ    -270.4737
      XZZZ      -0.0558   YZZZ       0.0285   ZZZZ    -828.2870
 -----------------------------------------------------------------
 Total job time:  898.55s(wall), 891.65s(cpu) 
 Fri Mar  7 23:15:44 2014

        *************************************************************
        *                                                           *
        *  Thank you very much for using Q-Chem.  Have a nice day.  *
        *                                                           *
        *************************************************************


0 sent ACK to 0 
now end server 0 ... 
 
**********************************************************************
Job 2 of 3 
**********************************************************************
 
Process 0 of 1 is on cl183 - thread support 1
initial socket setup ...start
initial socket setup ...done 
now start server 0 ... 

cmd = /usr/bin/ssh clhead /usr/local/qchem/bin/get_hostid 508247643 > /tmp/1591247.1.medium.q/qchem18498/lic.dat

cmd = /usr/bin/ssh clhead /usr/local/qchem/bin/get_hostid 508247643 > /tmp/1591247.1.medium.q/qchem18498/lic.dat

cmd = /usr/bin/ssh clhead /usr/local/qchem/bin/get_hostid 508247643 > /tmp/1591247.1.medium.q/qchem18498/lic.dat

cmd = /usr/bin/ssh clhead /usr/local/qchem/bin/get_hostid 508247643 > /tmp/1591247.1.medium.q/qchem18498/lic.dat

cmd = /usr/bin/ssh clhead /usr/local/qchem/bin/get_hostid 508247643 > /tmp/1591247.1.medium.q/qchem18498/lic.dat
                  Welcome to Q-Chem
     A Quantum Leap Into The Future Of Chemistry

 Y. Shao, L. Fusti-Molnar, Y. Jung, J. Kussmann, C. Ochsenfeld,
 S. T. Brown, A. T. B. Gilbert, L. V. Slipchenko,S. V. Levchenko,
 D. P. O'Neill, R. A. DiStasio Jr., R. C. Lochan, T. Wang,
 G. J. O. Beran, N. A. Besley, J. M. Herbert, C. Y. Lin,
 T. Van Voorhis, S. H. Chien, A. Sodt, R. P. Steele, 
 V. A. Rassolov, P. E. Maslen, P. P. Korambath, R. D. Adamson,
 B. Austin, J. Baker, E. F. C. Byrd, H. Dachsel, R. J. Doerksen,
 A. Dreuw, B. D. Dunietz, A. D. Dutoi, T. R. Furlani,
 S. R. Gwaltney, A. Heyden, S. Hirata, C.-P. Hsu, G. Kedziora,
 R. Z. Khaliullin, P. Klunzinger, A. M. Lee, M. S. Lee, W. Liang,
 I. Lotan, N. Nair, B. Peters, E. I. Proynov, P. A. Pieniazek, 
 Y. M. Rhee, J. Ritchie, E. Rosta, C. D. Sherrill, 
 A. C. Simmonett, J. E. Subotnik, H. L. Woodcock III,
 W. Zhang, A. T. Bell, A. K. Chakraborty, D. M. Chipman,
 F. J. Keil, A. Warshel, W. J. Hehre, H. F. Schaefer III,
 J. Kong, A. I. Krylov, P. M. W. Gill, M. Head-Gordon,
 Q-Chem, Version 3.1, Q-Chem, Inc., Pittsburgh, PA (2007).

 Additional authors for Version 3.1: 
 Z. Gan, Y. Zhao, N. E. Schultz, D. Truhlar, E. Epifanovsky and M. Oana.

 Additional authors for Version 3.2: 
 R. Baer, B. R. Brooks, D. Casanova, J.-D. Chai, C.-L. Cheng, 
 C. Cramer, D. Crittenden, A. Ghysels, G. Hawkins, E. G. Hohenstein, 
 C. Kelley, W. Kurlancheek, D. Liotard, E. Livshits, P. Manohar, 
 A. Marenich, D. Neuhauser, R. Olson, M. A. Rohrdanz, K. S. Thanthiriwatte, 
 A. J. W. Thom, V. Vanovschi, C. F. Williams, Q. Wu and Z.-Q. You. 


 Intel X86 Linux Version

 Q-chem begins on Fri Mar  7 23:15:48 2014  

 Parallel job on  1  processors
Processing $rem in /usr/local/qchem/config/preferences.

theFileMan(): MAXOPENFILES=974 MAX_SUB_FILE_NUM=16
Maximum size of a physical file is 2.0 GB, maximum size of a tmp-file is 32.0 GB


--------------------------------------------------------------
User input:
--------------------------------------------------------------

$molecule
0,1
Si        -0.00009        0.00000        0.00110
Cl         0.00019        0.00000        2.01284
Cl         1.89621        0.00000       -0.67116
Cl        -0.94815        1.64199       -0.67139
Cl        -0.94815       -1.64199       -0.67139
$end

$comment
neutral
$end

$xc_functional
C PBE   1.00
X wPBE  1.00
$end


$rem
SYMMETRY_DECOMPOSITION	0
LRC_DFT                 true
exchange 		general
BASIS                   g3large
omega			430
mem_static              760
max_scf_cycles          200
scf_final_print         1
sym_ignore              true
$end

--------------------------------------------------------------
 Writing REM_CC_EA            5
 ----------------------------------------------------
       Standard Nuclear Orientation (Angstroms)
    I     Atom         X            Y            Z
 ----------------------------------------------------
    1      Si     -0.000090     0.000000     0.001100
    2      Cl      0.000190     0.000000     2.012840
    3      Cl      1.896210     0.000000    -0.671160
    4      Cl     -0.948150     1.641990    -0.671390
    5      Cl     -0.948150    -1.641990    -0.671390
 ----------------------------------------------------
 Nuclear Repulsion Energy =   529.7173585981 hartrees
 There are       41 alpha and       41 beta electrons
 Requested basis set is G3large
 There are 95 shells and 330 basis functions

Total QAlloc Memory Limit   2000 MB
Mega-Array Size       743 MB
MEM_STATIC part       760 MB

                       Distance Matrix (Angstroms)
             Si(  1)   Cl(  2)   Cl(  3)   Cl(  4)
   Cl(  2)  2.011740
   Cl(  3)  2.011936  3.286145
   Cl(  4)  2.011763  3.286422  3.284283
   Cl(  5)  2.011763  3.286422  3.284283  3.283980
 
 A cutoff of  1.0D-08 yielded   3472 shell pairs
 There are  43435 function pairs ( 61990 Cartesian)
Evaluating contribution to one-electron hamiltonian from nuclear
 Smallest overlap matrix eigenvalue = 2.86E-04
 Multipole matrices computed through 2nd order

  Scale SEOQF with 1.000000e-01/1.000000e-01/1.000000e-01

 Standard Electronic Orientation quadrupole field applied
 Guess from superposition of atomic densities
 Warning:  Energy on first SCF cycle will be non-variational
 Long-range K will be added via erf
 Coulomb attenuation parameter = 0.43 bohr**(-1)
 A restricted Kohn-Sham SCF calculation will be
 performed using Pulay DIIS extrapolation
 Exchange:  wPBE + LR-HF      Correlation:  PBE
 Using SG-1 standard quadrature grid
 SCF converges when DIIS error is below 1.0E-05
 Requested basis set is G3large
 There are 95 shells and 330 basis functions
 A cutoff of  1.0D-08 yielded   3472 shell pairs
 There are  43435 function pairs ( 61990 Cartesian)
 ---------------------------------------
  Cycle       Energy         DIIS Error
 ---------------------------------------
    1   -2130.7344604772      1.93E-02
    2   -2129.8225517020      2.24E-03
    3   -2129.8530280156      2.08E-03
    4   -2129.8998409334      1.66E-04
    5   -2129.9003493694      6.05E-05
    6   -2129.9004262115      2.15E-05
    7   -2129.9004328687      4.50E-06 Convergence criterion met
 ---------------------------------------
 One-Electron    Energy = -3999.3301960608
 Total Coulomb   Energy =  1473.1469206527
 Alpha Exchange  Energy =    -9.1198498704
 Beta  Exchange  Energy =    -9.1198498704
 DFT   Exchange  Energy =  -111.9824885662
 DFT Correlation Energy =    -3.2123277517
 Nuclear Repu.   Energy =   529.7173585980
 Nuclear Attr.   Energy = -6126.2965129861
 Kinetic         Energy =  2126.9663169253
 SCF time:  CPU 348.15 s  wall 351.19 s
 Final Alpha MO Eigenvalues
            1           2           3           4           5           6
    1-100.9188197-100.9186726-100.9185813-100.9185277 -65.7841083  -9.4435227
            7           8           9          10          11          12
    1  -9.4433510  -9.4433012  -9.4432532  -7.2580776  -7.2580720  -7.2579675
           13          14          15          16          17          18
    1  -7.2579506  -7.2518278  -7.2518266  -7.2516177  -7.2515866  -7.2515253
           19          20          21          22          23          24
    1  -7.2515195  -7.2515146  -7.2514269  -5.4311296  -3.8319897  -3.8319622
           25          26          27          28          29          30
    1  -3.8319555  -1.0662185  -1.0080468  -1.0078476  -1.0078272  -0.6935281
           31          32          33          34          35          36
    1  -0.5841173  -0.5840032  -0.5839937  -0.5112504  -0.5112365  -0.4933084
           37          38          39          40          41          42
    1  -0.4932106  -0.4931874  -0.4619009  -0.4618957  -0.4617689   0.0419014
           43          44          45          46
    1   0.0733180   0.0733368   0.0733431   0.0741499
 Analysis of SCF Wavefunction
 
 --------------------------------------------------------------
                    Orbital Energies (a.u.)
 --------------------------------------------------------------
 
 Alpha MOs
 -- Occupied --
*******-100.919-100.919-100.919 -65.784  -9.444  -9.443  -9.443
 -9.443  -7.258  -7.258  -7.258  -7.258  -7.252  -7.252  -7.252
 -7.252  -7.252  -7.252  -7.252  -7.251  -5.431  -3.832  -3.832
 -3.832  -1.066  -1.008  -1.008  -1.008  -0.694  -0.584  -0.584
 -0.584  -0.511  -0.511  -0.493  -0.493  -0.493  -0.462  -0.462
 -0.462
 -- Virtual --
  0.042   0.073   0.073   0.073   0.074   0.099   0.099   0.099
  0.135   0.135   0.135   0.136   0.136   0.172   0.172   0.172
  0.172   0.189   0.189   0.189   0.197   0.212   0.212   0.212
  0.235   0.235   0.295   0.295   0.295   0.366   0.366   0.366
  0.389   0.389   0.389   0.406   0.406   0.430   0.430   0.430
  0.466   0.466   0.467   0.488   0.543   0.543   0.543   0.567
  0.567   0.573   0.597   0.597   0.597   0.675   0.689   0.689
  0.689   0.690   0.690   0.690   0.735   0.735   0.735   0.788
  0.788   0.877   0.890   0.890   0.890   0.914   0.914   0.951
  0.951   0.951   1.008   1.008   1.008   1.166   1.166   1.166
  1.177   1.177   1.177   1.195   1.195   1.206   1.206   1.206
  1.221   1.221   1.221   1.234   1.278   1.284   1.284   1.284
  1.313   1.313   1.313   1.336   1.336   1.336   1.337   1.337
  1.432   1.433   1.433   1.454   1.456   1.456   1.620   1.620
  1.621   1.634   1.634   1.634   1.635   1.696   1.696   1.697
  1.720   1.720   1.720   1.780   1.780   1.781   1.834   1.834
  1.943   2.065   2.066   2.066   2.311   2.318   2.318   2.338
  2.339   2.339   2.351   2.352   2.352   2.464   2.464   2.464
  2.570   2.571   2.571   2.665   2.665   2.665   2.765   3.824
  3.825   3.976   3.977   3.979   4.466   4.470   4.471   4.471
  4.471   4.471   4.471   4.495   4.495   4.509   4.575   4.575
  4.576   4.583   4.584   4.584   4.595   4.596   4.649   4.676
  4.676   4.676   4.679   4.679   4.679   4.694   4.694   4.694
  5.138   5.139   5.140   5.141   5.142   5.154   5.155   5.156
  5.238   5.238   5.238   5.317   5.318   5.318   5.344   5.358
  5.358   5.539   5.541   5.542   6.467   9.900   9.900   9.900
 10.048  11.665  11.665  11.665  17.568  17.643  17.649  17.724
 17.781  20.598  20.598  20.630  20.630  20.630  20.704  20.704
 20.704  20.888  20.888  20.888  20.926  22.098  22.100  22.106
 22.108  22.108  22.110  22.120  27.103  27.106  27.112  27.125
 27.149  27.167  27.179  27.180  27.189  27.196  27.209  27.221
 27.225  27.227  27.231  27.254  27.273  27.275  27.305  27.305
 36.814  36.814  36.814  36.815  36.815  36.815  36.816  36.818
 36.818  36.820  36.825  36.827  36.828  36.828  36.829  36.830
 36.830  36.832  36.837  36.838  36.840  36.841  36.841  36.841
 36.841  36.842  36.842  36.843 141.420 215.810 215.810 215.810
215.989
 --------------------------------------------------------------
 
          Ground-State Mulliken Net Atomic Charges

     Atom                 Charge (a.u.)
  ----------------------------------------
      1 Si                    1.625580
      2 Cl                   -0.406018
      3 Cl                   -0.406486
      4 Cl                   -0.406675
      5 Cl                   -0.406400
  ----------------------------------------
  Sum of atomic charges =     0.000000

 -----------------------------------------------------------------
                    Cartesian Multipole Moments
 -----------------------------------------------------------------
    Charge (ESU x 10^10)
                 0.0000
    Dipole Moment (Debye)
         X      -0.0003      Y      -0.0012      Z       0.0081
       Tot       0.0082
    Quadrupole Moments (Debye-Ang)
        XX     -61.9393     XY       0.0003     YY     -61.9349
        XZ       0.0020     YZ       0.0010     ZZ     -61.9198
    Octapole Moments (Debye-Ang^2)
       XXX       2.1926    XXY      -0.0022    XYY      -2.1983
       YYY      -0.0065    XXZ      -1.5585    XYZ      -0.0005
       YYZ      -1.5647    XZZ      -0.0022    YZZ      -0.0019
       ZZZ       3.1472
    Hexadecapole Moments (Debye-Ang^3)
      XXXX    -457.4792   XXXY      -0.0021   XXYY    -152.4749
      XYYY       0.0006   YYYY    -457.3512   XXXZ      -4.7569
      XXYZ       0.0008   XYYZ       4.7269   YYYZ       0.0025
      XXZZ    -155.9044   XYZZ      -0.0006   YYZZ    -155.8805
      XZZZ      -0.0193   YZZZ      -0.0003   ZZZZ    -454.6637
 -----------------------------------------------------------------
 Total job time:  351.85s(wall), 348.74s(cpu) 
 Fri Mar  7 23:21:40 2014

        *************************************************************
        *                                                           *
        *  Thank you very much for using Q-Chem.  Have a nice day.  *
        *                                                           *
        *************************************************************


0 sent ACK to 0 
now end server 0 ... 
 
**********************************************************************
Job 3 of 3 
**********************************************************************
 
Process 0 of 1 is on cl183 - thread support 1
initial socket setup ...start
initial socket setup ...done 
now start server 0 ... 

cmd = /usr/bin/ssh clhead /usr/local/qchem/bin/get_hostid 1762139965 > /tmp/1591247.1.medium.q/qchem18498/lic.dat

cmd = /usr/bin/ssh clhead /usr/local/qchem/bin/get_hostid 1762139965 > /tmp/1591247.1.medium.q/qchem18498/lic.dat

cmd = /usr/bin/ssh clhead /usr/local/qchem/bin/get_hostid 1762139965 > /tmp/1591247.1.medium.q/qchem18498/lic.dat

cmd = /usr/bin/ssh clhead /usr/local/qchem/bin/get_hostid 1762139965 > /tmp/1591247.1.medium.q/qchem18498/lic.dat

cmd = /usr/bin/ssh clhead /usr/local/qchem/bin/get_hostid 1762139965 > /tmp/1591247.1.medium.q/qchem18498/lic.dat
                  Welcome to Q-Chem
     A Quantum Leap Into The Future Of Chemistry

 Y. Shao, L. Fusti-Molnar, Y. Jung, J. Kussmann, C. Ochsenfeld,
 S. T. Brown, A. T. B. Gilbert, L. V. Slipchenko,S. V. Levchenko,
 D. P. O'Neill, R. A. DiStasio Jr., R. C. Lochan, T. Wang,
 G. J. O. Beran, N. A. Besley, J. M. Herbert, C. Y. Lin,
 T. Van Voorhis, S. H. Chien, A. Sodt, R. P. Steele, 
 V. A. Rassolov, P. E. Maslen, P. P. Korambath, R. D. Adamson,
 B. Austin, J. Baker, E. F. C. Byrd, H. Dachsel, R. J. Doerksen,
 A. Dreuw, B. D. Dunietz, A. D. Dutoi, T. R. Furlani,
 S. R. Gwaltney, A. Heyden, S. Hirata, C.-P. Hsu, G. Kedziora,
 R. Z. Khaliullin, P. Klunzinger, A. M. Lee, M. S. Lee, W. Liang,
 I. Lotan, N. Nair, B. Peters, E. I. Proynov, P. A. Pieniazek, 
 Y. M. Rhee, J. Ritchie, E. Rosta, C. D. Sherrill, 
 A. C. Simmonett, J. E. Subotnik, H. L. Woodcock III,
 W. Zhang, A. T. Bell, A. K. Chakraborty, D. M. Chipman,
 F. J. Keil, A. Warshel, W. J. Hehre, H. F. Schaefer III,
 J. Kong, A. I. Krylov, P. M. W. Gill, M. Head-Gordon,
 Q-Chem, Version 3.1, Q-Chem, Inc., Pittsburgh, PA (2007).

 Additional authors for Version 3.1: 
 Z. Gan, Y. Zhao, N. E. Schultz, D. Truhlar, E. Epifanovsky and M. Oana.

 Additional authors for Version 3.2: 
 R. Baer, B. R. Brooks, D. Casanova, J.-D. Chai, C.-L. Cheng, 
 C. Cramer, D. Crittenden, A. Ghysels, G. Hawkins, E. G. Hohenstein, 
 C. Kelley, W. Kurlancheek, D. Liotard, E. Livshits, P. Manohar, 
 A. Marenich, D. Neuhauser, R. Olson, M. A. Rohrdanz, K. S. Thanthiriwatte, 
 A. J. W. Thom, V. Vanovschi, C. F. Williams, Q. Wu and Z.-Q. You. 


 Intel X86 Linux Version

 Q-chem begins on Fri Mar  7 23:21:44 2014  

 Parallel job on  1  processors
Processing $rem in /usr/local/qchem/config/preferences.

theFileMan(): MAXOPENFILES=974 MAX_SUB_FILE_NUM=16
Maximum size of a physical file is 2.0 GB, maximum size of a tmp-file is 32.0 GB


--------------------------------------------------------------
User input:
--------------------------------------------------------------

$molecule
1,2
Si        -0.00009        0.00000        0.00110
Cl         0.00019        0.00000        2.01284
Cl         1.89621        0.00000       -0.67116
Cl        -0.94815        1.64199       -0.67139
Cl        -0.94815       -1.64199       -0.67139
$end

$comment
positive
$end

$xc_functional
C PBE   1.00
X wPBE  1.00
$end

$rem
SYMMETRY_DECOMPOSITION	0
LRC_DFT                 true
exchange 		general
BASIS                   g3large
omega			430
mem_static              760
max_scf_cycles          200
scf_final_print         1
sym_ignore              true
$end

--------------------------------------------------------------
 Writing REM_CC_EA            5
 ----------------------------------------------------
       Standard Nuclear Orientation (Angstroms)
    I     Atom         X            Y            Z
 ----------------------------------------------------
    1      Si     -0.000090     0.000000     0.001100
    2      Cl      0.000190     0.000000     2.012840
    3      Cl      1.896210     0.000000    -0.671160
    4      Cl     -0.948150     1.641990    -0.671390
    5      Cl     -0.948150    -1.641990    -0.671390
 ----------------------------------------------------
 Nuclear Repulsion Energy =   529.7173585981 hartrees
 There are       41 alpha and       40 beta electrons
 Requested basis set is G3large
 There are 95 shells and 330 basis functions

Total QAlloc Memory Limit   2000 MB
Mega-Array Size       743 MB
MEM_STATIC part       760 MB

                       Distance Matrix (Angstroms)
             Si(  1)   Cl(  2)   Cl(  3)   Cl(  4)
   Cl(  2)  2.011740
   Cl(  3)  2.011936  3.286145
   Cl(  4)  2.011763  3.286422  3.284283
   Cl(  5)  2.011763  3.286422  3.284283  3.283980
 
 A cutoff of  1.0D-08 yielded   3472 shell pairs
 There are  43435 function pairs ( 61990 Cartesian)
Evaluating contribution to one-electron hamiltonian from nuclear
 Smallest overlap matrix eigenvalue = 2.86E-04
 Multipole matrices computed through 2nd order

  Scale SEOQF with 1.000000e-01/1.000000e-01/1.000000e-01

 Standard Electronic Orientation quadrupole field applied
 Guess from superposition of atomic densities
 Warning:  Energy on first SCF cycle will be non-variational
 Long-range K will be added via erf
 Coulomb attenuation parameter = 0.43 bohr**(-1)
 An unrestricted Kohn-Sham SCF calculation will be
 performed using Pulay DIIS extrapolation
 Exchange:  wPBE + LR-HF      Correlation:  PBE
 Using SG-1 standard quadrature grid
 SCF converges when DIIS error is below 1.0E-05
 Requested basis set is G3large
 There are 95 shells and 330 basis functions
 A cutoff of  1.0D-08 yielded   3472 shell pairs
 There are  43435 function pairs ( 61990 Cartesian)
 Warning!  Inaccurate integrated density:
   Number of electrons =    81
   Numerical integral  =    82.000036047218
   Relative error      =     1.2346124040 %
 ---------------------------------------
  Cycle       Energy         DIIS Error
 ---------------------------------------
    1   -2130.7344604772      1.93E-02
    2   -2129.3198411907      2.56E-03
    3   -2129.3729198849      2.44E-03
    4   -2129.4408231774      2.38E-04
    5   -2129.4423320383      9.82E-05
    6   -2129.4429070206      4.42E-05
    7   -2129.4432434818      3.20E-05
    8   -2129.4434635930      2.21E-05
    9   -2129.4436939086      1.49E-05
   10   -2129.4437881160      9.59E-06 Convergence criterion met
 ---------------------------------------
 One-Electron    Energy = -3981.4679432894
 Total Coulomb   Energy =  1455.3281659641
 Alpha Exchange  Energy =    -9.1410108547
 Beta  Exchange  Energy =    -8.8747970647
 DFT   Exchange  Energy =  -111.8333924192
 DFT Correlation Energy =    -3.1721690501
 Nuclear Repu.   Energy =   529.7173585980
 Nuclear Attr.   Energy = -6107.9823090887
 Kinetic         Energy =  2126.5143657993
 <S^2> = 0.7659
 SCF time:  CPU 617.57 s  wall 622.14 s
 Final Alpha MO Eigenvalues
            1           2           3           4           5           6
    1-101.1869792-101.1687883-101.1439719-101.0941280 -65.9878436  -9.7081774
            7           8           9          10          11          12
    1  -9.6903107  -9.6661734  -9.6175116  -7.5251606  -7.5199543  -7.5135159
           13          14          15          16          17          18
    1  -7.5057481  -7.5028037  -7.4960349  -7.4798523  -7.4789899  -7.4726730
           19          20          21          22          23          24
    1  -7.4328375  -7.4258134  -7.4254817  -5.6349147  -4.0364397  -4.0358757
           25          26          27          28          29          30
    1  -4.0348386  -1.2939219  -1.2526245  -1.2302317  -1.1877173  -0.9060088
           31          32          33          34          35          36
    1  -0.8087088  -0.8035605  -0.7806928  -0.7484639  -0.7378637  -0.7212821
           37          38          39          40          41          42
    1  -0.7044866  -0.6981606  -0.6935334  -0.6518674  -0.6474727  -0.1349935
           43          44          45          46
    1  -0.0979506  -0.0958258  -0.0932606  -0.0874083
 Final Beta MO Eigenvalues
            1           2           3           4           5           6
    1-101.1839002-101.1662950-101.1422177-101.0941084 -65.9879710  -9.7054056
            7           8           9          10          11          12
    1  -9.6880719  -9.6646026  -9.6174946  -7.5184051  -7.5170579  -7.5113928
           13          14          15          16          17          18
    1  -7.5015954  -7.4989021  -7.4945694  -7.4786075  -7.4746896  -7.4715364
           19          20          21          22          23          24
    1  -7.4328497  -7.4257111  -7.4254970  -5.6351228  -4.0367549  -4.0361884
           25          26          27          28          29          30
    1  -4.0349820  -1.2789582  -1.2286458  -1.2139059  -1.1857403  -0.9004667
           31          32          33          34          35          36
    1  -0.7991137  -0.7853470  -0.7778626  -0.7192456  -0.7017134  -0.6919263
           37          38          39          40          41          42
    1  -0.6669094  -0.6641589  -0.6446308  -0.6418952  -0.4506073  -0.1312071
           43          44          45
    1  -0.0954307  -0.0912448  -0.0894324
 Analysis of SCF Wavefunction
 
 --------------------------------------------------------------
                    Orbital Energies (a.u.)
 --------------------------------------------------------------
 
 Alpha MOs
 -- Occupied --
*******-101.169-101.144-101.094 -65.988  -9.708  -9.690  -9.666
 -9.618  -7.525  -7.520  -7.514  -7.506  -7.503  -7.496  -7.480
 -7.479  -7.473  -7.433  -7.426  -7.425  -5.635  -4.036  -4.036
 -4.035  -1.294  -1.253  -1.230  -1.188  -0.906  -0.809  -0.804
 -0.781  -0.748  -0.738  -0.721  -0.704  -0.698  -0.694  -0.652
 -0.647
 -- Virtual --
 -0.135  -0.098  -0.096  -0.093  -0.087  -0.050  -0.050  -0.047
 -0.010  -0.008  -0.004  -0.003  -0.002   0.020   0.027   0.031
  0.036   0.038   0.042   0.045   0.046   0.048   0.066   0.080
  0.082   0.084   0.113   0.117   0.125   0.179   0.183   0.192
  0.194   0.196   0.201   0.222   0.226   0.256   0.259   0.264
  0.268   0.283   0.291   0.317   0.366   0.366   0.375   0.392
  0.393   0.411   0.411   0.413   0.417   0.487   0.490   0.494
  0.499   0.502   0.510   0.517   0.558   0.558   0.563   0.593
  0.593   0.680   0.698   0.702   0.706   0.723   0.726   0.763
  0.766   0.768   0.808   0.814   0.823   0.951   0.955   0.967
  0.969   0.976   0.987   0.991   0.992   0.994   1.002   1.009
  1.010   1.032   1.036   1.039   1.067   1.074   1.080   1.102
  1.107   1.110   1.120   1.121   1.125   1.143   1.147   1.152
  1.222   1.228   1.243   1.260   1.264   1.264   1.404   1.420
  1.426   1.427   1.434   1.441   1.459   1.488   1.499   1.503
  1.525   1.525   1.534   1.572   1.584   1.591   1.638   1.640
  1.742   1.857   1.865   1.879   2.097   2.101   2.104   2.114
  2.141   2.142   2.149   2.150   2.152   2.253   2.262   2.265
  2.359   2.370   2.373   2.442   2.454   2.476   2.563   3.619
  3.620   3.767   3.773   3.781   4.206   4.208   4.224   4.230
  4.244   4.259   4.265   4.267   4.287   4.311   4.335   4.341
  4.346   4.358   4.364   4.373   4.379   4.382   4.420   4.438
  4.451   4.454   4.463   4.481   4.482   4.486   4.492   4.495
  4.883   4.887   4.903   4.908   4.926   4.927   4.953   4.958
  5.004   5.023   5.031   5.077   5.094   5.112   5.123   5.149
  5.154   5.300   5.318   5.352   6.263   9.647   9.669   9.707
  9.834  11.461  11.461  11.463  17.365  17.439  17.445  17.520
 17.578  20.354  20.355  20.378  20.407  20.413  20.466  20.497
 20.502  20.632  20.651  20.679  20.729  21.894  21.897  21.902
 21.904  21.904  21.906  21.917  26.837  26.867  26.882  26.911
 26.916  26.931  26.945  26.951  26.965  26.970  26.973  26.979
 26.987  27.008  27.024  27.028  27.048  27.059  27.069  27.126
 36.548  36.549  36.561  36.563  36.567  36.568  36.570  36.572
 36.576  36.578  36.583  36.588  36.590  36.592  36.594  36.596
 36.607  36.608  36.611  36.615  36.617  36.643  36.646  36.654
 36.656  36.660  36.662  36.664 141.216 215.549 215.572 215.613
215.767
 
 Beta MOs
 -- Occupied --
*******-101.166-101.142-101.094 -65.988  -9.705  -9.688  -9.665
 -9.617  -7.518  -7.517  -7.511  -7.502  -7.499  -7.495  -7.479
 -7.475  -7.472  -7.433  -7.426  -7.425  -5.635  -4.037  -4.036
 -4.035  -1.279  -1.229  -1.214  -1.186  -0.900  -0.799  -0.785
 -0.778  -0.719  -0.702  -0.692  -0.667  -0.664  -0.645  -0.642
 -- Virtual --
 -0.451  -0.131  -0.095  -0.091  -0.089  -0.087  -0.049  -0.049
 -0.047  -0.008  -0.007  -0.003  -0.002  -0.002   0.020   0.033
  0.035   0.040   0.040   0.043   0.046   0.046   0.049   0.066
  0.083   0.084   0.084   0.119   0.121   0.126   0.194   0.195
  0.198   0.200   0.203   0.207   0.227   0.231   0.259   0.262
  0.269   0.279   0.288   0.294   0.317   0.371   0.373   0.376
  0.397   0.397   0.413   0.415   0.415   0.418   0.489   0.499
  0.502   0.503   0.505   0.513   0.519   0.561   0.561   0.563
  0.593   0.593   0.681   0.698   0.703   0.709   0.728   0.729
  0.767   0.769   0.771   0.811   0.816   0.825   0.963   0.966
  0.974   0.976   0.982   0.994   0.996   0.999   1.003   1.009
  1.014   1.019   1.037   1.040   1.042   1.073   1.084   1.085
  1.106   1.111   1.118   1.127   1.128   1.133   1.147   1.150
  1.155   1.228   1.233   1.246   1.265   1.268   1.268   1.413
  1.425   1.430   1.433   1.439   1.444   1.460   1.496   1.501
  1.505   1.531   1.532   1.536   1.578   1.588   1.595   1.642
  1.643   1.745   1.860   1.867   1.880   2.104   2.107   2.111
  2.129   2.146   2.147   2.148   2.149   2.150   2.256   2.269
  2.272   2.362   2.370   2.372   2.446   2.457   2.477   2.565
  3.619   3.620   3.767   3.773   3.781   4.232   4.235   4.245
  4.251   4.259   4.274   4.278   4.281   4.292   4.315   4.351
  4.356   4.362   4.363   4.372   4.375   4.386   4.390   4.433
  4.449   4.457   4.464   4.471   4.484   4.485   4.489   4.497
  4.501   4.891   4.895   4.909   4.915   4.930   4.931   4.956
  4.960   5.007   5.026   5.034   5.084   5.096   5.113   5.125
  5.151   5.156   5.303   5.320   5.353   6.263   9.653   9.673
  9.709   9.837  11.460  11.461  11.463  17.365  17.439  17.445
 17.520  17.577  20.359  20.363  20.387  20.411  20.418  20.469
 20.499  20.505  20.634  20.653  20.680  20.729  21.894  21.897
 21.902  21.904  21.904  21.906  21.916  26.844  26.873  26.885
 26.915  26.922  26.933  26.949  26.955  26.968  26.973  26.976
 26.982  26.990  27.010  27.025  27.029  27.051  27.060  27.070
 27.126  36.551  36.552  36.563  36.565  36.569  36.570  36.572
 36.573  36.577  36.580  36.585  36.590  36.591  36.593  36.596
 36.597  36.608  36.610  36.612  36.616  36.617  36.643  36.646
 36.654  36.656  36.660  36.662  36.664 141.216 215.552 215.575
215.614 215.769
 --------------------------------------------------------------
 
          Ground-State Mulliken Net Atomic Charges

     Atom                 Charge (a.u.)    Spin (a.u.)
  --------------------------------------------------------
      1 Si                    1.574182      -0.095559
      2 Cl                   -0.045891       0.461541
      3 Cl                   -0.156968       0.255466
      4 Cl                   -0.092278       0.373173
      5 Cl                   -0.279045       0.005379
  --------------------------------------------------------
  Sum of atomic charges =     1.000000
  Sum of spin   charges =     1.000000

 -----------------------------------------------------------------
                    Cartesian Multipole Moments
 -----------------------------------------------------------------
    Charge (ESU x 10^10)
                 4.8032
    Dipole Moment (Debye)
         X       0.2872      Y       1.4906      Z       1.2464
       Tot       1.9641
    Quadrupole Moments (Debye-Ang)
        XX     -50.8489     XY      -2.0845     YY     -51.6111
        XZ      -0.3198     YZ      -1.4412     ZZ     -47.7953
    Octapole Moments (Debye-Ang^2)
       XXX      10.5042    XXY       1.8227    XYY      -9.0891
       YYY       5.4378    XXZ      -5.5443    XYZ      -0.1097
       YYZ      -5.8195    XZZ       0.4437    YZZ       1.8553
       ZZZ      18.7820
    Hexadecapole Moments (Debye-Ang^3)
      XXXX    -397.8246   XXXY      -5.5957   XXYY    -132.9767
      XYYY      -5.6891   YYYY    -402.7099   XXXZ     -10.8803
      XXYZ      -1.2351   XYYZ       9.4328   YYYZ      -3.8830
      XXZZ    -136.2799   XYZZ      -2.8854   YYZZ    -136.4579
      XZZZ      -0.7499   YZZZ      -5.0312   ZZZZ    -373.5931
 -----------------------------------------------------------------
 Total job time:  622.79s(wall), 618.15s(cpu) 
 Fri Mar  7 23:32:07 2014

        *************************************************************
        *                                                           *
        *  Thank you very much for using Q-Chem.  Have a nice day.  *
        *                                                           *
        *************************************************************


0 sent ACK to 0 
now end server 0 ... 
