Process 0 of 1 is on cl171.stfx.acenet.ca - thread support 1
initial socket setup ...start
initial socket setup ...done 
now start server 0 ... 

cmd = /usr/bin/ssh clhead /usr/local/qchem/bin/get_hostid 32556932 > /scratch/tmp/6064790.1.medium.q/qchem32078/lic.dat
                  Welcome to Q-Chem
     A Quantum Leap Into The Future Of Chemistry

 Y. Shao, L. Fusti-Molnar, Y. Jung, J. Kussmann, C. Ochsenfeld,
 S. T. Brown, A. T. B. Gilbert, L. V. Slipchenko,S. V. Levchenko,
 D. P. O'Neill, R. A. DiStasio Jr., R. C. Lochan, T. Wang,
 G. J. O. Beran, N. A. Besley, J. M. Herbert, C. Y. Lin,
 T. Van Voorhis, S. H. Chien, A. Sodt, R. P. Steele, 
 V. A. Rassolov, P. E. Maslen, P. P. Korambath, R. D. Adamson,
 B. Austin, J. Baker, E. F. C. Byrd, H. Dachsel, R. J. Doerksen,
 A. Dreuw, B. D. Dunietz, A. D. Dutoi, T. R. Furlani,
 S. R. Gwaltney, A. Heyden, S. Hirata, C.-P. Hsu, G. Kedziora,
 R. Z. Khaliullin, P. Klunzinger, A. M. Lee, M. S. Lee, W. Liang,
 I. Lotan, N. Nair, B. Peters, E. I. Proynov, P. A. Pieniazek, 
 Y. M. Rhee, J. Ritchie, E. Rosta, C. D. Sherrill, 
 A. C. Simmonett, J. E. Subotnik, H. L. Woodcock III,
 W. Zhang, A. T. Bell, A. K. Chakraborty, D. M. Chipman,
 F. J. Keil, A. Warshel, W. J. Hehre, H. F. Schaefer III,
 J. Kong, A. I. Krylov, P. M. W. Gill, M. Head-Gordon,
 Q-Chem, Version 3.1, Q-Chem, Inc., Pittsburgh, PA (2007).

 Additional authors for Version 3.1: 
 Z. Gan, Y. Zhao, N. E. Schultz, D. Truhlar, E. Epifanovsky and M. Oana.

 Additional authors for Version 3.2: 
 R. Baer, B. R. Brooks, D. Casanova, J.-D. Chai, C.-L. Cheng, 
 C. Cramer, D. Crittenden, A. Ghysels, G. Hawkins, E. G. Hohenstein, 
 C. Kelley, W. Kurlancheek, D. Liotard, E. Livshits, P. Manohar, 
 A. Marenich, D. Neuhauser, R. Olson, M. A. Rohrdanz, K. S. Thanthiriwatte, 
 A. J. W. Thom, V. Vanovschi, C. F. Williams, Q. Wu and Z.-Q. You. 


 Intel X86 Linux Version

 Q-chem begins on Mon Jul  8 12:25:19 2013  

 Parallel job on  1  processors
Processing $rem in /usr/local/qchem/config/preferences.

theFileMan(): MAXOPENFILES=974 MAX_SUB_FILE_NUM=16
Maximum size of a physical file is 2.0 GB, maximum size of a tmp-file is 32.0 GB


--------------------------------------------------------------
User input:
--------------------------------------------------------------

$molecule
-1,2
Cl         0.00000        0.00000        0.01854
F          0.00000        0.00000        1.59361
F          1.66516        0.00000        0.10758
F         -1.66516        0.00000        0.10758
$end

$comment
negative
$end

$xc_functional
C PBE   1.00
X wPBE  1.00
$end

$rem
SYMMETRY_DECOMPOSITION	0
exchange 		general
LRC_DFT                 true
BASIS                   g3large
omega			400
mem_static              760
max_scf_cycles          200
scf_final_print         1
sym_ignore              true
$end

--------------------------------------------------------------
 Writing REM_CC_EA            4
 ----------------------------------------------------
       Standard Nuclear Orientation (Angstroms)
    I     Atom         X            Y            Z
 ----------------------------------------------------
    1      Cl      0.000000     0.000000     0.018540
    2      F       0.000000     0.000000     1.593610
    3      F       1.665160     0.000000     0.107580
    4      F      -1.665160     0.000000     0.107580
 ----------------------------------------------------
 Nuclear Repulsion Energy =   199.7912942687 hartrees
 There are       23 alpha and       22 beta electrons
 Requested basis set is G3large
 There are 49 shells and 192 basis functions

Total QAlloc Memory Limit   2000 MB
Mega-Array Size       743 MB
MEM_STATIC part       760 MB

                       Distance Matrix (Angstroms)
             Cl(  1)   F (  2)   F (  3)
   F (  2)  1.575070
   F (  3)  1.667539  2.231825
   F (  4)  1.667539  2.231825  3.330320
 
 A cutoff of  1.0D-08 yielded   1013 shell pairs
 There are  16002 function pairs ( 21671 Cartesian)
Evaluating contribution to one-electron hamiltonian from nuclear
 Smallest overlap matrix eigenvalue = 1.54E-03
 Multipole matrices computed through 2nd order

  Scale SEOQF with 1.000000e-01/1.000000e-01/1.000000e-01

 Standard Electronic Orientation quadrupole field applied
 Nucleus-field energy     =    -0.0000000007 hartrees
 Guess from superposition of atomic densities
 Warning:  Energy on first SCF cycle will be non-variational
 Long-range K will be added via erf
 Coulomb attenuation parameter = 0.4 bohr**(-1)
 An unrestricted Kohn-Sham SCF calculation will be
 performed using Pulay DIIS extrapolation
 Exchange:  wPBE + LR-HF      Correlation:  PBE
 Using SG-1 standard quadrature grid
 SCF converges when DIIS error is below 1.0E-05
 Requested basis set is G3large
 There are 49 shells and 192 basis functions
 A cutoff of  1.0D-08 yielded   1013 shell pairs
 There are  16002 function pairs ( 21671 Cartesian)
 Warning!  Inaccurate integrated density:
   Number of electrons =    45
   Numerical integral  =    43.999580706626
   Relative error      =    -2.2231539853 %
 ---------------------------------------
  Cycle       Energy         DIIS Error
 ---------------------------------------
    1    -759.9472802312      2.69E-02
    2    -759.2070438130      6.29E-03
    3    -759.2211392014      6.68E-03
    4    -759.3311739168      4.30E-04
    5    -759.3322346761      1.43E-04
    6    -759.3324997091      4.74E-05
    7    -759.3325589599      2.81E-05
    8    -759.3325707786      1.58E-05
    9    -759.3325761470      6.69E-06 Convergence criterion met
 ---------------------------------------
 One-Electron    Energy = -1462.4146827174
 Total Coulomb   Energy =   562.9508233438
 Alpha Exchange  Energy =    -4.7953598159
 Beta  Exchange  Energy =    -4.5979356512
 DFT   Exchange  Energy =   -48.6159314360
 DFT Correlation Energy =    -1.6507841384
 Nuclear Repu.   Energy =   199.7912942680
 Nuclear Attr.   Energy = -2221.5854848217
 Kinetic         Energy =   759.1708021042
 <S^2> = 0.7538
 SCF time:  CPU 87.33 s  wall 87.83 s
 Final Alpha MO Eigenvalues
            1           2           3           4           5           6
    1-100.7741608 -24.2224776 -24.2164245 -24.2161977  -9.2797459  -7.1050206
            7           8           9          10          11          12
    1  -7.0960473  -7.0805413  -1.1610816  -1.0719821  -1.0554672  -0.7412209
           13          14          15          16          17          18
    1  -0.4839190  -0.4748120  -0.4193041  -0.3639422  -0.3205540  -0.3160281
           19          20          21          22          23          24
    1  -0.3091254  -0.2719505  -0.2491349  -0.1776214  -0.0344584   0.2560513
           25          26          27          28
    1   0.2648752   0.2755800   0.2924302   0.3693522
 Final Beta MO Eigenvalues
            1           2           3           4           5           6
    1-100.7702058 -24.2153024 -24.2150156 -24.2120682  -9.2757093  -7.1022170
            7           8           9          10          11          12
    1  -7.0865130  -7.0775147  -1.1439278  -1.0691562  -1.0445954  -0.7187001
           13          14          15          16          17          18
    1  -0.4765711  -0.4313720  -0.4071779  -0.3583540  -0.3194576  -0.3032663
           19          20          21          22          23          24
    1  -0.3001918  -0.2621171  -0.2388681  -0.1654257   0.2543913   0.2619316
           25          26          27
    1   0.2668976   0.2769743   0.3382754
 Analysis of SCF Wavefunction
 
 --------------------------------------------------------------
                    Orbital Energies (a.u.)
 --------------------------------------------------------------
 
 Alpha MOs
 -- Occupied --
******* -24.222 -24.216 -24.216  -9.280  -7.105  -7.096  -7.081
 -1.161  -1.072  -1.055  -0.741  -0.484  -0.475  -0.419  -0.364
 -0.321  -0.316  -0.309  -0.272  -0.249  -0.178  -0.034
 -- Virtual --
  0.256   0.265   0.276   0.292   0.369   0.443   0.465   0.484
  0.488   0.506   0.519   0.566   0.570   0.589   0.607   0.625
  0.668   0.672   0.690   0.702   0.723   0.779   0.792   0.994
  1.031   1.328   1.348   1.354   1.358   1.381   1.443   1.459
  1.514   1.518   1.544   1.572   1.574   1.647   1.659   1.662
  1.666   1.672   1.724   1.731   1.789   1.886   2.068   2.243
  2.249   2.342   2.354   2.360   2.375   2.381   2.471   2.501
  2.520   2.527   2.607   2.635   2.664   2.862   3.068   3.125
  3.146   3.192   3.374   3.934   4.611   4.632   4.667   4.692
  4.768   4.858   4.937   5.272   5.285   5.290   5.517   5.664
  6.452   6.460   6.476   6.496   6.507   6.573   6.584   6.712
  6.869   6.911   6.933   6.935   6.940   6.950   6.952   6.957
  6.960   6.963   6.986   6.997   7.005   7.027   7.028   7.046
  7.069   7.072   7.130   7.147   7.212   7.503   9.350   9.356
  9.361   9.408   9.424   9.447   9.493   9.522   9.626   9.705
  9.778   9.795   9.845  10.082  10.210  10.417  20.726  20.960
 21.561  27.336  27.337  27.354  27.394  27.627  36.948  36.956
 36.960  36.963  36.964  36.990  36.996  50.327  50.342  50.356
 50.367  50.369  50.396  50.412  50.436  50.477  50.538  50.540
 50.550  50.552  50.610  50.671  55.817  55.831  55.836  55.854
 55.855  55.904  55.924  55.990  56.157  66.840  66.875  66.914
215.895
 
 Beta MOs
 -- Occupied --
******* -24.215 -24.215 -24.212  -9.276  -7.102  -7.087  -7.078
 -1.144  -1.069  -1.045  -0.719  -0.477  -0.431  -0.407  -0.358
 -0.319  -0.303  -0.300  -0.262  -0.239  -0.165
 -- Virtual --
  0.254   0.262   0.267   0.277   0.338   0.380   0.445   0.473
  0.486   0.488   0.512   0.521   0.567   0.570   0.593   0.611
  0.646   0.674   0.679   0.705   0.721   0.746   0.783   0.798
  0.997   1.054   1.336   1.364   1.369   1.378   1.403   1.452
  1.469   1.523   1.526   1.559   1.576   1.589   1.650   1.660
  1.670   1.676   1.677   1.725   1.733   1.795   1.900   2.074
  2.248   2.263   2.349   2.356   2.363   2.380   2.387   2.473
  2.502   2.525   2.533   2.613   2.639   2.685   2.877   3.082
  3.130   3.149   3.202   3.392   3.938   4.637   4.662   4.692
  4.720   4.782   4.885   4.954   5.281   5.289   5.299   5.527
  5.671   6.458   6.471   6.477   6.497   6.513   6.578   6.592
  6.738   6.873   6.922   6.937   6.940   6.944   6.953   6.954
  6.959   6.962   6.972   6.993   6.998   7.007   7.033   7.035
  7.060   7.079   7.080   7.137   7.161   7.215   7.522   9.358
  9.360   9.367   9.411   9.428   9.455   9.507   9.526   9.661
  9.717   9.780   9.822   9.852  10.101  10.213  10.440  20.730
 20.974  21.565  27.339  27.345  27.362  27.399  27.636  36.951
 36.960  36.963  36.966  36.966  36.995  36.998  50.329  50.344
 50.359  50.369  50.372  50.397  50.422  50.438  50.501  50.540
 50.542  50.556  50.569  50.643  50.673  55.822  55.837  55.838
 55.856  55.861  55.907  55.929  56.012  56.159  66.841  66.885
 66.916 215.900
 --------------------------------------------------------------
 
          Ground-State Mulliken Net Atomic Charges

     Atom                 Charge (a.u.)    Spin (a.u.)
  --------------------------------------------------------
      1 Cl                   -0.057361       0.804368
      2 F                    -0.245106       0.175070
      3 F                    -0.348565       0.009790
      4 F                    -0.348968       0.010772
  --------------------------------------------------------
  Sum of atomic charges =    -1.000000
  Sum of spin   charges =     1.000000

 -----------------------------------------------------------------
                    Cartesian Multipole Moments
 -----------------------------------------------------------------
    Charge (ESU x 10^10)
                -4.8032
    Dipole Moment (Debye)
         X       0.0046      Y       0.0000      Z      -2.0912
       Tot       2.0912
    Quadrupole Moments (Debye-Ang)
        XX     -40.2695     XY       0.0000     YY     -29.8071
        XZ       0.0036     YZ      -0.0013     ZZ     -35.1983
    Octapole Moments (Debye-Ang^2)
       XXX       0.0363    XXY       0.0007    XYY       0.0053
       YYY      -0.0017    XXZ     -10.8560    XYZ       0.0000
       YYZ      -9.7728    XZZ      -0.0017    YZZ       0.0033
       ZZZ     -37.4507
    Hexadecapole Moments (Debye-Ang^3)
      XXXX    -245.1966   XXXY      -0.0001   XXYY     -40.5055
      XYYY       0.0001   YYYY     -30.1552   XXXZ       0.0057
      XXYZ      -0.0007   XYYZ       0.0063   YYYZ      -0.0042
      XXZZ     -55.4140   XYZZ       0.0000   YYZZ     -25.4061
      XZZZ       0.0135   YZZZ      -0.0007   ZZZZ    -136.5802
 -----------------------------------------------------------------
 Total job time:  88.07s(wall), 87.57s(cpu) 
 Mon Jul  8 12:26:47 2013

        *************************************************************
        *                                                           *
        *  Thank you very much for using Q-Chem.  Have a nice day.  *
        *                                                           *
        *************************************************************


0 sent ACK to 0 
now end server 0 ... 
 
**********************************************************************
Job 2 of 3 
**********************************************************************
 
Process 0 of 1 is on cl171.stfx.acenet.ca - thread support 1
initial socket setup ...start
initial socket setup ...done 
now start server 0 ... 

cmd = /usr/bin/ssh clhead /usr/local/qchem/bin/get_hostid 2115277326 > /scratch/tmp/6064790.1.medium.q/qchem32078/lic.dat
                  Welcome to Q-Chem
     A Quantum Leap Into The Future Of Chemistry

 Y. Shao, L. Fusti-Molnar, Y. Jung, J. Kussmann, C. Ochsenfeld,
 S. T. Brown, A. T. B. Gilbert, L. V. Slipchenko,S. V. Levchenko,
 D. P. O'Neill, R. A. DiStasio Jr., R. C. Lochan, T. Wang,
 G. J. O. Beran, N. A. Besley, J. M. Herbert, C. Y. Lin,
 T. Van Voorhis, S. H. Chien, A. Sodt, R. P. Steele, 
 V. A. Rassolov, P. E. Maslen, P. P. Korambath, R. D. Adamson,
 B. Austin, J. Baker, E. F. C. Byrd, H. Dachsel, R. J. Doerksen,
 A. Dreuw, B. D. Dunietz, A. D. Dutoi, T. R. Furlani,
 S. R. Gwaltney, A. Heyden, S. Hirata, C.-P. Hsu, G. Kedziora,
 R. Z. Khaliullin, P. Klunzinger, A. M. Lee, M. S. Lee, W. Liang,
 I. Lotan, N. Nair, B. Peters, E. I. Proynov, P. A. Pieniazek, 
 Y. M. Rhee, J. Ritchie, E. Rosta, C. D. Sherrill, 
 A. C. Simmonett, J. E. Subotnik, H. L. Woodcock III,
 W. Zhang, A. T. Bell, A. K. Chakraborty, D. M. Chipman,
 F. J. Keil, A. Warshel, W. J. Hehre, H. F. Schaefer III,
 J. Kong, A. I. Krylov, P. M. W. Gill, M. Head-Gordon,
 Q-Chem, Version 3.1, Q-Chem, Inc., Pittsburgh, PA (2007).

 Additional authors for Version 3.1: 
 Z. Gan, Y. Zhao, N. E. Schultz, D. Truhlar, E. Epifanovsky and M. Oana.

 Additional authors for Version 3.2: 
 R. Baer, B. R. Brooks, D. Casanova, J.-D. Chai, C.-L. Cheng, 
 C. Cramer, D. Crittenden, A. Ghysels, G. Hawkins, E. G. Hohenstein, 
 C. Kelley, W. Kurlancheek, D. Liotard, E. Livshits, P. Manohar, 
 A. Marenich, D. Neuhauser, R. Olson, M. A. Rohrdanz, K. S. Thanthiriwatte, 
 A. J. W. Thom, V. Vanovschi, C. F. Williams, Q. Wu and Z.-Q. You. 


 Intel X86 Linux Version

 Q-chem begins on Mon Jul  8 12:26:50 2013  

 Parallel job on  1  processors
Processing $rem in /usr/local/qchem/config/preferences.

theFileMan(): MAXOPENFILES=974 MAX_SUB_FILE_NUM=16
Maximum size of a physical file is 2.0 GB, maximum size of a tmp-file is 32.0 GB


--------------------------------------------------------------
User input:
--------------------------------------------------------------

$molecule
0,1
Cl         0.00000        0.00000        0.01854
F          0.00000        0.00000        1.59361
F          1.66516        0.00000        0.10758
F         -1.66516        0.00000        0.10758
$end

$comment
neutral
$end

$xc_functional
C PBE   1.00
X wPBE  1.00
$end


$rem
SYMMETRY_DECOMPOSITION	0
LRC_DFT                 true
exchange 		general
BASIS                   g3large
omega			400
mem_static              760
max_scf_cycles          200
scf_final_print         1
sym_ignore              true
$end

--------------------------------------------------------------
 Writing REM_CC_EA            4
 ----------------------------------------------------
       Standard Nuclear Orientation (Angstroms)
    I     Atom         X            Y            Z
 ----------------------------------------------------
    1      Cl      0.000000     0.000000     0.018540
    2      F       0.000000     0.000000     1.593610
    3      F       1.665160     0.000000     0.107580
    4      F      -1.665160     0.000000     0.107580
 ----------------------------------------------------
 Nuclear Repulsion Energy =   199.7912942687 hartrees
 There are       22 alpha and       22 beta electrons
 Requested basis set is G3large
 There are 49 shells and 192 basis functions

Total QAlloc Memory Limit   2000 MB
Mega-Array Size       743 MB
MEM_STATIC part       760 MB

                       Distance Matrix (Angstroms)
             Cl(  1)   F (  2)   F (  3)
   F (  2)  1.575070
   F (  3)  1.667539  2.231825
   F (  4)  1.667539  2.231825  3.330320
 
 A cutoff of  1.0D-08 yielded   1013 shell pairs
 There are  16002 function pairs ( 21671 Cartesian)
Evaluating contribution to one-electron hamiltonian from nuclear
 Smallest overlap matrix eigenvalue = 1.54E-03
 Multipole matrices computed through 2nd order

  Scale SEOQF with 1.000000e-01/1.000000e-01/1.000000e-01

 Standard Electronic Orientation quadrupole field applied
 Nucleus-field energy     =    -0.0000000007 hartrees
 Guess from superposition of atomic densities
 Warning:  Energy on first SCF cycle will be non-variational
 Long-range K will be added via erf
 Coulomb attenuation parameter = 0.4 bohr**(-1)
 A restricted Kohn-Sham SCF calculation will be
 performed using Pulay DIIS extrapolation
 Exchange:  wPBE + LR-HF      Correlation:  PBE
 Using SG-1 standard quadrature grid
 SCF converges when DIIS error is below 1.0E-05
 Requested basis set is G3large
 There are 49 shells and 192 basis functions
 A cutoff of  1.0D-08 yielded   1013 shell pairs
 There are  16002 function pairs ( 21671 Cartesian)
 ---------------------------------------
  Cycle       Energy         DIIS Error
 ---------------------------------------
    1    -759.9472802312      2.69E-02
    2    -759.1345495239      7.10E-03
    3    -759.1347582875      7.92E-03
    4    -759.2969784929      8.41E-04
    5    -759.2988940224      2.48E-04
    6    -759.2992249202      1.37E-04
    7    -759.2993161362      5.02E-05
    8    -759.2993467589      1.58E-05
    9    -759.2993516185      6.74E-06 Convergence criterion met
 ---------------------------------------
 One-Electron    Energy = -1449.2145942534
 Total Coulomb   Energy =   549.3740888586
 Alpha Exchange  Energy =    -4.6086748956
 Beta  Exchange  Energy =    -4.6086748956
 DFT   Exchange  Energy =   -48.4140318060
 DFT Correlation Energy =    -1.6187588946
 Nuclear Repu.   Energy =   199.7912942680
 Nuclear Attr.   Energy = -2207.4199805818
 Kinetic         Energy =   758.2053863284
 SCF time:  CPU 75.18 s  wall 75.57 s
 Final Alpha MO Eigenvalues
            1           2           3           4           5           6
    1-101.1333937 -24.5679432 -24.4868770 -24.4864542  -9.6311334  -7.4537843
            7           8           9          10          11          12
    1  -7.4502845  -7.4315714  -1.4690377  -1.3376327  -1.3337733  -1.0304182
           13          14          15          16          17          18
    1  -0.7587333  -0.7546700  -0.7122826  -0.6469166  -0.5925474  -0.5766989
           19          20          21          22          23          24
    1  -0.5717925  -0.5444612  -0.5116801  -0.4631597  -0.0325655   0.0583906
           25          26          27
    1   0.0816784   0.1099464   0.1225330
 Analysis of SCF Wavefunction
 
 --------------------------------------------------------------
                    Orbital Energies (a.u.)
 --------------------------------------------------------------
 
 Alpha MOs
 -- Occupied --
******* -24.568 -24.487 -24.486  -9.631  -7.454  -7.450  -7.432
 -1.469  -1.338  -1.334  -1.030  -0.759  -0.755  -0.712  -0.647
 -0.593  -0.577  -0.572  -0.544  -0.512  -0.463
 -- Virtual --
 -0.033   0.058   0.082   0.110   0.123   0.138   0.265   0.271
  0.292   0.295   0.298   0.332   0.374   0.375   0.381   0.389
  0.400   0.405   0.441   0.462   0.481   0.502   0.542   0.565
  0.760   0.772   1.052   1.064   1.071   1.081   1.105   1.162
  1.182   1.232   1.246   1.261   1.324   1.344   1.401   1.401
  1.428   1.430   1.435   1.497   1.500   1.540   1.619   1.813
  1.970   1.988   2.056   2.076   2.095   2.114   2.120   2.217
  2.243   2.246   2.254   2.327   2.370   2.371   2.571   2.787
  2.856   2.884   2.912   3.085   3.671   4.297   4.312   4.355
  4.375   4.459   4.547   4.632   4.941   4.952   4.958   5.192
  5.352   6.147   6.168   6.220   6.239   6.242   6.301   6.305
  6.417   6.589   6.614   6.636   6.644   6.663   6.674   6.696
  6.699   6.700   6.701   6.720   6.734   6.735   6.737   6.753
  6.757   6.780   6.807   6.856   6.859   6.943   7.200   9.048
  9.074   9.093   9.147   9.155   9.158   9.213   9.253   9.317
  9.405   9.500   9.516   9.574   9.798   9.946  10.097  20.378
 20.611  21.217  26.985  26.989  27.004  27.045  27.278  36.596
 36.604  36.606  36.611  36.616  36.636  36.647  50.006  50.037
 50.070  50.074  50.094  50.114  50.122  50.147  50.161  50.242
 50.269  50.270  50.272  50.286  50.401  55.489  55.510  55.566
 55.568  55.587  55.624  55.625  55.679  55.883  66.533  66.571
 66.642 215.538
 --------------------------------------------------------------
 
          Ground-State Mulliken Net Atomic Charges

     Atom                 Charge (a.u.)
  ----------------------------------------
      1 Cl                    0.511133
      2 F                    -0.073591
      3 F                    -0.218877
      4 F                    -0.218665
  ----------------------------------------
  Sum of atomic charges =     0.000000

 -----------------------------------------------------------------
                    Cartesian Multipole Moments
 -----------------------------------------------------------------
    Charge (ESU x 10^10)
                 0.0000
    Dipole Moment (Debye)
         X      -0.0017      Y       0.0000      Z      -0.5947
       Tot       0.5947
    Quadrupole Moments (Debye-Ang)
        XX     -32.5884     XY       0.0001     YY     -26.3556
        XZ      -0.0003     YZ      -0.0002     ZZ     -26.1641
    Octapole Moments (Debye-Ang^2)
       XXX      -0.0031    XXY       0.0010    XYY       0.0008
       YYY       0.0000    XXZ      -9.7257    XYZ       0.0000
       YYZ      -8.6789    XZZ       0.0006    YZZ       0.0013
       ZZZ     -27.4345
    Hexadecapole Moments (Debye-Ang^3)
      XXXX    -203.5475   XXXY       0.0010   XXYY     -35.6943
      XYYY       0.0003   YYYY     -20.9644   XXXZ      -0.0006
      XXYZ      -0.0001   XYYZ       0.0001   YYYZ       0.0000
      XXZZ     -47.6783   XYZZ       0.0000   YYZZ     -19.1290
      XZZZ      -0.0001   YZZZ       0.0018   ZZZZ     -90.9222
 -----------------------------------------------------------------
 Total job time:  75.80s(wall), 75.40s(cpu) 
 Mon Jul  8 12:28:06 2013

        *************************************************************
        *                                                           *
        *  Thank you very much for using Q-Chem.  Have a nice day.  *
        *                                                           *
        *************************************************************


0 sent ACK to 0 
now end server 0 ... 
 
**********************************************************************
Job 3 of 3 
**********************************************************************
 
Process 0 of 1 is on cl171.stfx.acenet.ca - thread support 1
initial socket setup ...start
initial socket setup ...done 
now start server 0 ... 

cmd = /usr/bin/ssh clhead /usr/local/qchem/bin/get_hostid 2015272119 > /scratch/tmp/6064790.1.medium.q/qchem32078/lic.dat
                  Welcome to Q-Chem
     A Quantum Leap Into The Future Of Chemistry

 Y. Shao, L. Fusti-Molnar, Y. Jung, J. Kussmann, C. Ochsenfeld,
 S. T. Brown, A. T. B. Gilbert, L. V. Slipchenko,S. V. Levchenko,
 D. P. O'Neill, R. A. DiStasio Jr., R. C. Lochan, T. Wang,
 G. J. O. Beran, N. A. Besley, J. M. Herbert, C. Y. Lin,
 T. Van Voorhis, S. H. Chien, A. Sodt, R. P. Steele, 
 V. A. Rassolov, P. E. Maslen, P. P. Korambath, R. D. Adamson,
 B. Austin, J. Baker, E. F. C. Byrd, H. Dachsel, R. J. Doerksen,
 A. Dreuw, B. D. Dunietz, A. D. Dutoi, T. R. Furlani,
 S. R. Gwaltney, A. Heyden, S. Hirata, C.-P. Hsu, G. Kedziora,
 R. Z. Khaliullin, P. Klunzinger, A. M. Lee, M. S. Lee, W. Liang,
 I. Lotan, N. Nair, B. Peters, E. I. Proynov, P. A. Pieniazek, 
 Y. M. Rhee, J. Ritchie, E. Rosta, C. D. Sherrill, 
 A. C. Simmonett, J. E. Subotnik, H. L. Woodcock III,
 W. Zhang, A. T. Bell, A. K. Chakraborty, D. M. Chipman,
 F. J. Keil, A. Warshel, W. J. Hehre, H. F. Schaefer III,
 J. Kong, A. I. Krylov, P. M. W. Gill, M. Head-Gordon,
 Q-Chem, Version 3.1, Q-Chem, Inc., Pittsburgh, PA (2007).

 Additional authors for Version 3.1: 
 Z. Gan, Y. Zhao, N. E. Schultz, D. Truhlar, E. Epifanovsky and M. Oana.

 Additional authors for Version 3.2: 
 R. Baer, B. R. Brooks, D. Casanova, J.-D. Chai, C.-L. Cheng, 
 C. Cramer, D. Crittenden, A. Ghysels, G. Hawkins, E. G. Hohenstein, 
 C. Kelley, W. Kurlancheek, D. Liotard, E. Livshits, P. Manohar, 
 A. Marenich, D. Neuhauser, R. Olson, M. A. Rohrdanz, K. S. Thanthiriwatte, 
 A. J. W. Thom, V. Vanovschi, C. F. Williams, Q. Wu and Z.-Q. You. 


 Intel X86 Linux Version

 Q-chem begins on Mon Jul  8 12:28:09 2013  

 Parallel job on  1  processors
Processing $rem in /usr/local/qchem/config/preferences.

theFileMan(): MAXOPENFILES=974 MAX_SUB_FILE_NUM=16
Maximum size of a physical file is 2.0 GB, maximum size of a tmp-file is 32.0 GB


--------------------------------------------------------------
User input:
--------------------------------------------------------------

$molecule
1,2
Cl         0.00000        0.00000        0.01854
F          0.00000        0.00000        1.59361
F          1.66516        0.00000        0.10758
F         -1.66516        0.00000        0.10758
$end

$comment
positive
$end

$xc_functional
C PBE   1.00
X wPBE  1.00
$end

$rem
SYMMETRY_DECOMPOSITION	0
LRC_DFT                 true
exchange 		general
BASIS                   g3large
omega			400
mem_static              760
max_scf_cycles          200
scf_final_print         1
sym_ignore              true
$end

--------------------------------------------------------------
 Writing REM_CC_EA            4
 ----------------------------------------------------
       Standard Nuclear Orientation (Angstroms)
    I     Atom         X            Y            Z
 ----------------------------------------------------
    1      Cl      0.000000     0.000000     0.018540
    2      F       0.000000     0.000000     1.593610
    3      F       1.665160     0.000000     0.107580
    4      F      -1.665160     0.000000     0.107580
 ----------------------------------------------------
 Nuclear Repulsion Energy =   199.7912942687 hartrees
 There are       22 alpha and       21 beta electrons
 Requested basis set is G3large
 There are 49 shells and 192 basis functions

Total QAlloc Memory Limit   2000 MB
Mega-Array Size       743 MB
MEM_STATIC part       760 MB

                       Distance Matrix (Angstroms)
             Cl(  1)   F (  2)   F (  3)
   F (  2)  1.575070
   F (  3)  1.667539  2.231825
   F (  4)  1.667539  2.231825  3.330320
 
 A cutoff of  1.0D-08 yielded   1013 shell pairs
 There are  16002 function pairs ( 21671 Cartesian)
Evaluating contribution to one-electron hamiltonian from nuclear
 Smallest overlap matrix eigenvalue = 1.54E-03
 Multipole matrices computed through 2nd order

  Scale SEOQF with 1.000000e-01/1.000000e-01/1.000000e-01

 Standard Electronic Orientation quadrupole field applied
 Nucleus-field energy     =    -0.0000000007 hartrees
 Guess from superposition of atomic densities
 Warning:  Energy on first SCF cycle will be non-variational
 Long-range K will be added via erf
 Coulomb attenuation parameter = 0.4 bohr**(-1)
 An unrestricted Kohn-Sham SCF calculation will be
 performed using Pulay DIIS extrapolation
 Exchange:  wPBE + LR-HF      Correlation:  PBE
 Using SG-1 standard quadrature grid
 SCF converges when DIIS error is below 1.0E-05
 Requested basis set is G3large
 There are 49 shells and 192 basis functions
 A cutoff of  1.0D-08 yielded   1013 shell pairs
 There are  16002 function pairs ( 21671 Cartesian)
 Warning!  Inaccurate integrated density:
   Number of electrons =    43
   Numerical integral  =    43.999580706626
   Relative error      =     2.3246062945 %
 ---------------------------------------
  Cycle       Energy         DIIS Error
 ---------------------------------------
    1    -759.9472802312      2.69E-02
    2    -758.5470153907      8.24E-03
    3    -758.4691151547      1.10E-02
    4    -758.8169214882      1.78E-03
    5    -758.8248125936      5.98E-04
    6    -758.8260894862      2.79E-04
    7    -758.8266665908      8.97E-05
    8    -758.8269171191      6.77E-05
    9    -758.8270253705      3.62E-05
   10    -758.8271122715      1.50E-05
   11    -758.8271355036      7.77E-06 Convergence criterion met
 ---------------------------------------
 One-Electron    Energy = -1434.9288281492
 Total Coulomb   Energy =   535.0638350475
 Alpha Exchange  Energy =    -4.6212570342
 Beta  Exchange  Energy =    -4.3827593865
 DFT   Exchange  Energy =   -48.1706277694
 DFT Correlation Energy =    -1.5787924798
 Nuclear Repu.   Energy =   199.7912942680
 Nuclear Attr.   Energy = -2192.3124711180
 Kinetic         Energy =   757.3836429687
 <S^2> = 0.7561
 SCF time:  CPU 109.50 s  wall 109.80 s
 Final Alpha MO Eigenvalues
            1           2           3           4           5           6
    1-101.5191336 -24.8815179 -24.8205867 -24.8205005 -10.0062504  -7.8256511
            7           8           9          10          11          12
    1  -7.8218171  -7.8194876  -1.7822070  -1.6549608  -1.6473983  -1.3634350
           13          14          15          16          17          18
    1  -1.0719472  -1.0611772  -1.0431864  -0.9429179  -0.9069049  -0.8996808
           19          20          21          22          23          24
    1  -0.8740273  -0.8453304  -0.8240527  -0.8079615  -0.3460271  -0.2556155
           25          26          27
    1  -0.1126893  -0.0691246  -0.0550627
 Final Beta MO Eigenvalues
            1           2           3           4           5           6
    1-101.5149071 -24.8786985 -24.8141014 -24.8140374 -10.0024969  -7.8234844
            7           8           9          10          11          12
    1  -7.8199016  -7.8076164  -1.7736122  -1.6417670  -1.6358654  -1.3336191
           13          14          15          16          17          18
    1  -1.0638149  -1.0561599  -0.9978507  -0.9394302  -0.8683573  -0.8678956
           19          20          21          22          23          24
    1  -0.8398882  -0.8339880  -0.8126303  -0.4812109  -0.3328899  -0.2444251
           25          26
    1  -0.1110236  -0.0663245
 Analysis of SCF Wavefunction
 
 --------------------------------------------------------------
                    Orbital Energies (a.u.)
 --------------------------------------------------------------
 
 Alpha MOs
 -- Occupied --
******* -24.882 -24.821 -24.821 -10.006  -7.826  -7.822  -7.819
 -1.782  -1.655  -1.647  -1.363  -1.072  -1.061  -1.043  -0.943
 -0.907  -0.900  -0.874  -0.845  -0.824  -0.808
 -- Virtual --
 -0.346  -0.256  -0.113  -0.069  -0.055  -0.044   0.024   0.037
  0.042   0.087   0.087   0.110   0.131   0.141   0.161   0.162
  0.188   0.193   0.211   0.240   0.266   0.275   0.288   0.328
  0.461   0.541   0.736   0.757   0.759   0.790   0.821   0.847
  0.887   0.933   0.934   0.955   1.064   1.094   1.130   1.145
  1.156   1.182   1.182   1.233   1.243   1.283   1.334   1.530
  1.696   1.699   1.725   1.788   1.806   1.815   1.825   1.920
  1.943   1.945   1.968   2.020   2.066   2.073   2.279   2.502
  2.549   2.574   2.615   2.783   3.377   3.941   3.946   4.000
  4.009   4.099   4.219   4.291   4.589   4.595   4.598   4.838
  5.022   5.846   5.867   5.894   5.914   5.933   5.996   6.001
  6.116   6.285   6.316   6.340   6.349   6.363   6.364   6.381
  6.386   6.387   6.388   6.407   6.418   6.430   6.435   6.440
  6.447   6.470   6.490   6.554   6.557   6.631   6.887   8.737
  8.758   8.764   8.819   8.828   8.839   8.903   8.923   9.007
  9.070   9.184   9.195   9.259   9.481   9.628   9.768  19.991
 20.242  20.848  26.605  26.608  26.636  26.660  26.910  36.221
 36.227  36.230  36.235  36.239  36.266  36.275  49.690  49.721
 49.732  49.735  49.759  49.783  49.796  49.822  49.827  49.923
 49.929  49.940  49.951  49.967  50.069  55.173  55.193  55.226
 55.243  55.245  55.299  55.301  55.357  55.553  66.221  66.238
 66.310 215.155
 
 Beta MOs
 -- Occupied --
******* -24.879 -24.814 -24.814 -10.002  -7.823  -7.820  -7.808
 -1.774  -1.642  -1.636  -1.334  -1.064  -1.056  -0.998  -0.939
 -0.868  -0.868  -0.840  -0.834  -0.813
 -- Virtual --
 -0.481  -0.333  -0.244  -0.111  -0.066  -0.055  -0.044   0.044
  0.048   0.066   0.088   0.089   0.111   0.141   0.147   0.162
  0.163   0.188   0.196   0.220   0.240   0.267   0.277   0.302
  0.334   0.465   0.542   0.762   0.765   0.778   0.793   0.826
  0.863   0.893   0.936   0.952   0.967   1.066   1.096   1.136
  1.152   1.170   1.186   1.186   1.246   1.247   1.285   1.342
  1.539   1.699   1.708   1.757   1.795   1.817   1.829   1.833
  1.932   1.948   1.957   1.973   2.024   2.073   2.084   2.287
  2.503   2.554   2.590   2.618   2.789   3.381   3.965   3.982
  4.025   4.046   4.129   4.220   4.305   4.599   4.600   4.605
  4.851   5.024   5.859   5.872   5.923   5.940   5.943   6.002
  6.005   6.120   6.292   6.322   6.348   6.351   6.371   6.375
  6.399   6.401   6.403   6.404   6.421   6.433   6.437   6.442
  6.454   6.458   6.478   6.506   6.557   6.560   6.638   6.892
  8.752   8.776   8.789   8.844   8.853   8.859   8.908   8.949
  9.020   9.079   9.199   9.211   9.264   9.489   9.639   9.773
 20.010  20.244  20.850  26.614  26.617  26.637  26.673  26.911
 36.224  36.231  36.233  36.238  36.242  36.267  36.277  49.699
 49.730  49.750  49.754  49.776  49.797  49.802  49.837  49.841
 49.924  49.945  49.948  49.954  49.970  50.077  55.182  55.196
 55.245  55.247  55.264  55.302  55.304  55.360  55.558  66.224
 66.245  66.317 215.159
 --------------------------------------------------------------
 
          Ground-State Mulliken Net Atomic Charges

     Atom                 Charge (a.u.)    Spin (a.u.)
  --------------------------------------------------------
      1 Cl                    0.821158       0.487511
      2 F                     0.110917       0.085201
      3 F                     0.033892       0.213365
      4 F                     0.034032       0.213922
  --------------------------------------------------------
  Sum of atomic charges =     1.000000
  Sum of spin   charges =     1.000000

 -----------------------------------------------------------------
                    Cartesian Multipole Moments
 -----------------------------------------------------------------
    Charge (ESU x 10^10)
                 4.8032
    Dipole Moment (Debye)
         X      -0.0009      Y       0.0023      Z       0.6877
       Tot       0.6877
    Quadrupole Moments (Debye-Ang)
        XX     -23.2281     XY       0.0001     YY     -23.1911
        XZ      -0.0001     YZ      -0.0045     ZZ     -21.6993
    Octapole Moments (Debye-Ang^2)
       XXX      -0.0029    XXY      -0.0155    XYY      -0.0006
       YYY       0.0019    XXZ      -8.3906    XYZ      -0.0012
       YYZ      -8.2386    XZZ      -0.0002    YZZ      -0.0002
       ZZZ     -21.3778
    Hexadecapole Moments (Debye-Ang^3)
      XXXX    -159.7459   XXXY       0.0003   XXYY     -30.9129
      XYYY       0.0000   YYYY     -16.0566   XXXZ      -0.0001
      XXYZ      -0.0067   XYYZ      -0.0001   YYYZ      -0.0030
      XXZZ     -43.0385   XYZZ      -0.0001   YYZZ     -16.7770
      XZZZ       0.0001   YZZZ      -0.0046   ZZZZ     -74.4286
 -----------------------------------------------------------------
 Total job time:  110.04s(wall), 109.72s(cpu) 
 Mon Jul  8 12:29:59 2013

        *************************************************************
        *                                                           *
        *  Thank you very much for using Q-Chem.  Have a nice day.  *
        *                                                           *
        *************************************************************


0 sent ACK to 0 
now end server 0 ... 
