Process 0 of 1 is on cl198.stfx.acenet.ca - thread support 1
initial socket setup ...start
initial socket setup ...done 
now start server 0 ... 

cmd = /usr/bin/ssh clhead /usr/local/qchem/bin/get_hostid 841099074 > /scratch/tmp/6027824.1.medium.q/qchem2744/lic.dat
                  Welcome to Q-Chem
     A Quantum Leap Into The Future Of Chemistry

 Y. Shao, L. Fusti-Molnar, Y. Jung, J. Kussmann, C. Ochsenfeld,
 S. T. Brown, A. T. B. Gilbert, L. V. Slipchenko,S. V. Levchenko,
 D. P. O'Neill, R. A. DiStasio Jr., R. C. Lochan, T. Wang,
 G. J. O. Beran, N. A. Besley, J. M. Herbert, C. Y. Lin,
 T. Van Voorhis, S. H. Chien, A. Sodt, R. P. Steele, 
 V. A. Rassolov, P. E. Maslen, P. P. Korambath, R. D. Adamson,
 B. Austin, J. Baker, E. F. C. Byrd, H. Dachsel, R. J. Doerksen,
 A. Dreuw, B. D. Dunietz, A. D. Dutoi, T. R. Furlani,
 S. R. Gwaltney, A. Heyden, S. Hirata, C.-P. Hsu, G. Kedziora,
 R. Z. Khaliullin, P. Klunzinger, A. M. Lee, M. S. Lee, W. Liang,
 I. Lotan, N. Nair, B. Peters, E. I. Proynov, P. A. Pieniazek, 
 Y. M. Rhee, J. Ritchie, E. Rosta, C. D. Sherrill, 
 A. C. Simmonett, J. E. Subotnik, H. L. Woodcock III,
 W. Zhang, A. T. Bell, A. K. Chakraborty, D. M. Chipman,
 F. J. Keil, A. Warshel, W. J. Hehre, H. F. Schaefer III,
 J. Kong, A. I. Krylov, P. M. W. Gill, M. Head-Gordon,
 Q-Chem, Version 3.1, Q-Chem, Inc., Pittsburgh, PA (2007).

 Additional authors for Version 3.1: 
 Z. Gan, Y. Zhao, N. E. Schultz, D. Truhlar, E. Epifanovsky and M. Oana.

 Additional authors for Version 3.2: 
 R. Baer, B. R. Brooks, D. Casanova, J.-D. Chai, C.-L. Cheng, 
 C. Cramer, D. Crittenden, A. Ghysels, G. Hawkins, E. G. Hohenstein, 
 C. Kelley, W. Kurlancheek, D. Liotard, E. Livshits, P. Manohar, 
 A. Marenich, D. Neuhauser, R. Olson, M. A. Rohrdanz, K. S. Thanthiriwatte, 
 A. J. W. Thom, V. Vanovschi, C. F. Williams, Q. Wu and Z.-Q. You. 


 Intel X86 Linux Version

 Q-chem begins on Mon Jun  3 17:05:05 2013  

 Parallel job on  1  processors
Processing $rem in /usr/local/qchem/config/preferences.

theFileMan(): MAXOPENFILES=974 MAX_SUB_FILE_NUM=16
Maximum size of a physical file is 2.0 GB, maximum size of a tmp-file is 32.0 GB


--------------------------------------------------------------
User input:
--------------------------------------------------------------

$molecule
-1,1
C
S,1,R
H,1,ch1,2,hcs
X,1,1.,2,alpha,3,180.,0
H,1,ch,4,hch2,3,90.,0
H,1,ch,4,hch2,3,-90.,0

R=1.81256567
ch=1.09351119
hcs=106.82996657
ch1=1.09887196
hch2=55.32746965
alpha=130.50070297

$end

$comment
negative
$end

$xc_functional
C PBE   1.00
X wPBE  1.00
$end

$rem
SYMMETRY_DECOMPOSITION	0
exchange 		general
LRC_DFT                 true
BASIS                   g3large
omega			500
mem_static              760
max_scf_cycles          200
scf_final_print         1
sym_ignore              true
$end

--------------------------------------------------------------
 Writing REM_CC_EA            5
 ----------------------------------------------------
       Standard Nuclear Orientation (Angstroms)
    I     Atom         X            Y            Z
 ----------------------------------------------------
    1      C       0.000000     0.000000     0.000000
    2      S       0.000000     0.000000     1.812566
    3      H       1.051805     0.000000    -0.318159
    4      H      -0.473030     0.899322    -0.404016
    5      H      -0.473030    -0.899322    -0.404016
 ----------------------------------------------------
 Nuclear Repulsion Energy =    48.1227557371 hartrees
 There are       13 alpha and       13 beta electrons
 Requested basis set is G3large
 There are 47 shells and 138 basis functions

Total QAlloc Memory Limit   2000 MB
Mega-Array Size       743 MB
MEM_STATIC part       760 MB

                       Distance Matrix (Angstroms)
             C (  1)   S (  2)   H (  3)   H (  4)
   S (  2)  1.812566
   H (  3)  1.098872  2.376191
   H (  4)  1.093511  2.438395  1.772364
   H (  5)  1.093511  2.438395  1.772364  1.798644
 
 A cutoff of  1.0D-08 yielded   1081 shell pairs
 There are   9436 function pairs ( 12275 Cartesian)
Evaluating contribution to one-electron hamiltonian from nuclear
 Smallest overlap matrix eigenvalue = 4.38E-04
 Multipole matrices computed through 2nd order

  Scale SEOQF with 1.000000e-01/1.000000e-01/1.000000e-01

 Standard Electronic Orientation quadrupole field applied
 Nucleus-field energy     =    -0.0000000055 hartrees
 Guess from superposition of atomic densities
 Warning:  Energy on first SCF cycle will be non-variational
 Long-range K will be added via erf
 Coulomb attenuation parameter = 0.5 bohr**(-1)
 A restricted Kohn-Sham SCF calculation will be
 performed using Pulay DIIS extrapolation
 Exchange:  wPBE + LR-HF      Correlation:  PBE
 Using SG-1 standard quadrature grid
 SCF converges when DIIS error is below 1.0E-05
 Requested basis set is G3large
 There are 47 shells and 138 basis functions
 A cutoff of  1.0D-08 yielded   1081 shell pairs
 There are   9436 function pairs ( 12275 Cartesian)
 Warning!  Inaccurate integrated density:
   Number of electrons =    26
   Numerical integral  =    25.000026025866
   Relative error      =    -3.8460537467 %
 ---------------------------------------
  Cycle       Energy         DIIS Error
 ---------------------------------------
    1    -438.0692181383      2.85E-02
    2    -437.9312321225      4.35E-03
    3    -437.9869912694      2.81E-03
    4    -438.0008945967      3.50E-04
    5    -438.0012952854      9.92E-05
    6    -438.0013676193      2.61E-05
    7    -438.0013725419      1.42E-05
    8    -438.0013731910      3.58E-06 Convergence criterion met
 ---------------------------------------
 One-Electron    Energy =  -705.3114227984
 Total Coulomb   Energy =   251.4792515968
 Alpha Exchange  Energy =    -3.1288820269
 Beta  Exchange  Energy =    -3.1288820269
 DFT   Exchange  Energy =   -25.1119405086
 DFT Correlation Energy =    -0.9222531586
 Nuclear Repu.   Energy =    48.1227557316
 Nuclear Attr.   Energy = -1142.5186784034
 Kinetic         Energy =   437.2072556051
 SCF time:  CPU 37.22 s  wall 37.60 s
 Final Alpha MO Eigenvalues
            1           2           3           4           5           6
    1 -88.0140527  -9.9705707  -7.6514297  -5.6643573  -5.6551597  -5.6550998
            7           8           9          10          11          12
    1  -0.7150059  -0.5301681  -0.3637723  -0.3569831  -0.2349848  -0.0934387
           13          14          15          16          17          18
    1  -0.0917492   0.1640271   0.1896746   0.1924867   0.2362006   0.2748260
 Analysis of SCF Wavefunction
 
 --------------------------------------------------------------
                    Orbital Energies (a.u.)
 --------------------------------------------------------------
 
 Alpha MOs
 -- Occupied --
-88.014  -9.971  -7.651  -5.664  -5.655  -5.655  -0.715  -0.530
 -0.364  -0.357  -0.235  -0.093  -0.092
 -- Virtual --
  0.164   0.190   0.192   0.236   0.275   0.282   0.282   0.307
  0.314   0.326   0.347   0.425   0.425   0.439   0.515   0.590
  0.594   0.625   0.625   0.650   0.681   0.710   0.727   0.744
  0.745   0.852   0.853   0.908   0.927   1.035   1.036   1.054
  1.152   1.226   1.237   1.243   1.287   1.292   1.299   1.302
  1.407   1.430   1.431   1.440   1.444   1.504   1.587   1.588
  1.628   1.638   1.642   1.738   1.751   1.769   1.798   1.806
  1.910   2.261   2.271   2.435   2.793   2.795   2.895   3.270
  3.296   3.357   3.363   3.513   3.529   3.532   3.591   3.613
  3.858   3.880   3.923   3.940   3.951   3.969   3.976   4.037
  4.042   4.165   4.216   4.228   4.344   4.489   4.491   4.668
  4.678   4.680   4.759   5.002   5.002   5.187   5.205   5.363
  5.711   5.953   5.966   8.686  17.473  17.476  17.719  23.814
 23.899  23.949  23.950  23.993  24.362  28.103  28.298  28.321
 31.268  31.269  31.271  31.271  31.276  31.277  31.293  41.198
 41.223  41.431  41.458  41.509 189.237
 --------------------------------------------------------------
 
          Ground-State Mulliken Net Atomic Charges

     Atom                 Charge (a.u.)
  ----------------------------------------
      1 C                    -0.050026
      2 S                    -1.089897
      3 H                     0.054830
      4 H                     0.042538
      5 H                     0.042555
  ----------------------------------------
  Sum of atomic charges =    -1.000000

 -----------------------------------------------------------------
                    Cartesian Multipole Moments
 -----------------------------------------------------------------
    Charge (ESU x 10^10)
                -4.8032
    Dipole Moment (Debye)
         X       0.0429      Y       0.0004      Z      -8.8416
       Tot       8.8417
    Quadrupole Moments (Debye-Ang)
        XX     -27.0372     XY      -0.0005     YY     -26.9261
        XZ       0.1432     YZ       0.0010     ZZ     -42.6548
    Octapole Moments (Debye-Ang^2)
       XXX       0.5215    XXY       0.0009    XYY      -0.6983
       YYY       0.0026    XXZ     -35.2677    XYZ      -0.0016
       YYZ     -35.3226    XZZ       0.0912    YZZ       0.0002
       ZZZ    -118.0732
    Hexadecapole Moments (Debye-Ang^3)
      XXXX     -56.8385   XXXY      -0.0025   XXYY     -19.0503
      XYYY      -0.0025   YYYY     -56.8596   XXXZ       0.3336
      XXYZ       0.0022   XYYZ      -0.0441   YYYZ       0.0066
      XXZZ     -85.0308   XYZZ      -0.0037   YYZZ     -84.7290
      XZZZ       0.7557   YZZZ      -0.0001   ZZZZ    -424.2558
 -----------------------------------------------------------------
 Total job time:  37.77s(wall), 37.38s(cpu) 
 Mon Jun  3 17:05:42 2013

        *************************************************************
        *                                                           *
        *  Thank you very much for using Q-Chem.  Have a nice day.  *
        *                                                           *
        *************************************************************


0 sent ACK to 0 
now end server 0 ... 
 
**********************************************************************
Job 2 of 3 
**********************************************************************
 
Process 0 of 1 is on cl198.stfx.acenet.ca - thread support 1
initial socket setup ...start
initial socket setup ...done 
now start server 0 ... 

cmd = /usr/bin/ssh clhead /usr/local/qchem/bin/get_hostid 479321685 > /scratch/tmp/6027824.1.medium.q/qchem2744/lic.dat
                  Welcome to Q-Chem
     A Quantum Leap Into The Future Of Chemistry

 Y. Shao, L. Fusti-Molnar, Y. Jung, J. Kussmann, C. Ochsenfeld,
 S. T. Brown, A. T. B. Gilbert, L. V. Slipchenko,S. V. Levchenko,
 D. P. O'Neill, R. A. DiStasio Jr., R. C. Lochan, T. Wang,
 G. J. O. Beran, N. A. Besley, J. M. Herbert, C. Y. Lin,
 T. Van Voorhis, S. H. Chien, A. Sodt, R. P. Steele, 
 V. A. Rassolov, P. E. Maslen, P. P. Korambath, R. D. Adamson,
 B. Austin, J. Baker, E. F. C. Byrd, H. Dachsel, R. J. Doerksen,
 A. Dreuw, B. D. Dunietz, A. D. Dutoi, T. R. Furlani,
 S. R. Gwaltney, A. Heyden, S. Hirata, C.-P. Hsu, G. Kedziora,
 R. Z. Khaliullin, P. Klunzinger, A. M. Lee, M. S. Lee, W. Liang,
 I. Lotan, N. Nair, B. Peters, E. I. Proynov, P. A. Pieniazek, 
 Y. M. Rhee, J. Ritchie, E. Rosta, C. D. Sherrill, 
 A. C. Simmonett, J. E. Subotnik, H. L. Woodcock III,
 W. Zhang, A. T. Bell, A. K. Chakraborty, D. M. Chipman,
 F. J. Keil, A. Warshel, W. J. Hehre, H. F. Schaefer III,
 J. Kong, A. I. Krylov, P. M. W. Gill, M. Head-Gordon,
 Q-Chem, Version 3.1, Q-Chem, Inc., Pittsburgh, PA (2007).

 Additional authors for Version 3.1: 
 Z. Gan, Y. Zhao, N. E. Schultz, D. Truhlar, E. Epifanovsky and M. Oana.

 Additional authors for Version 3.2: 
 R. Baer, B. R. Brooks, D. Casanova, J.-D. Chai, C.-L. Cheng, 
 C. Cramer, D. Crittenden, A. Ghysels, G. Hawkins, E. G. Hohenstein, 
 C. Kelley, W. Kurlancheek, D. Liotard, E. Livshits, P. Manohar, 
 A. Marenich, D. Neuhauser, R. Olson, M. A. Rohrdanz, K. S. Thanthiriwatte, 
 A. J. W. Thom, V. Vanovschi, C. F. Williams, Q. Wu and Z.-Q. You. 


 Intel X86 Linux Version

 Q-chem begins on Mon Jun  3 17:05:45 2013  

 Parallel job on  1  processors
Processing $rem in /usr/local/qchem/config/preferences.

theFileMan(): MAXOPENFILES=974 MAX_SUB_FILE_NUM=16
Maximum size of a physical file is 2.0 GB, maximum size of a tmp-file is 32.0 GB


--------------------------------------------------------------
User input:
--------------------------------------------------------------

$molecule
0,2
C
S,1,R
H,1,ch1,2,hcs
X,1,1.,2,alpha,3,180.,0
H,1,ch,4,hch2,3,90.,0
H,1,ch,4,hch2,3,-90.,0

R=1.81256567
ch=1.09351119
hcs=106.82996657
ch1=1.09887196
hch2=55.32746965
alpha=130.50070297

$end

$comment
neutral
$end

$xc_functional
C PBE   1.00
X wPBE  1.00
$end


$rem
SYMMETRY_DECOMPOSITION	0
LRC_DFT                 true
exchange 		general
BASIS                   g3large
omega			500
mem_static              760
max_scf_cycles          200
scf_final_print         1
sym_ignore              true
$end

--------------------------------------------------------------
 Writing REM_CC_EA            5
 ----------------------------------------------------
       Standard Nuclear Orientation (Angstroms)
    I     Atom         X            Y            Z
 ----------------------------------------------------
    1      C       0.000000     0.000000     0.000000
    2      S       0.000000     0.000000     1.812566
    3      H       1.051805     0.000000    -0.318159
    4      H      -0.473030     0.899322    -0.404016
    5      H      -0.473030    -0.899322    -0.404016
 ----------------------------------------------------
 Nuclear Repulsion Energy =    48.1227557371 hartrees
 There are       13 alpha and       12 beta electrons
 Requested basis set is G3large
 There are 47 shells and 138 basis functions

Total QAlloc Memory Limit   2000 MB
Mega-Array Size       743 MB
MEM_STATIC part       760 MB

                       Distance Matrix (Angstroms)
             C (  1)   S (  2)   H (  3)   H (  4)
   S (  2)  1.812566
   H (  3)  1.098872  2.376191
   H (  4)  1.093511  2.438395  1.772364
   H (  5)  1.093511  2.438395  1.772364  1.798644
 
 A cutoff of  1.0D-08 yielded   1081 shell pairs
 There are   9436 function pairs ( 12275 Cartesian)
Evaluating contribution to one-electron hamiltonian from nuclear
 Smallest overlap matrix eigenvalue = 4.38E-04
 Multipole matrices computed through 2nd order

  Scale SEOQF with 1.000000e-01/1.000000e-01/1.000000e-01

 Standard Electronic Orientation quadrupole field applied
 Nucleus-field energy     =    -0.0000000055 hartrees
 Guess from superposition of atomic densities
 Warning:  Energy on first SCF cycle will be non-variational
 Long-range K will be added via erf
 Coulomb attenuation parameter = 0.5 bohr**(-1)
 An unrestricted Kohn-Sham SCF calculation will be
 performed using Pulay DIIS extrapolation
 Exchange:  wPBE + LR-HF      Correlation:  PBE
 Using SG-1 standard quadrature grid
 SCF converges when DIIS error is below 1.0E-05
 Requested basis set is G3large
 There are 47 shells and 138 basis functions
 A cutoff of  1.0D-08 yielded   1081 shell pairs
 There are   9436 function pairs ( 12275 Cartesian)
 ---------------------------------------
  Cycle       Energy         DIIS Error
 ---------------------------------------
    1    -438.0692181383      2.85E-02
    2    -437.9197551326      2.03E-03
    3    -437.9363787544      5.66E-04
    4    -437.9378174435      1.88E-04
    5    -437.9380906086      5.50E-05
    6    -437.9381365293      2.27E-05
    7    -437.9381465958      1.12E-05
    8    -437.9381516219      8.42E-06 Convergence criterion met
 ---------------------------------------
 One-Electron    Energy =  -698.4174355747
 Total Coulomb   Energy =   244.4131450455
 Alpha Exchange  Energy =    -3.1638102121
 Beta  Exchange  Energy =    -2.9400706218
 DFT   Exchange  Energy =   -25.0656114468
 DFT Correlation Energy =    -0.8871245437
 Nuclear Repu.   Energy =    48.1227557316
 Nuclear Attr.   Energy = -1135.5072542850
 Kinetic         Energy =   437.0898187103
 <S^2> = 0.7575
 SCF time:  CPU 44.50 s  wall 44.89 s
 Final Alpha MO Eigenvalues
            1           2           3           4           5           6
    1 -88.3321378 -10.1932524  -7.9679494  -5.9850509  -5.9761509  -5.9662364
            7           8           9          10          11          12
    1  -0.9731386  -0.8066124  -0.5927784  -0.5809536  -0.5019732  -0.4249553
           13          14          15          16          17          18
    1  -0.3750751   0.0382689   0.0679879   0.0705087   0.0806337   0.1252925
 Final Beta MO Eigenvalues
            1           2           3           4           5           6
    1 -88.3274083 -10.1935370  -7.9633571  -5.9736343  -5.9719538  -5.9628254
            7           8           9          10          11          12
    1  -0.9515637  -0.7674030  -0.5809956  -0.5719849  -0.4910138  -0.3620025
           13          14          15          16          17
    1  -0.0360074   0.0388613   0.0688819   0.0707395   0.0834184
 Analysis of SCF Wavefunction
 
 --------------------------------------------------------------
                    Orbital Energies (a.u.)
 --------------------------------------------------------------
 
 Alpha MOs
 -- Occupied --
-88.332 -10.193  -7.968  -5.985  -5.976  -5.966  -0.973  -0.807
 -0.593  -0.581  -0.502  -0.425  -0.375
 -- Virtual --
  0.038   0.068   0.071   0.081   0.125   0.126   0.131   0.150
  0.155   0.158   0.188   0.213   0.244   0.248   0.331   0.339
  0.350   0.373   0.388   0.442   0.465   0.496   0.516   0.520
  0.536   0.653   0.659   0.688   0.738   0.805   0.812   0.829
  0.934   0.976   0.980   0.990   1.023   1.032   1.043   1.046
  1.131   1.136   1.155   1.216   1.225   1.291   1.337   1.349
  1.385   1.393   1.410   1.513   1.523   1.538   1.580   1.590
  1.702   1.953   1.991   2.166   2.572   2.577   2.677   3.052
  3.056   3.119   3.129   3.276   3.294   3.313   3.357   3.382
  3.603   3.614   3.630   3.656   3.657   3.664   3.694   3.742
  3.769   3.923   3.989   3.996   4.086   4.264   4.266   4.444
  4.452   4.455   4.538   4.681   4.682   4.882   4.914   5.137
  5.425   5.735   5.747   8.375  17.144  17.165  17.409  23.491
 23.577  23.627  23.641  23.683  24.137  27.878  28.076  28.099
 30.947  30.949  30.953  30.955  30.957  30.970  30.983  40.974
 41.001  41.209  41.235  41.286 188.920
 
 Beta MOs
 -- Occupied --
-88.327 -10.194  -7.963  -5.974  -5.972  -5.963  -0.952  -0.767
 -0.581  -0.572  -0.491  -0.362
 -- Virtual --
 -0.036   0.039   0.069   0.071   0.083   0.128   0.132   0.135
  0.153   0.159   0.162   0.189   0.221   0.249   0.250   0.348
  0.363   0.371   0.402   0.409   0.449   0.470   0.519   0.523
  0.532   0.540   0.657   0.659   0.695   0.739   0.813   0.818
  0.835   0.943   0.990   1.000   1.001   1.044   1.049   1.056
  1.065   1.164   1.167   1.171   1.221   1.229   1.296   1.351
  1.356   1.397   1.404   1.417   1.519   1.528   1.544   1.585
  1.592   1.704   1.994   2.003   2.173   2.576   2.579   2.680
  3.053   3.059   3.124   3.130   3.282   3.296   3.314   3.362
  3.386   3.632   3.655   3.656   3.667   3.690   3.692   3.697
  3.770   3.773   3.928   3.991   3.999   4.092   4.268   4.270
  4.448   4.456   4.457   4.540   4.696   4.697   4.895   4.919
  5.140   5.433   5.738   5.750   8.385  17.164  17.171  17.412
 23.502  23.587  23.637  23.643  23.687  24.137  27.878  28.075
 28.099  30.952  30.954  30.957  30.958  30.961  30.971  30.985
 40.974  41.001  41.208  41.234  41.286 188.925
 --------------------------------------------------------------
 
          Ground-State Mulliken Net Atomic Charges

     Atom                 Charge (a.u.)    Spin (a.u.)
  --------------------------------------------------------
      1 C                    -0.033785      -0.040441
      2 S                    -0.222623       0.989086
      3 H                     0.088631       0.018781
      4 H                     0.082975       0.004597
      5 H                     0.084802       0.027977
  --------------------------------------------------------
  Sum of atomic charges =     0.000000
  Sum of spin   charges =     1.000000

 -----------------------------------------------------------------
                    Cartesian Multipole Moments
 -----------------------------------------------------------------
    Charge (ESU x 10^10)
                 0.0000
    Dipole Moment (Debye)
         X       0.0445      Y      -0.0382      Z      -1.7266
       Tot       1.7276
    Quadrupole Moments (Debye-Ang)
        XX     -20.2468     XY       1.2738     YY     -20.3056
        XZ       0.0590     YZ       0.0754     ZZ     -23.0992
    Octapole Moments (Debye-Ang^2)
       XXX       0.7209    XXY      -0.0093    XYY      -0.8919
       YYY      -0.0173    XXZ     -24.2627    XYZ       2.3222
       YYZ     -24.7257    XZZ      -0.1137    YZZ      -0.0616
       ZZZ     -71.6503
    Hexadecapole Moments (Debye-Ang^3)
      XXXX     -31.5549   XXXY       1.6438   XXYY     -10.7395
      XYYY       1.6715   YYYY     -32.1240   XXXZ      -0.3920
      XXYZ       0.0507   XYYZ       0.3510   YYYZ       0.1665
      XXZZ     -55.3597   XYZZ       5.0254   YYZZ     -55.8872
      XZZZ       0.0888   YZZZ      -0.0800   ZZZZ    -284.5946
 -----------------------------------------------------------------
 Total job time:  45.04s(wall), 44.64s(cpu) 
 Mon Jun  3 17:06:30 2013

        *************************************************************
        *                                                           *
        *  Thank you very much for using Q-Chem.  Have a nice day.  *
        *                                                           *
        *************************************************************


0 sent ACK to 0 
now end server 0 ... 
 
**********************************************************************
Job 3 of 3 
**********************************************************************
 
Process 0 of 1 is on cl198.stfx.acenet.ca - thread support 1
initial socket setup ...start
initial socket setup ...done 
now start server 0 ... 

cmd = /usr/bin/ssh clhead /usr/local/qchem/bin/get_hostid 1217302242 > /scratch/tmp/6027824.1.medium.q/qchem2744/lic.dat
                  Welcome to Q-Chem
     A Quantum Leap Into The Future Of Chemistry

 Y. Shao, L. Fusti-Molnar, Y. Jung, J. Kussmann, C. Ochsenfeld,
 S. T. Brown, A. T. B. Gilbert, L. V. Slipchenko,S. V. Levchenko,
 D. P. O'Neill, R. A. DiStasio Jr., R. C. Lochan, T. Wang,
 G. J. O. Beran, N. A. Besley, J. M. Herbert, C. Y. Lin,
 T. Van Voorhis, S. H. Chien, A. Sodt, R. P. Steele, 
 V. A. Rassolov, P. E. Maslen, P. P. Korambath, R. D. Adamson,
 B. Austin, J. Baker, E. F. C. Byrd, H. Dachsel, R. J. Doerksen,
 A. Dreuw, B. D. Dunietz, A. D. Dutoi, T. R. Furlani,
 S. R. Gwaltney, A. Heyden, S. Hirata, C.-P. Hsu, G. Kedziora,
 R. Z. Khaliullin, P. Klunzinger, A. M. Lee, M. S. Lee, W. Liang,
 I. Lotan, N. Nair, B. Peters, E. I. Proynov, P. A. Pieniazek, 
 Y. M. Rhee, J. Ritchie, E. Rosta, C. D. Sherrill, 
 A. C. Simmonett, J. E. Subotnik, H. L. Woodcock III,
 W. Zhang, A. T. Bell, A. K. Chakraborty, D. M. Chipman,
 F. J. Keil, A. Warshel, W. J. Hehre, H. F. Schaefer III,
 J. Kong, A. I. Krylov, P. M. W. Gill, M. Head-Gordon,
 Q-Chem, Version 3.1, Q-Chem, Inc., Pittsburgh, PA (2007).

 Additional authors for Version 3.1: 
 Z. Gan, Y. Zhao, N. E. Schultz, D. Truhlar, E. Epifanovsky and M. Oana.

 Additional authors for Version 3.2: 
 R. Baer, B. R. Brooks, D. Casanova, J.-D. Chai, C.-L. Cheng, 
 C. Cramer, D. Crittenden, A. Ghysels, G. Hawkins, E. G. Hohenstein, 
 C. Kelley, W. Kurlancheek, D. Liotard, E. Livshits, P. Manohar, 
 A. Marenich, D. Neuhauser, R. Olson, M. A. Rohrdanz, K. S. Thanthiriwatte, 
 A. J. W. Thom, V. Vanovschi, C. F. Williams, Q. Wu and Z.-Q. You. 


 Intel X86 Linux Version

 Q-chem begins on Mon Jun  3 17:06:33 2013  

 Parallel job on  1  processors
Processing $rem in /usr/local/qchem/config/preferences.

theFileMan(): MAXOPENFILES=974 MAX_SUB_FILE_NUM=16
Maximum size of a physical file is 2.0 GB, maximum size of a tmp-file is 32.0 GB


--------------------------------------------------------------
User input:
--------------------------------------------------------------

$molecule
1,3
C
S,1,R
H,1,ch1,2,hcs
X,1,1.,2,alpha,3,180.,0
H,1,ch,4,hch2,3,90.,0
H,1,ch,4,hch2,3,-90.,0

R=1.81256567
ch=1.09351119
hcs=106.82996657
ch1=1.09887196
hch2=55.32746965
alpha=130.50070297

$end

$comment
positive
$end

$xc_functional
C PBE   1.00
X wPBE  1.00
$end

$rem
SYMMETRY_DECOMPOSITION	0
LRC_DFT                 true
exchange 		general
BASIS                   g3large
omega			500
mem_static              760
max_scf_cycles          200
scf_final_print         1
sym_ignore              true
$end

--------------------------------------------------------------
 Writing REM_CC_EA            5
 ----------------------------------------------------
       Standard Nuclear Orientation (Angstroms)
    I     Atom         X            Y            Z
 ----------------------------------------------------
    1      C       0.000000     0.000000     0.000000
    2      S       0.000000     0.000000     1.812566
    3      H       1.051805     0.000000    -0.318159
    4      H      -0.473030     0.899322    -0.404016
    5      H      -0.473030    -0.899322    -0.404016
 ----------------------------------------------------
 Nuclear Repulsion Energy =    48.1227557371 hartrees
 There are       13 alpha and       11 beta electrons
 Requested basis set is G3large
 There are 47 shells and 138 basis functions

Total QAlloc Memory Limit   2000 MB
Mega-Array Size       743 MB
MEM_STATIC part       760 MB

                       Distance Matrix (Angstroms)
             C (  1)   S (  2)   H (  3)   H (  4)
   S (  2)  1.812566
   H (  3)  1.098872  2.376191
   H (  4)  1.093511  2.438395  1.772364
   H (  5)  1.093511  2.438395  1.772364  1.798644
 
 A cutoff of  1.0D-08 yielded   1081 shell pairs
 There are   9436 function pairs ( 12275 Cartesian)
Evaluating contribution to one-electron hamiltonian from nuclear
 Smallest overlap matrix eigenvalue = 4.38E-04
 Multipole matrices computed through 2nd order

  Scale SEOQF with 1.000000e-01/1.000000e-01/1.000000e-01

 Standard Electronic Orientation quadrupole field applied
 Nucleus-field energy     =    -0.0000000055 hartrees
 Guess from superposition of atomic densities
 Warning:  Energy on first SCF cycle will be non-variational
 Long-range K will be added via erf
 Coulomb attenuation parameter = 0.5 bohr**(-1)
 An unrestricted Kohn-Sham SCF calculation will be
 performed using Pulay DIIS extrapolation
 Exchange:  wPBE + LR-HF      Correlation:  PBE
 Using SG-1 standard quadrature grid
 SCF converges when DIIS error is below 1.0E-05
 Requested basis set is G3large
 There are 47 shells and 138 basis functions
 A cutoff of  1.0D-08 yielded   1081 shell pairs
 There are   9436 function pairs ( 12275 Cartesian)
 Warning!  Inaccurate integrated density:
   Number of electrons =    24
   Numerical integral  =    25.000026025866
   Relative error      =     4.1667751078 %
 ---------------------------------------
  Cycle       Energy         DIIS Error
 ---------------------------------------
    1    -438.0692181383      2.85E-02
    2    -437.5194440535      3.26E-03
    3    -437.5787045500      1.56E-03
    4    -437.5884986561      4.75E-04
    5    -437.5924685951      2.39E-04
    6    -437.5936726801      1.14E-04
    7    -437.5939243530      3.22E-05
    8    -437.5939584734      7.59E-06 Convergence criterion met
 ---------------------------------------
 One-Electron    Energy =  -690.5109563054
 Total Coulomb   Energy =   236.5464220100
 Alpha Exchange  Energy =    -3.1896890455
 Beta  Exchange  Energy =    -2.7294909874
 DFT   Exchange  Energy =   -24.9859781249
 DFT Correlation Energy =    -0.8470217519
 Nuclear Repu.   Energy =    48.1227557316
 Nuclear Attr.   Energy = -1127.2552236690
 Kinetic         Energy =   436.7442673636
 <S^2> = 2.0109
 SCF time:  CPU 44.72 s  wall 45.15 s
 Final Alpha MO Eigenvalues
            1           2           3           4           5           6
    1 -88.7122152 -10.4461917  -8.3419629  -6.3552972  -6.3551659  -6.3442183
            7           8           9          10          11          12
    1  -1.2892252  -1.0953286  -0.8537254  -0.8510675  -0.8000413  -0.7351282
           13          14          15          16          17          18
    1  -0.7311652  -0.1393607  -0.1086947  -0.0727006  -0.0726469  -0.0523902
 Final Beta MO Eigenvalues
            1           2           3           4           5           6
    1 -88.7017096 -10.4463885  -8.3318297  -6.3386239  -6.3370662  -6.3369782
            7           8           9          10          11          12
    1  -1.2239932  -1.0304441  -0.8170063  -0.8113527  -0.7788904  -0.3244030
           13          14          15          16
    1  -0.3232034  -0.1194073  -0.1019565  -0.0694078
 Analysis of SCF Wavefunction
 
 --------------------------------------------------------------
                    Orbital Energies (a.u.)
 --------------------------------------------------------------
 
 Alpha MOs
 -- Occupied --
-88.712 -10.446  -8.342  -6.355  -6.355  -6.344  -1.289  -1.095
 -0.854  -0.851  -0.800  -0.735  -0.731
 -- Virtual --
 -0.139  -0.109  -0.073  -0.073  -0.052  -0.035  -0.031  -0.030
 -0.022  -0.022   0.029   0.041   0.050   0.052   0.056   0.058
  0.123   0.130   0.171   0.223   0.238   0.265   0.266   0.316
  0.330   0.446   0.447   0.451   0.539   0.562   0.568   0.583
  0.676   0.697   0.707   0.713   0.733   0.735   0.761   0.793
  0.798   0.801   0.885   0.987   0.995   1.053   1.076   1.086
  1.118   1.144   1.157   1.274   1.276   1.285   1.354   1.357
  1.480   1.643   1.652   1.865   2.330   2.332   2.437   2.784
  2.809   2.856   2.863   2.997   3.049   3.067   3.090   3.117
  3.221   3.234   3.304   3.310   3.368   3.403   3.419   3.443
  3.444   3.640   3.736   3.739   3.810   4.014   4.014   4.197
  4.198   4.200   4.289   4.312   4.313   4.545   4.573   4.879
  5.103   5.491   5.502   8.013  16.775  16.778  17.044  23.110
 23.196  23.261  23.261  23.315  23.882  27.623  27.823  27.847
 30.570  30.571  30.583  30.583  30.593  30.594  30.614  40.720
 40.749  40.956  40.981  41.033 188.541
 
 Beta MOs
 -- Occupied --
-88.702 -10.446  -8.332  -6.339  -6.337  -6.337  -1.224  -1.030
 -0.817  -0.811  -0.779
 -- Virtual --
 -0.324  -0.323  -0.119  -0.102  -0.069  -0.069  -0.044  -0.028
 -0.022  -0.019  -0.015  -0.012   0.030   0.045   0.063   0.064
  0.115   0.118   0.167   0.171   0.176   0.238   0.246   0.299
  0.300   0.321   0.335   0.452   0.452   0.463   0.543   0.575
  0.581   0.596   0.708   0.731   0.739   0.739   0.772   0.775
  0.790   0.820   0.866   0.867   0.905   0.996   1.004   1.067
  1.096   1.106   1.137   1.162   1.175   1.282   1.287   1.297
  1.359   1.363   1.485   1.698   1.707   1.879   2.337   2.339
  2.445   2.792   2.813   2.863   2.869   3.009   3.054   3.071
  3.105   3.131   3.331   3.343   3.366   3.375   3.383   3.408
  3.435   3.470   3.473   3.654   3.741   3.745   3.820   4.023
  4.024   4.205   4.207   4.210   4.299   4.344   4.344   4.563
  4.590   4.888   5.120   5.499   5.510   8.033  16.804  16.807
 17.051  23.134  23.218  23.274  23.275  23.326  23.883  27.622
 27.823  27.847  30.580  30.580  30.589  30.589  30.599  30.599
 30.618  40.719  40.749  40.956  40.981  41.034 188.553
 --------------------------------------------------------------
 
          Ground-State Mulliken Net Atomic Charges

     Atom                 Charge (a.u.)    Spin (a.u.)
  --------------------------------------------------------
      1 C                     0.062598      -0.057281
      2 S                     0.513238       1.930220
      3 H                     0.142316       0.044937
      4 H                     0.140969       0.041528
      5 H                     0.140879       0.040595
  --------------------------------------------------------
  Sum of atomic charges =     1.000000
  Sum of spin   charges =     2.000000

 -----------------------------------------------------------------
                    Cartesian Multipole Moments
 -----------------------------------------------------------------
    Charge (ESU x 10^10)
                 4.8032
    Dipole Moment (Debye)
         X       0.0601      Y       0.0002      Z       4.6912
       Tot       4.6915
    Quadrupole Moments (Debye-Ang)
        XX     -15.7422     XY       0.0000     YY     -15.5967
        XZ       0.0222     YZ       0.0000     ZZ      -6.3600
    Octapole Moments (Debye-Ang^2)
       XXX       1.1130    XXY       0.0001    XYY      -1.1949
       YYY       0.0004    XXZ     -18.2734    XYZ       0.0006
       YYZ     -18.4403    XZZ      -0.2297    YZZ       0.0001
       ZZZ     -35.4553
    Hexadecapole Moments (Debye-Ang^3)
      XXXX     -20.8153   XXXY       0.0000   XXYY      -7.1066
      XYYY       0.0000   YYYY     -20.8930   XXXZ      -0.7336
      XXYZ       0.0000   XYYZ       0.6110   YYYZ       0.0001
      XXZZ     -39.6870   XYZZ       0.0007   YYZZ     -39.4697
      XZZZ      -0.2084   YZZZ      -0.0003   ZZZZ    -187.5136
 -----------------------------------------------------------------
 Total job time:  45.30s(wall), 44.87s(cpu) 
 Mon Jun  3 17:07:18 2013

        *************************************************************
        *                                                           *
        *  Thank you very much for using Q-Chem.  Have a nice day.  *
        *                                                           *
        *************************************************************


0 sent ACK to 0 
now end server 0 ... 
