Process 0 of 1 is on cl189.stfx.acenet.ca - thread support 1
initial socket setup ...start
initial socket setup ...done 
now start server 0 ... 

cmd = /usr/bin/ssh clhead /usr/local/qchem/bin/get_hostid 146745089 > /globalscratch/itamblyn/bnl/g297_b3lyp_neut_g03Large_worked/g2g71068/omega470/qchem17127/lic.dat
                  Welcome to Q-Chem
     A Quantum Leap Into The Future Of Chemistry

 Y. Shao, L. Fusti-Molnar, Y. Jung, J. Kussmann, C. Ochsenfeld,
 S. T. Brown, A. T. B. Gilbert, L. V. Slipchenko,S. V. Levchenko,
 D. P. O'Neill, R. A. DiStasio Jr., R. C. Lochan, T. Wang,
 G. J. O. Beran, N. A. Besley, J. M. Herbert, C. Y. Lin,
 T. Van Voorhis, S. H. Chien, A. Sodt, R. P. Steele, 
 V. A. Rassolov, P. E. Maslen, P. P. Korambath, R. D. Adamson,
 B. Austin, J. Baker, E. F. C. Byrd, H. Dachsel, R. J. Doerksen,
 A. Dreuw, B. D. Dunietz, A. D. Dutoi, T. R. Furlani,
 S. R. Gwaltney, A. Heyden, S. Hirata, C.-P. Hsu, G. Kedziora,
 R. Z. Khaliullin, P. Klunzinger, A. M. Lee, M. S. Lee, W. Liang,
 I. Lotan, N. Nair, B. Peters, E. I. Proynov, P. A. Pieniazek, 
 Y. M. Rhee, J. Ritchie, E. Rosta, C. D. Sherrill, 
 A. C. Simmonett, J. E. Subotnik, H. L. Woodcock III,
 W. Zhang, A. T. Bell, A. K. Chakraborty, D. M. Chipman,
 F. J. Keil, A. Warshel, W. J. Hehre, H. F. Schaefer III,
 J. Kong, A. I. Krylov, P. M. W. Gill, M. Head-Gordon,
 Q-Chem, Version 3.1, Q-Chem, Inc., Pittsburgh, PA (2007).

 Additional authors for Version 3.1: 
 Z. Gan, Y. Zhao, N. E. Schultz, D. Truhlar, E. Epifanovsky and M. Oana.

 Additional authors for Version 3.2: 
 R. Baer, B. R. Brooks, D. Casanova, J.-D. Chai, C.-L. Cheng, 
 C. Cramer, D. Crittenden, A. Ghysels, G. Hawkins, E. G. Hohenstein, 
 C. Kelley, W. Kurlancheek, D. Liotard, E. Livshits, P. Manohar, 
 A. Marenich, D. Neuhauser, R. Olson, M. A. Rohrdanz, K. S. Thanthiriwatte, 
 A. J. W. Thom, V. Vanovschi, C. F. Williams, Q. Wu and Z.-Q. You. 


 Intel X86 Linux Version

 Q-chem begins on Fri Apr 15 15:39:17 2011  

 Parallel job on  1  processors
Processing $rem in /usr/local/qchem/config/preferences.

theFileMan(): MAXOPENFILES=974 MAX_SUB_FILE_NUM=16
Maximum size of a physical file is 2.0 GB, maximum size of a tmp-file is 32.0 GB


--------------------------------------------------------------
User input:
--------------------------------------------------------------

$molecule
-1,2
P
X,1,1.
F,1,R,2,BETA
F,1,R,2,BETA,3,120.,0
F,1,R,2,BETA,3,-120.,0

 R=1.59590817
 BETA=119.63603689

$end

$comment
negative
$end

$xc_functional
   X HF 1.0
   X BNL 1.0
   C LYP 1.0
$end

$rem
SYMMETRY_DECOMPOSITION	0
exchange 		general
BASIS                   g3large
omega			470
separate_jk		true
mem_static              760
max_scf_cycles          200
scf_final_print         1
sym_ignore              true
$end

--------------------------------------------------------------
 Writing REM_CC_EA            4
 ----------------------------------------------------
       Standard Nuclear Orientation (Angstroms)
    I     Atom         X            Y            Z
 ----------------------------------------------------
    1      P       0.000000     0.000000     0.000000
    2      F       1.387138     0.000000    -0.789158
    3      F      -0.693569    -1.201297    -0.789158
    4      F      -0.693569     1.201297    -0.789158
 ----------------------------------------------------
 Nuclear Repulsion Energy =   187.8127743189 hartrees
 There are       22 alpha and       21 beta electrons
 Requested basis set is G3large
 There are 49 shells and 192 basis functions

Total QAlloc Memory Limit   2000 MB
Mega-Array Size       743 MB
MEM_STATIC part       760 MB

                       Distance Matrix (Angstroms)
             P (  1)   F (  2)   F (  3)
   F (  2)  1.595908
   F (  3)  1.595908  2.402593
   F (  4)  1.595908  2.402593  2.402593
 
 A cutoff of  1.0D-08 yielded   1045 shell pairs
 There are  16558 function pairs ( 22363 Cartesian)
Evaluating contribution to one-electron hamiltonian from nuclear
 Smallest overlap matrix eigenvalue = 8.06E-04
 Multipole matrices computed through 2nd order

  Scale SEOQF with 1.000000e-01/1.000000e-01/1.000000e-01

 Standard Electronic Orientation quadrupole field applied
 Nucleus-field energy     =     0.0000000010 hartrees
 Guess from superposition of atomic densities
 Warning:  Energy on first SCF cycle will be non-variational
 An unrestricted hybrid HF-DFT SCF calculation will be
 performed using Pulay DIIS extrapolation
 Exchange:     1.0000 Hartree-Fock + 1.0000 BNL
 Correlation:  1.0000 LYP
 Using SG-1 standard quadrature grid
 SCF converges when DIIS error is below 1.0E-05
 Warning!  Inaccurate integrated density:
   Number of electrons =    43
   Numerical integral  =    41.999939709209
   Relative error      =    -2.3257216065 %
 ---------------------------------------
  Cycle       Energy         DIIS Error
 ---------------------------------------
    1    -637.6073243803      2.95E-02
    2    -637.1474199811      5.27E-03
    3    -637.1684901156      5.28E-03
    4    -637.2324038508      4.20E-04
    5    -637.2333262459      1.30E-04
    6    -637.2335825192      4.87E-05
    7    -637.2336766449      4.47E-05
    8    -637.2337301600      2.22E-05
    9    -637.2337735434      1.01E-05
   10    -637.2337855422      4.68E-06 Convergence criterion met
 ---------------------------------------
 One-Electron    Energy = -1271.3275048349
 Total Coulomb   Energy =   497.1839399988
 Alpha Exchange  Energy =    -5.1875688959
 Beta  Exchange  Energy =    -5.0565943885
 DFT   Exchange  Energy =   -38.9904983696
 DFT Correlation Energy =    -1.6683333720
 Nuclear Repu.   Energy =   187.8127743199
 Nuclear Attr.   Energy = -1907.2017248526
 Kinetic         Energy =   635.8742200178
 <S^2> = 0.7532
 SCF time:  CPU 110.47 s  wall 126.96 s
 Final Alpha MO Eigenvalues
            1           2           3           4           5           6
    1 -76.1546620 -24.1476765 -24.1463192 -24.1441260  -6.4397084  -4.6821575
            7           8           9          10          11          12
    1  -4.6790391  -4.6740641  -1.2217158  -1.1666593  -1.1647977  -0.6324999
           13          14          15          16          17          18
    1  -0.5148118  -0.5142620  -0.4855348  -0.4447104  -0.4445408  -0.4025619
           19          20          21          22          23          24
    1  -0.4013382  -0.3883925  -0.2495864   0.0391350   0.1942754   0.1958111
           25          26          27
    1   0.2069156   0.2490414   0.2940851
 Final Beta MO Eigenvalues
            1           2           3           4           5           6
    1 -76.1535279 -24.1461748 -24.1447765 -24.1423628  -6.4383279  -4.6810589
            7           8           9          10          11          12
    1  -4.6758688  -4.6732845  -1.2189015  -1.1640898  -1.1615186  -0.6274284
           13          14          15          16          17          18
    1  -0.5123716  -0.5083108  -0.4810564  -0.4407394  -0.4403740  -0.4010989
           19          20          21          22          23          24
    1  -0.3971150  -0.3833575  -0.2312654   0.1869696   0.1899219   0.1955029
           25          26
    1   0.2000859   0.2948329
 Analysis of SCF Wavefunction
 
 --------------------------------------------------------------
                    Orbital Energies (a.u.)
 --------------------------------------------------------------
 
 Alpha MOs
 -- Occupied --
-76.155 -24.148 -24.146 -24.144  -6.440  -4.682  -4.679  -4.674
 -1.222  -1.167  -1.165  -0.632  -0.515  -0.514  -0.486  -0.445
 -0.445  -0.403  -0.401  -0.388  -0.250   0.039
 -- Virtual --
  0.194   0.196   0.207   0.249   0.294   0.396   0.425   0.426
  0.438   0.440   0.451   0.485   0.508   0.511   0.520   0.533
  0.537   0.540   0.561   0.590   0.591   0.651   0.690   0.691
  0.842   0.847   0.940   1.084   1.086   1.089   1.106   1.195
  1.202   1.203   1.233   1.236   1.309   1.312   1.326   1.619
  1.621   1.624   1.644   1.644   1.658   1.667   1.692   1.696
  1.741   1.951   1.957   2.174   2.175   2.285   2.292   2.292
  2.401   2.402   2.433   2.522   2.544   2.544   2.577   2.675
  2.822   2.823   3.011   3.093   3.095   3.142   3.290   3.294
  3.328   3.560   3.560   3.790   4.434   4.437   4.442   4.989
  4.991   6.385   6.407   6.408   6.473   6.475   6.478   6.480
  6.682   6.684   6.867   6.884   6.886   6.899   6.914   6.915
  6.922   6.926   6.926   6.932   6.945   6.946   6.948   6.965
  6.967   7.030   7.079   7.128   7.129   7.363   7.364   7.815
  9.303   9.304   9.346   9.393   9.394   9.455   9.513   9.518
  9.519   9.661   9.773   9.774  10.053  10.054  10.130  13.404
 13.639  13.642  21.571  21.624  21.728  21.991  22.045  28.401
 28.414  28.422  28.427  28.471  28.472  28.474  50.230  50.243
 50.262  50.284  50.301  50.304  50.350  50.352  50.363  50.390
 50.418  50.448  50.555  50.584  50.597  55.900  55.905  55.906
 55.945  55.946  55.947  56.004  56.072  56.074  67.144  67.146
 67.241 164.528
 
 Beta MOs
 -- Occupied --
-76.154 -24.146 -24.145 -24.142  -6.438  -4.681  -4.676  -4.673
 -1.219  -1.164  -1.162  -0.627  -0.512  -0.508  -0.481  -0.441
 -0.440  -0.401  -0.397  -0.383  -0.231
 -- Virtual --
  0.187   0.190   0.196   0.200   0.295   0.313   0.396   0.422
  0.423   0.437   0.438   0.448   0.482   0.503   0.513   0.516
  0.527   0.530   0.534   0.560   0.599   0.600   0.651   0.688
  0.690   0.841   0.849   0.942   1.086   1.088   1.095   1.111
  1.196   1.204   1.208   1.235   1.243   1.311   1.316   1.328
  1.619   1.621   1.624   1.644   1.644   1.658   1.667   1.692
  1.696   1.743   1.953   1.964   2.174   2.178   2.286   2.293
  2.294   2.402   2.405   2.433   2.524   2.545   2.546   2.579
  2.678   2.824   2.825   3.014   3.096   3.099   3.148   3.292
  3.302   3.337   3.564   3.565   3.795   4.437   4.439   4.445
  4.991   4.995   6.387   6.410   6.410   6.474   6.478   6.481
  6.482   6.684   6.686   6.869   6.886   6.888   6.901   6.916
  6.917   6.924   6.928   6.929   6.934   6.946   6.948   6.950
  6.966   6.970   7.032   7.080   7.130   7.131   7.365   7.366
  7.818   9.307   9.308   9.349   9.396   9.398   9.459   9.517
  9.521   9.524   9.663   9.776   9.777  10.055  10.057  10.133
 13.405  13.641  13.646  21.572  21.626  21.730  21.993  22.047
 28.402  28.416  28.423  28.428  28.472  28.473  28.476  50.233
 50.246  50.265  50.287  50.304  50.306  50.353  50.355  50.367
 50.392  50.421  50.451  50.557  50.587  50.600  55.901  55.907
 55.908  55.946  55.948  55.949  56.005  56.074  56.076  67.145
 67.148  67.243 164.529
 --------------------------------------------------------------
 
          Ground-State Mulliken Net Atomic Charges

     Atom                 Charge (a.u.)    Spin (a.u.)
  --------------------------------------------------------
      1 P                     0.180744       1.005594
      2 F                    -0.384317      -0.012869
      3 F                    -0.364194      -0.039748
      4 F                    -0.432233       0.047023
  --------------------------------------------------------
  Sum of atomic charges =    -1.000000
  Sum of spin   charges =     1.000000

 -----------------------------------------------------------------
                    Cartesian Multipole Moments
 -----------------------------------------------------------------
    Charge (ESU x 10^10)
                -4.8032
    Dipole Moment (Debye)
         X      -0.1878      Y       0.5818      Z       0.0673
       Tot       0.6150
    Quadrupole Moments (Debye-Ang)
        XX     -42.7314     XY       6.2535     YY     -44.7711
        XZ      -0.0963     YZ       0.3129     ZZ     -38.4414
    Octapole Moments (Debye-Ang^2)
       XXX      -2.8408    XXY       1.1294    XYY       0.9782
       YYY       3.3916    XXZ      11.5246    XYZ       2.3531
       YYZ      10.7831    XZZ      -0.3469    YZZ       0.5216
       ZZZ      31.4111
    Hexadecapole Moments (Debye-Ang^3)
      XXXX    -232.5235   XXXY      39.5711   XXYY     -81.8786
      XYYY      39.9678   YYYY    -258.3392   XXXZ       1.4008
      XXYZ       0.2187   XYYZ      -1.9335   YYYZ       0.6546
      XXZZ     -63.7938   XYZZ      13.8415   YYZZ     -68.2773
      XZZZ      -0.3738   YZZZ       0.8573   ZZZZ    -138.7938
 -----------------------------------------------------------------
 Total job time:  129.38s(wall), 110.72s(cpu) 
 Fri Apr 15 15:41:26 2011

        *************************************************************
        *                                                           *
        *  Thank you very much for using Q-Chem.  Have a nice day.  *
        *                                                           *
        *************************************************************


0 sent ACK to 0 
now end server 0 ... 
 
**********************************************************************
Job 2 of 3 
**********************************************************************
 
Process 0 of 1 is on cl189.stfx.acenet.ca - thread support 1
initial socket setup ...start
initial socket setup ...done 
now start server 0 ... 

cmd = /usr/bin/ssh clhead /usr/local/qchem/bin/get_hostid 1268822514 > /globalscratch/itamblyn/bnl/g297_b3lyp_neut_g03Large_worked/g2g71068/omega470/qchem17127/lic.dat
                  Welcome to Q-Chem
     A Quantum Leap Into The Future Of Chemistry

 Y. Shao, L. Fusti-Molnar, Y. Jung, J. Kussmann, C. Ochsenfeld,
 S. T. Brown, A. T. B. Gilbert, L. V. Slipchenko,S. V. Levchenko,
 D. P. O'Neill, R. A. DiStasio Jr., R. C. Lochan, T. Wang,
 G. J. O. Beran, N. A. Besley, J. M. Herbert, C. Y. Lin,
 T. Van Voorhis, S. H. Chien, A. Sodt, R. P. Steele, 
 V. A. Rassolov, P. E. Maslen, P. P. Korambath, R. D. Adamson,
 B. Austin, J. Baker, E. F. C. Byrd, H. Dachsel, R. J. Doerksen,
 A. Dreuw, B. D. Dunietz, A. D. Dutoi, T. R. Furlani,
 S. R. Gwaltney, A. Heyden, S. Hirata, C.-P. Hsu, G. Kedziora,
 R. Z. Khaliullin, P. Klunzinger, A. M. Lee, M. S. Lee, W. Liang,
 I. Lotan, N. Nair, B. Peters, E. I. Proynov, P. A. Pieniazek, 
 Y. M. Rhee, J. Ritchie, E. Rosta, C. D. Sherrill, 
 A. C. Simmonett, J. E. Subotnik, H. L. Woodcock III,
 W. Zhang, A. T. Bell, A. K. Chakraborty, D. M. Chipman,
 F. J. Keil, A. Warshel, W. J. Hehre, H. F. Schaefer III,
 J. Kong, A. I. Krylov, P. M. W. Gill, M. Head-Gordon,
 Q-Chem, Version 3.1, Q-Chem, Inc., Pittsburgh, PA (2007).

 Additional authors for Version 3.1: 
 Z. Gan, Y. Zhao, N. E. Schultz, D. Truhlar, E. Epifanovsky and M. Oana.

 Additional authors for Version 3.2: 
 R. Baer, B. R. Brooks, D. Casanova, J.-D. Chai, C.-L. Cheng, 
 C. Cramer, D. Crittenden, A. Ghysels, G. Hawkins, E. G. Hohenstein, 
 C. Kelley, W. Kurlancheek, D. Liotard, E. Livshits, P. Manohar, 
 A. Marenich, D. Neuhauser, R. Olson, M. A. Rohrdanz, K. S. Thanthiriwatte, 
 A. J. W. Thom, V. Vanovschi, C. F. Williams, Q. Wu and Z.-Q. You. 


 Intel X86 Linux Version

 Q-chem begins on Fri Apr 15 15:41:31 2011  

 Parallel job on  1  processors
Processing $rem in /usr/local/qchem/config/preferences.

theFileMan(): MAXOPENFILES=974 MAX_SUB_FILE_NUM=16
Maximum size of a physical file is 2.0 GB, maximum size of a tmp-file is 32.0 GB


--------------------------------------------------------------
User input:
--------------------------------------------------------------

$molecule
0,1
P
X,1,1.
F,1,R,2,BETA
F,1,R,2,BETA,3,120.,0
F,1,R,2,BETA,3,-120.,0

 R=1.59590817
 BETA=119.63603689

$end

$comment
neutral
$end

$xc_functional
   X HF 1.0
   X BNL 1.0
   C LYP 1.0
$end

$rem
SYMMETRY_DECOMPOSITION	0
exchange 		general
BASIS                   g3large
omega			470
separate_jk		true
mem_static              760
max_scf_cycles          200
scf_final_print         1
sym_ignore              true
$end

--------------------------------------------------------------
 Writing REM_CC_EA            4
 ----------------------------------------------------
       Standard Nuclear Orientation (Angstroms)
    I     Atom         X            Y            Z
 ----------------------------------------------------
    1      P       0.000000     0.000000     0.000000
    2      F       1.387138     0.000000    -0.789158
    3      F      -0.693569    -1.201297    -0.789158
    4      F      -0.693569     1.201297    -0.789158
 ----------------------------------------------------
 Nuclear Repulsion Energy =   187.8127743189 hartrees
 There are       21 alpha and       21 beta electrons
 Requested basis set is G3large
 There are 49 shells and 192 basis functions

Total QAlloc Memory Limit   2000 MB
Mega-Array Size       743 MB
MEM_STATIC part       760 MB

                       Distance Matrix (Angstroms)
             P (  1)   F (  2)   F (  3)
   F (  2)  1.595908
   F (  3)  1.595908  2.402593
   F (  4)  1.595908  2.402593  2.402593
 
 A cutoff of  1.0D-08 yielded   1045 shell pairs
 There are  16558 function pairs ( 22363 Cartesian)
Evaluating contribution to one-electron hamiltonian from nuclear
 Smallest overlap matrix eigenvalue = 8.06E-04
 Multipole matrices computed through 2nd order

  Scale SEOQF with 1.000000e-01/1.000000e-01/1.000000e-01

 Standard Electronic Orientation quadrupole field applied
 Nucleus-field energy     =     0.0000000010 hartrees
 Guess from superposition of atomic densities
 Warning:  Energy on first SCF cycle will be non-variational
 A restricted hybrid HF-DFT SCF calculation will be
 performed using Pulay DIIS extrapolation
 Exchange:     1.0000 Hartree-Fock + 1.0000 BNL
 Correlation:  1.0000 LYP
 Using SG-1 standard quadrature grid
 SCF converges when DIIS error is below 1.0E-05
 ---------------------------------------
  Cycle       Energy         DIIS Error
 ---------------------------------------
    1    -637.6073243803      2.95E-02
    2    -637.1842184992      5.43E-03
    3    -637.2068195943      5.41E-03
    4    -637.2755464213      5.57E-04
    5    -637.2763631147      1.21E-04
    6    -637.2764384653      2.81E-05
    7    -637.2764435167      1.17E-05
    8    -637.2764441327      6.86E-06 Convergence criterion met
 ---------------------------------------
 One-Electron    Energy = -1262.3408948757
 Total Coulomb   Energy =   487.9565999439
 Alpha Exchange  Energy =    -5.0631377037
 Beta  Exchange  Energy =    -5.0631377037
 DFT   Exchange  Energy =   -38.9275742247
 DFT Correlation Energy =    -1.6510738887
 Nuclear Repu.   Energy =   187.8127743199
 Nuclear Attr.   Energy = -1897.8962922625
 Kinetic         Energy =   635.5553973868
 SCF time:  CPU 72.25 s  wall 89.38 s
 Final Alpha MO Eigenvalues
            1           2           3           4           5           6
    1 -76.3932851 -24.3570275 -24.3569981 -24.3569718  -6.6773053  -4.9188009
            7           8           9          10          11          12
    1  -4.9187599  -4.9107193  -1.4302113  -1.3724942  -1.3724794  -0.8396111
           13          14          15          16          17          18
    1  -0.7183388  -0.7183321  -0.6915631  -0.6473807  -0.6473625  -0.6048818
           19          20          21          22          23          24
    1  -0.6048772  -0.5900187  -0.4623507   0.0430456   0.0430650   0.0560606
           25          26
    1   0.0713731   0.1097768
 Analysis of SCF Wavefunction
 
 --------------------------------------------------------------
                    Orbital Energies (a.u.)
 --------------------------------------------------------------
 
 Alpha MOs
 -- Occupied --
-76.393 -24.357 -24.357 -24.357  -6.677  -4.919  -4.919  -4.911
 -1.430  -1.372  -1.372  -0.840  -0.718  -0.718  -0.692  -0.647
 -0.647  -0.605  -0.605  -0.590  -0.462
 -- Virtual --
  0.043   0.043   0.056   0.071   0.110   0.110   0.208   0.270
  0.270   0.277   0.277   0.281   0.305   0.332   0.332   0.343
  0.370   0.373   0.373   0.386   0.392   0.392   0.456   0.507
  0.507   0.647   0.647   0.729   0.873   0.874   0.881   0.893
  0.986   0.990   0.990   1.025   1.025   1.098   1.098   1.112
  1.430   1.430   1.433   1.458   1.458   1.470   1.476   1.504
  1.504   1.535   1.738   1.738   1.973   1.973   2.081   2.090
  2.090   2.195   2.195   2.231   2.316   2.338   2.339   2.374
  2.465   2.613   2.613   2.798   2.880   2.880   2.915   3.068
  3.069   3.103   3.341   3.342   3.574   4.205   4.207   4.213
  4.768   4.769   6.182   6.204   6.204   6.270   6.270   6.272
  6.276   6.478   6.478   6.656   6.681   6.681   6.695   6.711
  6.711   6.717   6.722   6.722   6.728   6.742   6.742   6.744
  6.761   6.761   6.824   6.872   6.923   6.923   7.154   7.154
  7.592   9.098   9.098   9.141   9.188   9.188   9.250   9.307
  9.312   9.313   9.455   9.568   9.568   9.847   9.847   9.922
 13.170  13.406  13.406  21.334  21.386  21.490  21.754  21.807
 28.163  28.176  28.185  28.189  28.233  28.235  28.236  50.021
 50.033  50.053  50.074  50.092  50.094  50.141  50.142  50.154
 50.180  50.209  50.239  50.346  50.375  50.387  55.690  55.695
 55.695  55.736  55.736  55.736  55.793  55.863  55.863  66.934
 66.934  67.031 164.289
 --------------------------------------------------------------
 
          Ground-State Mulliken Net Atomic Charges

     Atom                 Charge (a.u.)
  ----------------------------------------
      1 P                     1.028917
      2 F                    -0.342615
      3 F                    -0.343160
      4 F                    -0.343143
  ----------------------------------------
  Sum of atomic charges =     0.000000

 -----------------------------------------------------------------
                    Cartesian Multipole Moments
 -----------------------------------------------------------------
    Charge (ESU x 10^10)
                 0.0000
    Dipole Moment (Debye)
         X      -0.0002      Y       0.0000      Z       1.3310
       Tot       1.3310
    Quadrupole Moments (Debye-Ang)
        XX     -28.7015     XY       0.0000     YY     -28.7026
        XZ       0.0005     YZ      -0.0002     ZZ     -28.9501
    Octapole Moments (Debye-Ang^2)
       XXX      -2.5247    XXY       0.0000    XYY       2.5236
       YYY      -0.0001    XXZ      14.1214    XYZ      -0.0001
       YYZ      14.1223    XZZ      -0.0001    YZZ      -0.0001
       ZZZ      34.8526
    Hexadecapole Moments (Debye-Ang^3)
      XXXX    -114.5564   XXXY       0.0004   XXYY     -38.1869
      XYYY       0.0000   YYYY    -114.5597   XXXZ       1.3224
      XXYZ      -0.0001   XYYZ      -1.3218   YYYZ      -0.0003
      XXZZ     -33.9431   XYZZ       0.0001   YYZZ     -33.9439
      XZZZ       0.0018   YZZZ      -0.0001   ZZZZ     -85.0691
 -----------------------------------------------------------------
 Total job time:  95.10s(wall), 72.50s(cpu) 
 Fri Apr 15 15:43:06 2011

        *************************************************************
        *                                                           *
        *  Thank you very much for using Q-Chem.  Have a nice day.  *
        *                                                           *
        *************************************************************


0 sent ACK to 0 
now end server 0 ... 
 
**********************************************************************
Job 3 of 3 
**********************************************************************
 
Process 0 of 1 is on cl189.stfx.acenet.ca - thread support 1
initial socket setup ...start
initial socket setup ...done 
now start server 0 ... 

cmd = /usr/bin/ssh clhead /usr/local/qchem/bin/get_hostid 1226895001 > /globalscratch/itamblyn/bnl/g297_b3lyp_neut_g03Large_worked/g2g71068/omega470/qchem17127/lic.dat
                  Welcome to Q-Chem
     A Quantum Leap Into The Future Of Chemistry

 Y. Shao, L. Fusti-Molnar, Y. Jung, J. Kussmann, C. Ochsenfeld,
 S. T. Brown, A. T. B. Gilbert, L. V. Slipchenko,S. V. Levchenko,
 D. P. O'Neill, R. A. DiStasio Jr., R. C. Lochan, T. Wang,
 G. J. O. Beran, N. A. Besley, J. M. Herbert, C. Y. Lin,
 T. Van Voorhis, S. H. Chien, A. Sodt, R. P. Steele, 
 V. A. Rassolov, P. E. Maslen, P. P. Korambath, R. D. Adamson,
 B. Austin, J. Baker, E. F. C. Byrd, H. Dachsel, R. J. Doerksen,
 A. Dreuw, B. D. Dunietz, A. D. Dutoi, T. R. Furlani,
 S. R. Gwaltney, A. Heyden, S. Hirata, C.-P. Hsu, G. Kedziora,
 R. Z. Khaliullin, P. Klunzinger, A. M. Lee, M. S. Lee, W. Liang,
 I. Lotan, N. Nair, B. Peters, E. I. Proynov, P. A. Pieniazek, 
 Y. M. Rhee, J. Ritchie, E. Rosta, C. D. Sherrill, 
 A. C. Simmonett, J. E. Subotnik, H. L. Woodcock III,
 W. Zhang, A. T. Bell, A. K. Chakraborty, D. M. Chipman,
 F. J. Keil, A. Warshel, W. J. Hehre, H. F. Schaefer III,
 J. Kong, A. I. Krylov, P. M. W. Gill, M. Head-Gordon,
 Q-Chem, Version 3.1, Q-Chem, Inc., Pittsburgh, PA (2007).

 Additional authors for Version 3.1: 
 Z. Gan, Y. Zhao, N. E. Schultz, D. Truhlar, E. Epifanovsky and M. Oana.

 Additional authors for Version 3.2: 
 R. Baer, B. R. Brooks, D. Casanova, J.-D. Chai, C.-L. Cheng, 
 C. Cramer, D. Crittenden, A. Ghysels, G. Hawkins, E. G. Hohenstein, 
 C. Kelley, W. Kurlancheek, D. Liotard, E. Livshits, P. Manohar, 
 A. Marenich, D. Neuhauser, R. Olson, M. A. Rohrdanz, K. S. Thanthiriwatte, 
 A. J. W. Thom, V. Vanovschi, C. F. Williams, Q. Wu and Z.-Q. You. 


 Intel X86 Linux Version

 Q-chem begins on Fri Apr 15 15:43:09 2011  

 Parallel job on  1  processors
Processing $rem in /usr/local/qchem/config/preferences.

theFileMan(): MAXOPENFILES=974 MAX_SUB_FILE_NUM=16
Maximum size of a physical file is 2.0 GB, maximum size of a tmp-file is 32.0 GB


--------------------------------------------------------------
User input:
--------------------------------------------------------------

$molecule
1,2
P
X,1,1.
F,1,R,2,BETA
F,1,R,2,BETA,3,120.,0
F,1,R,2,BETA,3,-120.,0

 R=1.59590817
 BETA=119.63603689

$end

$comment
positive
$end

$xc_functional
   X HF 1.0
   X BNL 1.0
   C LYP 1.0
$end

$rem
SYMMETRY_DECOMPOSITION	0
exchange 		general
BASIS                   g3large
omega			470
separate_jk		true
mem_static              760
max_scf_cycles          200
scf_final_print         1
sym_ignore              true
$end

--------------------------------------------------------------
 Writing REM_CC_EA            4
 ----------------------------------------------------
       Standard Nuclear Orientation (Angstroms)
    I     Atom         X            Y            Z
 ----------------------------------------------------
    1      P       0.000000     0.000000     0.000000
    2      F       1.387138     0.000000    -0.789158
    3      F      -0.693569    -1.201297    -0.789158
    4      F      -0.693569     1.201297    -0.789158
 ----------------------------------------------------
 Nuclear Repulsion Energy =   187.8127743189 hartrees
 There are       21 alpha and       20 beta electrons
 Requested basis set is G3large
 There are 49 shells and 192 basis functions

Total QAlloc Memory Limit   2000 MB
Mega-Array Size       743 MB
MEM_STATIC part       760 MB

                       Distance Matrix (Angstroms)
             P (  1)   F (  2)   F (  3)
   F (  2)  1.595908
   F (  3)  1.595908  2.402593
   F (  4)  1.595908  2.402593  2.402593
 
 A cutoff of  1.0D-08 yielded   1045 shell pairs
 There are  16558 function pairs ( 22363 Cartesian)
Evaluating contribution to one-electron hamiltonian from nuclear
 Smallest overlap matrix eigenvalue = 8.06E-04
 Multipole matrices computed through 2nd order

  Scale SEOQF with 1.000000e-01/1.000000e-01/1.000000e-01

 Standard Electronic Orientation quadrupole field applied
 Nucleus-field energy     =     0.0000000010 hartrees
 Guess from superposition of atomic densities
 Warning:  Energy on first SCF cycle will be non-variational
 An unrestricted hybrid HF-DFT SCF calculation will be
 performed using Pulay DIIS extrapolation
 Exchange:     1.0000 Hartree-Fock + 1.0000 BNL
 Correlation:  1.0000 LYP
 Using SG-1 standard quadrature grid
 SCF converges when DIIS error is below 1.0E-05
 Warning!  Inaccurate integrated density:
   Number of electrons =    41
   Numerical integral  =    41.999939709209
   Relative error      =     2.4388773395 %
 ---------------------------------------
  Cycle       Energy         DIIS Error
 ---------------------------------------
    1    -637.6073243803      2.95E-02
    2    -636.6539376673      6.09E-03
    3    -636.7134901633      6.08E-03
    4    -636.8105713697      1.06E-03
    5    -636.8134204570      1.45E-04
    6    -636.8137089515      6.06E-05
    7    -636.8137576411      3.82E-05
    8    -636.8137706842      1.37E-05
    9    -636.8137758552      3.98E-06 Convergence criterion met
 ---------------------------------------
 One-Electron    Energy = -1249.3805584741
 Total Coulomb   Energy =   475.0397386539
 Alpha Exchange  Energy =    -5.0796191671
 Beta  Exchange  Energy =    -4.8426481354
 DFT   Exchange  Energy =   -38.7518312526
 DFT Correlation Energy =    -1.6116317998
 Nuclear Repu.   Energy =   187.8127743199
 Nuclear Attr.   Energy = -1884.1023706514
 Kinetic         Energy =   634.7218121773
 <S^2> = 0.7547
 SCF time:  CPU 98.01 s  wall 112.26 s
 Final Alpha MO Eigenvalues
            1           2           3           4           5           6
    1 -76.7755738 -24.6592308 -24.6591601 -24.6590961  -7.0503641  -5.2912080
            7           8           9          10          11          12
    1  -5.2905291  -5.2904918  -1.7221812  -1.6622328  -1.6621733  -1.1434756
           13          14          15          16          17          18
    1  -1.0060597  -1.0060295  -0.9871361  -0.9293457  -0.9293386  -0.8845056
           19          20          21          22          23          24
    1  -0.8844478  -0.8682453  -0.8212228  -0.2402091  -0.2401505  -0.1178228
           25          26
    1  -0.1112479  -0.0667644
 Final Beta MO Eigenvalues
            1           2           3           4           5           6
    1 -76.7711488 -24.6544474 -24.6544011 -24.6543411  -7.0455358  -5.2868539
            7           8           9          10          11          12
    1  -5.2868141  -5.2821843  -1.7132193  -1.6525903  -1.6525545  -1.1112530
           13          14          15          16          17          18
    1  -0.9894477  -0.9893866  -0.9600695  -0.9132238  -0.9131622  -0.8768785
           19          20          21          22          23          24
    1  -0.8768480  -0.8635211  -0.4657334  -0.2068672  -0.2068503  -0.1173871
           25
    1  -0.1046017
 Analysis of SCF Wavefunction
 
 --------------------------------------------------------------
                    Orbital Energies (a.u.)
 --------------------------------------------------------------
 
 Alpha MOs
 -- Occupied --
-76.776 -24.659 -24.659 -24.659  -7.050  -5.291  -5.291  -5.290
 -1.722  -1.662  -1.662  -1.143  -1.006  -1.006  -0.987  -0.929
 -0.929  -0.885  -0.884  -0.868  -0.821
 -- Virtual --
 -0.240  -0.240  -0.118  -0.111  -0.067  -0.067  -0.036   0.053
  0.062   0.062   0.083   0.084   0.093   0.119   0.123   0.123
  0.142   0.142   0.184   0.184   0.185   0.199   0.203   0.280
  0.280   0.399   0.399   0.445   0.582   0.582   0.616   0.622
  0.690   0.702   0.702   0.734   0.734   0.811   0.811   0.814
  1.186   1.186   1.189   1.204   1.216   1.217   1.231   1.262
  1.262   1.269   1.437   1.437   1.704   1.704   1.809   1.823
  1.823   1.912   1.912   1.961   2.041   2.059   2.059   2.100
  2.170   2.319   2.319   2.487   2.576   2.576   2.581   2.727
  2.728   2.780   3.025   3.026   3.262   3.856   3.859   3.861
  4.437   4.438   5.900   5.923   5.923   5.976   5.982   5.982
  5.996   6.191   6.191   6.355   6.399   6.399   6.418   6.429
  6.429   6.437   6.443   6.444   6.446   6.464   6.464   6.465
  6.475   6.475   6.538   6.580   6.636   6.636   6.857   6.857
  7.256   8.810   8.810   8.856   8.896   8.896   8.959   9.011
  9.016   9.016   9.161   9.278   9.278   9.550   9.550   9.620
 12.800  13.043  13.043  20.956  21.014  21.117  21.380  21.434
 27.789  27.804  27.809  27.815  27.859  27.861  27.863  49.719
 49.732  49.753  49.772  49.789  49.794  49.836  49.837  49.849
 49.878  49.908  49.938  50.040  50.069  50.082  55.390  55.397
 55.397  55.433  55.433  55.438  55.489  55.560  55.560  66.633
 66.633  66.730 163.908
 
 Beta MOs
 -- Occupied --
-76.771 -24.654 -24.654 -24.654  -7.046  -5.287  -5.287  -5.282
 -1.713  -1.653  -1.653  -1.111  -0.989  -0.989  -0.960  -0.913
 -0.913  -0.877  -0.877  -0.864
 -- Virtual --
 -0.466  -0.207  -0.207  -0.117  -0.105  -0.064  -0.064  -0.029
  0.056   0.062   0.062   0.084   0.085   0.099   0.123   0.126
  0.126   0.148   0.148   0.183   0.183   0.185   0.201   0.215
  0.283   0.283   0.401   0.401   0.454   0.587   0.587   0.618
  0.623   0.706   0.709   0.710   0.747   0.747   0.815   0.815
  0.826   1.190   1.190   1.193   1.214   1.222   1.222   1.234
  1.265   1.265   1.276   1.445   1.445   1.709   1.709   1.811
  1.826   1.826   1.919   1.919   1.967   2.046   2.066   2.066
  2.107   2.178   2.328   2.328   2.503   2.587   2.587   2.595
  2.752   2.752   2.788   3.037   3.038   3.276   3.866   3.868
  3.870   4.446   4.447   5.906   5.929   5.929   5.990   5.994
  5.994   6.001   6.199   6.199   6.363   6.407   6.407   6.423
  6.437   6.437   6.444   6.449   6.449   6.454   6.469   6.469
  6.469   6.484   6.484   6.546   6.590   6.644   6.644   6.867
  6.867   7.268   8.819   8.819   8.861   8.908   8.908   8.970
  9.025   9.031   9.031   9.174   9.288   9.288   9.563   9.563
  9.634  12.810  13.046  13.046  20.966  21.020  21.123  21.387
 21.440  27.793  27.807  27.814  27.819  27.863  27.864  27.867
 49.728  49.741  49.760  49.782  49.799  49.802  49.848  49.849
 49.861  49.888  49.916  49.946  50.052  50.082  50.094  55.395
 55.400  55.400  55.440  55.440  55.441  55.497  55.566  55.566
 66.639  66.639  66.735 163.913
 --------------------------------------------------------------
 
          Ground-State Mulliken Net Atomic Charges

     Atom                 Charge (a.u.)    Spin (a.u.)
  --------------------------------------------------------
      1 P                     1.471093       0.651715
      2 F                    -0.156915       0.115952
      3 F                    -0.157142       0.115973
      4 F                    -0.157035       0.116360
  --------------------------------------------------------
  Sum of atomic charges =     1.000000
  Sum of spin   charges =     1.000000

 -----------------------------------------------------------------
                    Cartesian Multipole Moments
 -----------------------------------------------------------------
    Charge (ESU x 10^10)
                 4.8032
    Dipole Moment (Debye)
         X      -0.0004      Y       0.0004      Z       1.1876
       Tot       1.1876
    Quadrupole Moments (Debye-Ang)
        XX     -23.5596     XY      -0.0004     YY     -23.5607
        XZ       0.0004     YZ      -0.0011     ZZ     -22.7744
    Octapole Moments (Debye-Ang^2)
       XXX      -0.3331    XXY       0.0003    XYY       0.3311
       YYY       0.0007    XXZ      11.2721    XYZ       0.0004
       YYZ      11.2731    XZZ      -0.0007    YZZ       0.0007
       ZZZ      32.9349
    Hexadecapole Moments (Debye-Ang^3)
      XXXX     -98.7689   XXXY      -0.0005   XXYY     -32.9238
      XYYY      -0.0003   YYYY     -98.7710   XXXZ      -0.9192
      XXYZ      -0.0003   XYYZ       0.9209   YYYZ      -0.0008
      XXZZ     -26.9865   XYZZ      -0.0004   YYZZ     -26.9874
      XZZZ       0.0016   YZZZ      -0.0027   ZZZZ     -68.8648
 -----------------------------------------------------------------
 Total job time:  114.55s(wall), 98.28s(cpu) 
 Fri Apr 15 15:45:04 2011

        *************************************************************
        *                                                           *
        *  Thank you very much for using Q-Chem.  Have a nice day.  *
        *                                                           *
        *************************************************************


0 sent ACK to 0 
now end server 0 ... 
