Process 0 of 1 is on cl060.stfx.acenet.ca - thread support 1
initial socket setup ...start
initial socket setup ...done 
now start server 0 ... 

cmd = /usr/bin/ssh clhead /usr/local/qchem/bin/get_hostid 410555791 > /scratch/tmp/5956774.1.short.q/qchem21309/lic.dat
                  Welcome to Q-Chem
     A Quantum Leap Into The Future Of Chemistry

 Y. Shao, L. Fusti-Molnar, Y. Jung, J. Kussmann, C. Ochsenfeld,
 S. T. Brown, A. T. B. Gilbert, L. V. Slipchenko,S. V. Levchenko,
 D. P. O'Neill, R. A. DiStasio Jr., R. C. Lochan, T. Wang,
 G. J. O. Beran, N. A. Besley, J. M. Herbert, C. Y. Lin,
 T. Van Voorhis, S. H. Chien, A. Sodt, R. P. Steele, 
 V. A. Rassolov, P. E. Maslen, P. P. Korambath, R. D. Adamson,
 B. Austin, J. Baker, E. F. C. Byrd, H. Dachsel, R. J. Doerksen,
 A. Dreuw, B. D. Dunietz, A. D. Dutoi, T. R. Furlani,
 S. R. Gwaltney, A. Heyden, S. Hirata, C.-P. Hsu, G. Kedziora,
 R. Z. Khaliullin, P. Klunzinger, A. M. Lee, M. S. Lee, W. Liang,
 I. Lotan, N. Nair, B. Peters, E. I. Proynov, P. A. Pieniazek, 
 Y. M. Rhee, J. Ritchie, E. Rosta, C. D. Sherrill, 
 A. C. Simmonett, J. E. Subotnik, H. L. Woodcock III,
 W. Zhang, A. T. Bell, A. K. Chakraborty, D. M. Chipman,
 F. J. Keil, A. Warshel, W. J. Hehre, H. F. Schaefer III,
 J. Kong, A. I. Krylov, P. M. W. Gill, M. Head-Gordon,
 Q-Chem, Version 3.1, Q-Chem, Inc., Pittsburgh, PA (2007).

 Additional authors for Version 3.1: 
 Z. Gan, Y. Zhao, N. E. Schultz, D. Truhlar, E. Epifanovsky and M. Oana.

 Additional authors for Version 3.2: 
 R. Baer, B. R. Brooks, D. Casanova, J.-D. Chai, C.-L. Cheng, 
 C. Cramer, D. Crittenden, A. Ghysels, G. Hawkins, E. G. Hohenstein, 
 C. Kelley, W. Kurlancheek, D. Liotard, E. Livshits, P. Manohar, 
 A. Marenich, D. Neuhauser, R. Olson, M. A. Rohrdanz, K. S. Thanthiriwatte, 
 A. J. W. Thom, V. Vanovschi, C. F. Williams, Q. Wu and Z.-Q. You. 


 Intel X86 Linux Version

 Q-chem begins on Wed May  1 12:37:04 2013  

 Parallel job on  1  processors
Processing $rem in /usr/local/qchem/config/preferences.

theFileMan(): MAXOPENFILES=974 MAX_SUB_FILE_NUM=16
Maximum size of a physical file is 2.0 GB, maximum size of a tmp-file is 32.0 GB


--------------------------------------------------------------
User input:
--------------------------------------------------------------

$molecule
0,1
X
C 1 1.
X 2 r 1 90.
X 2 r 1 90. 3 180.
C 3 ra 2 90. 1 90.
C 3 ra 2 90. 1 -90.
C 4 ra 2 90. 1 0.
C 4 ra 2 90. 1 180.
H 5 rh 3 ah 2 t1
H 5 rh 3 ah 2 -t1
H 6 rh 3 ah 2 -t1
H 6 rh 3 ah 2 t1
H 7 rh 4 ah 2 t1
H 7 rh 4 ah 2 -t1
H 8 rh 4 ah 2 -t1
H 8 rh 4 ah 2 t1

r=1.27305905
ra=0.76471759
rh=1.08816375
ah=117.7243034
t1=108.45079893

$end

$comment
neutral
$end

$xc_functional
C PBE   1.00
X wPBE  1.00
$end


$rem
SYMMETRY_DECOMPOSITION	0
LRC_DFT                 true
exchange 		general
BASIS                   g3large
omega			310 
JOBTYPE                 opt
mem_static              760
max_scf_cycles          200
scf_final_print         1
sym_ignore              true
$end


--------------------------------------------------------------
 Writing REM_CC_EA           13
 ----------------------------------------------------
       Standard Nuclear Orientation (Angstroms)
    I     Atom         X            Y            Z
 ----------------------------------------------------
    1      C       0.000000     0.000000     1.000000
    2      C       1.273059     0.764718     1.000000
    3      C       1.273059    -0.764718     1.000000
    4      C      -1.273059     0.000000     0.235282
    5      C      -1.273059     0.000000     1.764718
    6      H       1.577915     1.270950     1.913724
    7      H       1.577915     1.270950     0.086276
    8      H       1.577915    -1.270950     1.913724
    9      H       1.577915    -1.270950     0.086276
   10      H      -1.577915    -0.913724    -0.270950
   11      H      -1.577915     0.913724    -0.270950
   12      H      -1.577915    -0.913724     2.270950
   13      H      -1.577915     0.913724     2.270950
 ----------------------------------------------------
 Nuclear Repulsion Energy =   170.0211664558 hartrees
 There are       19 alpha and       19 beta electrons
 Requested basis set is G3large
 There are 98 shells and 290 basis functions

Total QAlloc Memory Limit   2000 MB
Mega-Array Size       743 MB
MEM_STATIC part       760 MB
 A cutoff of  1.0D-11 yielded   4579 shell pairs
 There are  40257 function pairs ( 49199 Cartesian)
Evaluating contribution to one-electron hamiltonian from nuclear
 Smallest overlap matrix eigenvalue = 2.70E-05
 Multipole matrices computed through 2nd order

  Scale SEOQF with 1.000000e-01/1.000000e-01/1.000000e-01

 Standard Electronic Orientation quadrupole field applied
 Nucleus-field energy     =    -0.0000000026 hartrees
 Guess from superposition of atomic densities
 Warning:  Energy on first SCF cycle will be non-variational
 Long-range K will be added via erf
 Coulomb attenuation parameter = 0.31 bohr**(-1)
 A restricted Kohn-Sham SCF calculation will be
 performed using Pulay DIIS extrapolation
 Exchange:  wPBE + LR-HF      Correlation:  PBE
 Using SG-1 standard quadrature grid
 SCF converges when DIIS error is below 1.0E-08
 Requested basis set is G3large
 There are 98 shells and 290 basis functions
 A cutoff of  1.0D-11 yielded   4579 shell pairs
 There are  40257 function pairs ( 49199 Cartesian)
 ---------------------------------------
  Cycle       Energy         DIIS Error
 ---------------------------------------
    1    -196.9375606550      2.85E-02
    2    -195.0859429376      2.63E-03
    3    -195.1321403146      1.98E-03
    4    -195.1707278367      2.48E-04
    5    -195.1715044717      1.20E-04
    6    -195.1716602601      2.92E-05
    7    -195.1716728733      7.32E-06
    8    -195.1716736586      3.56E-06
    9    -195.1716740967      6.54E-07
   10    -195.1716740296      1.47E-07
   11    -195.1716740430      2.71E-08
   12    -195.1716740430      5.68E-09 Convergence criterion met
 ---------------------------------------
 One-Electron    Energy =  -597.8979468218
 Total Coulomb   Energy =   262.6959027206
 Alpha Exchange  Energy =    -3.0387135784
 Beta  Exchange  Energy =    -3.0387135784
 DFT   Exchange  Energy =   -22.6695257511
 DFT Correlation Energy =    -1.2438434871
 Nuclear Repu.   Energy =   170.0211664533
 Nuclear Attr.   Energy =  -791.9955952957
 Kinetic         Energy =   194.0976484739
 SCF time:  CPU 539.01 s  wall 542.54 s
 Final Alpha MO Eigenvalues
            1           2           3           4           5           6
    1 -10.0689618 -10.0543358 -10.0543295 -10.0542333 -10.0542330  -0.9833340
            7           8           9          10          11          12
    1  -0.9002524  -0.7068376  -0.7068375  -0.6441887  -0.5846844  -0.5719799
           13          14          15          16          17          18
    1  -0.5719798  -0.4648203  -0.4504654  -0.4498108  -0.3816522  -0.3816521
           19          20          21          22          23          24
    1  -0.3692809   0.0412944   0.0529195   0.0529195   0.0575079   0.0761150
 Analysis of SCF Wavefunction
 
 --------------------------------------------------------------
                    Orbital Energies (a.u.)
 --------------------------------------------------------------
 
 Alpha MOs
 -- Occupied --
-10.069 -10.054 -10.054 -10.054 -10.054  -0.983  -0.900  -0.707
 -0.707  -0.644  -0.585  -0.572  -0.572  -0.465  -0.450  -0.450
 -0.382  -0.382  -0.369
 -- Virtual --
  0.041   0.053   0.053   0.058   0.076   0.076   0.081   0.098
  0.100   0.123   0.148   0.148   0.159   0.164   0.166   0.166
  0.183   0.184   0.184   0.197   0.206   0.206   0.219   0.234
  0.235   0.236   0.236   0.243   0.243   0.258   0.299   0.299
  0.302   0.331   0.352   0.352   0.370   0.382   0.417   0.417
  0.432   0.434   0.492   0.542   0.557   0.557   0.559   0.586
  0.586   0.619   0.641   0.641   0.662   0.669   0.674   0.686
  0.686   0.702   0.702   0.721   0.727   0.743   0.743   0.749
  0.759   0.795   0.843   0.886   0.886   0.892   0.908   0.939
  0.970   0.994   1.003   1.003   1.070   1.124   1.124   1.146
  1.176   1.193   1.193   1.202   1.221   1.221   1.264   1.272
  1.272   1.328   1.328   1.381   1.392   1.392   1.414   1.440
  1.440   1.458   1.467   1.491   1.501   1.502   1.541   1.541
  1.555   1.561   1.586   1.638   1.653   1.653   1.665   1.678
  1.678   1.680   1.735   1.845   1.875   1.875   1.902   2.548
  2.548   2.627   2.668   2.696   2.696   2.721   2.727   2.763
  2.764   2.764   2.819   2.861   2.861   2.896   2.954   2.969
  2.969   2.984   3.008   3.059   3.059   3.076   3.085   3.133
  3.133   3.159   3.162   3.162   3.201   3.219   3.244   3.271
  3.305   3.305   3.323   3.360   3.418   3.418   3.423   3.458
  3.458   3.515   3.515   3.527   3.536   3.564   3.570   3.624
  3.624   3.640   3.668   3.668   3.682   3.761   3.846   3.875
  3.934   3.951   3.951   4.005   4.005   4.035   4.125   4.165
  4.165   4.176   4.185   4.210   4.210   4.300   4.319   4.333
  4.340   4.414   4.414   4.423   4.434   4.434   4.471   4.471
  4.554   4.554   4.594   4.594   4.595   4.627   4.667   4.761
  4.794   4.963   4.963   5.026   5.026   5.150   5.322   5.442
  5.498   5.498   5.565   5.672   5.672   5.678   5.713   5.804
  5.804   5.825  24.103  24.113  24.351  24.351  24.421  27.470
 27.522  27.576  27.576  27.945  28.046  28.094  28.094  28.107
 28.135  28.135  28.146  28.546  28.546  28.979  40.861  40.881
 40.899  40.961  40.967  40.967  40.969  41.006  41.006  41.011
 41.132  41.139  41.139  41.146  41.146  41.155  41.178  41.191
 41.241  41.241  41.248  41.250  41.265  41.332  41.332
 --------------------------------------------------------------
 
          Ground-State Mulliken Net Atomic Charges

     Atom                 Charge (a.u.)
  ----------------------------------------
      1 C                     0.514769
      2 C                    -0.307444
      3 C                    -0.307444
      4 C                    -0.307445
      5 C                    -0.307444
      6 H                     0.089376
      7 H                     0.089376
      8 H                     0.089376
      9 H                     0.089376
     10 H                     0.089376
     11 H                     0.089376
     12 H                     0.089376
     13 H                     0.089376
  ----------------------------------------
  Sum of atomic charges =     0.000000

 -----------------------------------------------------------------
                    Cartesian Multipole Moments
 -----------------------------------------------------------------
    Charge (ESU x 10^10)
                 0.0000
    Dipole Moment (Debye)
         X       0.0000      Y       0.0000      Z       0.0000
       Tot       0.0000
    Quadrupole Moments (Debye-Ang)
        XX     -32.8198     XY       0.0000     YY     -30.7598
        XZ       0.0000     YZ       0.0000     ZZ     -30.7598
    Octapole Moments (Debye-Ang^2)
       XXX       0.0000    XXY       0.0000    XYY      -0.4926
       YYY       0.0000    XXZ     -32.8198    XYZ       0.0000
       YYZ     -30.7598    XZZ       0.4926    YZZ       0.0000
       ZZZ     -92.2794
    Hexadecapole Moments (Debye-Ang^3)
      XXXX    -353.6036   XXXY       0.0000   XXYY     -67.9961
      XYYY       0.0000   YYYY    -116.1035   XXXZ       0.0000
      XXYZ       0.0000   XYYZ      -0.4926   YYYZ       0.0000
      XXZZ    -100.8159   XYZZ       0.0000   YYZZ     -63.8703
      XZZZ       1.4778   YZZZ       0.0000   ZZZZ    -300.6624
 -----------------------------------------------------------------
 Calculating analytic gradient of the SCF energy
 Gradient of AOints
            1           2           3           4           5           6
    1  -0.0000017  -5.8417507  -5.8417499   5.8417511   5.8417517  -1.5649858
    2   0.0000030  -6.0488923   6.0488915  -0.0000004  -0.0000003  -2.3862444
    3  -0.0000001   0.0000002  -0.0000003   6.0488929  -6.0488928  -3.4167621
            7           8           9          10          11          12
    1  -1.5649857  -1.5649858  -1.5649859   1.5649856   1.5649858   1.5649856
    2  -2.3862442   2.3862444   2.3862443   3.4167618  -3.4167626   3.4167616
    3   3.4167620  -3.4167615   3.4167617   2.3862448   2.3862443  -2.3862448
           13
    1   1.5649858
    2  -3.4167625
    3  -2.3862444
 Gradient of XC Energy
            1           2           3           4           5           6
    1   0.0000001   0.0460718   0.0460718  -0.0460718  -0.0460719   0.0541950
    2  -0.0000001   0.0746097  -0.0746097  -0.0000000  -0.0000000   0.0927598
    3   0.0000000  -0.0000000   0.0000000  -0.0746097   0.0746097   0.1600255
            7           8           9          10          11          12
    1   0.0541949   0.0541949   0.0541950  -0.0541949  -0.0541950  -0.0541949
    2   0.0927598  -0.0927598  -0.0927598  -0.1600255   0.1600256  -0.1600255
    3  -0.1600255   0.1600255  -0.1600255  -0.0927598  -0.0927598   0.0927598
           13
    1  -0.0541949
    2   0.1600256
    3   0.0927598
 Gradient of SCF Energy
            1           2           3           4           5           6
    1  -0.0000000   0.0033748   0.0033748  -0.0033749  -0.0033748   0.0008697
    2   0.0000000   0.0058912  -0.0058912  -0.0000000  -0.0000000   0.0013286
    3  -0.0000000   0.0000000  -0.0000000  -0.0058912   0.0058912   0.0005874
            7           8           9          10          11          12
    1   0.0008697   0.0008697   0.0008697  -0.0008697  -0.0008697  -0.0008697
    2   0.0013286  -0.0013286  -0.0013286  -0.0005873   0.0005873  -0.0005873
    3  -0.0005874   0.0005873  -0.0005873  -0.0013286  -0.0013285   0.0013286
           13
    1  -0.0008697
    2   0.0005873
    3   0.0013285
 Max gradient component =       5.891E-03
 RMS gradient           =       2.306E-03
 Gradient time:  CPU 273.15 s  wall 273.59 s
 Geometry Optimization Parameters
   NAtoms,    NIC,     NZ,  NCons,   NDum,   NFix, NCnnct, MaxDiis
       13     118      16       0       0       0       0       0


** GEOMETRY OPTIMIZATION IN DELOCALIZED INTERNAL COORDINATES **
   Searching for a Minimum

   Optimization Cycle:   1

                       Coordinates (Angstroms)
     ATOM              X           Y           Z
    1  C           0.000000    0.000000    1.000000
    2  C           1.273059    0.764718    1.000000
    3  C           1.273059   -0.764718    1.000000
    4  C          -1.273059    0.000000    0.235282
    5  C          -1.273059    0.000000    1.764718
    6  H           1.577915    1.270950    1.913724
    7  H           1.577915    1.270950    0.086276
    8  H           1.577915   -1.270950    1.913724
    9  H           1.577915   -1.270950    0.086276
   10  H          -1.577915   -0.913724   -0.270950
   11  H          -1.577915    0.913724   -0.270950
   12  H          -1.577915   -0.913724    2.270950
   13  H          -1.577915    0.913724    2.270950
   Point Group: c1    Number of degrees of freedom:  33


   Energy is   -195.171674043


 Attempting to Generate Delocalized Internal Coordinates

 15 Hessian modes will be used to form the next step
  Hessian Eigenvalues:
     0.023609    0.024237    0.043338    0.095178    0.108788    0.263042
     0.324744    0.328489    0.350257    0.350257    0.350257    0.350257
     0.350257    0.350257    0.350257

 Minimum Search - Taking Simple RFO Step
 Searching for Lamda that Minimizes Along All modes
 Value Taken    Lamda =  -0.00072591
 Step Taken.  Stepsize is  0.052339

                             Maximum     Tolerance    Cnvgd?
         Gradient           0.011713      0.000300      NO
         Displacement       0.042177      0.001200      NO
         Energy change     *********      0.000001      NO


 New Cartesian Coordinates Obtained by Inverse Iteration

 Displacement from previous Coordinates is:  0.082721
 Writing REM_CC_EA           13
 ----------------------------------------------------
       Standard Nuclear Orientation (Angstroms)
    I     Atom         X            Y            Z
 ----------------------------------------------------
    1      C       0.000000     0.000000     1.000000
    2      C       1.265018     0.759921     1.000000
    3      C       1.265018    -0.759921     1.000000
    4      C      -1.265018     0.000000     0.240079
    5      C      -1.265018     0.000000     1.759921
    6      H       1.566455     1.262942     1.914202
    7      H       1.566455     1.262942     0.085798
    8      H       1.566455    -1.262942     1.914202
    9      H       1.566455    -1.262942     0.085798
   10      H      -1.566455    -0.914202    -0.262942
   11      H      -1.566455     0.914202    -0.262942
   12      H      -1.566455    -0.914202     2.262942
   13      H      -1.566455     0.914202     2.262942
 ----------------------------------------------------
 Nuclear Repulsion Energy =   170.9653053087 hartrees
 There are       19 alpha and       19 beta electrons
 Applying Cartesian multipole field
    Component          Value
    ---------          -----
     (2,0,0)        1.00000E-11
     (0,2,0)        2.00000E-11
     (0,0,2)       -3.00000E-11
 Nucleus-field energy     =    -0.0000000026 hartrees
 Requested basis set is G3large
 There are 98 shells and 290 basis functions
 A cutoff of  1.0D-11 yielded   4591 shell pairs
 There are  40493 function pairs ( 49523 Cartesian)
Evaluating contribution to one-electron hamiltonian from nuclear
 Smallest overlap matrix eigenvalue = 2.59E-05
 Multipole matrices computed through 2nd order
 Guess MOs from SCF MO coefficient file
Reading MOs from coefficient file
Reading MOs from coefficient file
 Long-range K will be added via erf
 Coulomb attenuation parameter = 0.31 bohr**(-1)
 A restricted Kohn-Sham SCF calculation will be
 performed using Pulay DIIS extrapolation
 Exchange:  wPBE + LR-HF      Correlation:  PBE
 Using SG-1 standard quadrature grid
 SCF converges when DIIS error is below 1.0E-08
 Requested basis set is G3large
 There are 98 shells and 290 basis functions
 A cutoff of  1.0D-11 yielded   4591 shell pairs
 There are  40493 function pairs ( 49523 Cartesian)
 ---------------------------------------
  Cycle       Energy         DIIS Error
 ---------------------------------------
    1    -195.1740953478      2.47E-04
    2    -195.1720230177      6.68E-05
    3    -195.1720440720      5.42E-05
    4    -195.1720713249      4.26E-06
    5    -195.1720712818      1.84E-06
    6    -195.1720712157      3.84E-07
    7    -195.1720715081      5.69E-08
    8    -195.1720714971      9.84E-09 Convergence criterion met
 ---------------------------------------
 One-Electron    Energy =  -599.7573024374
 Total Coulomb   Energy =   263.6389108263
 Alpha Exchange  Energy =    -3.0398202127
 Beta  Exchange  Energy =    -3.0398202127
 DFT   Exchange  Energy =   -22.6935961138
 DFT Correlation Energy =    -1.2457486530
 Nuclear Repu.   Energy =   170.9653053061
 Nuclear Attr.   Energy =  -793.9637696949
 Kinetic         Energy =   194.2064672576
 SCF time:  CPU 376.55 s  wall 380.08 s
 Final Alpha MO Eigenvalues
            1           2           3           4           5           6
    1 -10.0658155 -10.0523671 -10.0523622 -10.0522570 -10.0522570  -0.9880115
            7           8           9          10          11          12
    1  -0.9041396  -0.7070665  -0.7070665  -0.6443005  -0.5857879  -0.5742873
           13          14          15          16          17          18
    1  -0.5742873  -0.4651894  -0.4513413  -0.4503142  -0.3817084  -0.3817084
           19          20          21          22          23          24
    1  -0.3701654   0.0413390   0.0529302   0.0529302   0.0575717   0.0762348
 Analysis of SCF Wavefunction
 
 --------------------------------------------------------------
                    Orbital Energies (a.u.)
 --------------------------------------------------------------
 
 Alpha MOs
 -- Occupied --
-10.066 -10.052 -10.052 -10.052 -10.052  -0.988  -0.904  -0.707
 -0.707  -0.644  -0.586  -0.574  -0.574  -0.465  -0.451  -0.450
 -0.382  -0.382  -0.370
 -- Virtual --
  0.041   0.053   0.053   0.058   0.076   0.076   0.081   0.098
  0.100   0.123   0.148   0.148   0.159   0.165   0.166   0.166
  0.183   0.184   0.184   0.196   0.207   0.207   0.219   0.234
  0.235   0.237   0.237   0.245   0.245   0.258   0.302   0.302
  0.303   0.333   0.353   0.353   0.369   0.388   0.421   0.421
  0.435   0.435   0.491   0.541   0.558   0.558   0.560   0.586
  0.586   0.620   0.641   0.641   0.662   0.672   0.677   0.689
  0.689   0.705   0.705   0.723   0.731   0.743   0.743   0.748
  0.762   0.798   0.847   0.889   0.889   0.896   0.912   0.940
  0.969   0.994   1.002   1.002   1.074   1.126   1.126   1.151
  1.178   1.198   1.198   1.207   1.227   1.227   1.263   1.275
  1.275   1.333   1.333   1.387   1.395   1.395   1.418   1.442
  1.442   1.465   1.469   1.493   1.498   1.504   1.542   1.542
  1.562   1.563   1.589   1.637   1.654   1.654   1.667   1.681
  1.681   1.684   1.742   1.849   1.883   1.883   1.910   2.548
  2.548   2.631   2.670   2.700   2.700   2.722   2.732   2.765
  2.765   2.771   2.822   2.859   2.859   2.906   2.962   2.976
  2.976   2.983   3.011   3.068   3.068   3.083   3.091   3.143
  3.143   3.160   3.160   3.173   3.205   3.211   3.250   3.274
  3.307   3.307   3.327   3.356   3.422   3.422   3.432   3.465
  3.465   3.518   3.518   3.528   3.547   3.577   3.578   3.624
  3.624   3.639   3.678   3.678   3.692   3.766   3.862   3.891
  3.942   3.960   3.960   4.018   4.018   4.046   4.133   4.182
  4.182   4.184   4.187   4.219   4.219   4.308   4.334   4.341
  4.343   4.422   4.426   4.428   4.439   4.439   4.482   4.482
  4.572   4.572   4.603   4.606   4.606   4.641   4.681   4.786
  4.805   4.978   4.978   5.049   5.049   5.171   5.336   5.464
  5.524   5.524   5.566   5.680   5.680   5.685   5.720   5.829
  5.829   5.860  24.108  24.131  24.386  24.386  24.457  27.483
 27.543  27.597  27.597  27.982  28.073  28.101  28.101  28.118
 28.143  28.143  28.157  28.546  28.546  28.984  40.863  40.880
 40.901  40.965  40.972  40.972  40.975  41.015  41.018  41.018
 41.135  41.141  41.141  41.147  41.147  41.159  41.181  41.195
 41.245  41.245  41.254  41.255  41.275  41.347  41.347
 --------------------------------------------------------------
 
          Ground-State Mulliken Net Atomic Charges

     Atom                 Charge (a.u.)
  ----------------------------------------
      1 C                     0.516068
      2 C                    -0.308191
      3 C                    -0.308191
      4 C                    -0.308191
      5 C                    -0.308191
      6 H                     0.089587
      7 H                     0.089587
      8 H                     0.089587
      9 H                     0.089587
     10 H                     0.089587
     11 H                     0.089587
     12 H                     0.089587
     13 H                     0.089587
  ----------------------------------------
  Sum of atomic charges =     0.000000

 -----------------------------------------------------------------
                    Cartesian Multipole Moments
 -----------------------------------------------------------------
    Charge (ESU x 10^10)
                 0.0000
    Dipole Moment (Debye)
         X       0.0000      Y       0.0000      Z       0.0000
       Tot       0.0000
    Quadrupole Moments (Debye-Ang)
        XX     -32.8615     XY       0.0000     YY     -30.7351
        XZ       0.0000     YZ       0.0000     ZZ     -30.7351
    Octapole Moments (Debye-Ang^2)
       XXX       0.0000    XXY       0.0000    XYY      -0.6201
       YYY       0.0000    XXZ     -32.8615    XYZ       0.0000
       YYZ     -30.7351    XZZ       0.6201    YZZ       0.0000
       ZZZ     -92.2053
    Hexadecapole Moments (Debye-Ang^3)
      XXXX    -349.3108   XXXY       0.0000   XXYY     -67.4452
      XYYY       0.0000   YYYY    -115.2067   XXXZ       0.0000
      XXYZ       0.0000   XYYZ      -0.6201   YYYZ       0.0000
      XXZZ    -100.3067   XYZZ       0.0000   YYZZ     -63.6228
      XZZZ       1.8602   YZZZ       0.0000   ZZZZ    -299.6173
 -----------------------------------------------------------------
 Calculating analytic gradient of the SCF energy
 Gradient of AOints
            1           2           3           4           5           6
    1   0.0000004  -5.9046296  -5.9046297   5.9046293   5.9046295  -1.5489771
    2  -0.0000002  -6.0766312   6.0766309   0.0000003   0.0000002  -2.3713544
    3   0.0000000  -0.0000000   0.0000001   6.0766312  -6.0766312  -3.4480926
            7           8           9          10          11          12
    1  -1.5489772  -1.5489773  -1.5489772   1.5489779   1.5489766   1.5489778
    2  -2.3713544   2.3713543   2.3713543   3.4480924  -3.4480924   3.4480925
    3   3.4480926  -3.4480926   3.4480926   2.3713540   2.3713548  -2.3713540
           13
    1   1.5489766
    2  -3.4480924
    3  -2.3713549
 Gradient of XC Energy
            1           2           3           4           5           6
    1  -0.0000000   0.0475242   0.0475242  -0.0475242  -0.0475242   0.0533909
    2   0.0000000   0.0759140  -0.0759140  -0.0000000  -0.0000000   0.0920423
    3  -0.0000000   0.0000000  -0.0000000  -0.0759140   0.0759140   0.1609273
            7           8           9          10          11          12
    1   0.0533909   0.0533909   0.0533909  -0.0533909  -0.0533909  -0.0533909
    2   0.0920423  -0.0920423  -0.0920423  -0.1609273   0.1609273  -0.1609273
    3  -0.1609273   0.1609273  -0.1609273  -0.0920423  -0.0920423   0.0920423
           13
    1  -0.0533909
    2   0.1609273
    3   0.0920423
 Gradient of SCF Energy
            1           2           3           4           5           6
    1   0.0000000   0.0002527   0.0002527  -0.0002527  -0.0002527   0.0000446
    2   0.0000000   0.0006722  -0.0006722  -0.0000000  -0.0000000   0.0001278
    3  -0.0000000  -0.0000000  -0.0000000  -0.0006722   0.0006722  -0.0001232
            7           8           9          10          11          12
    1   0.0000446   0.0000446   0.0000446  -0.0000446  -0.0000446  -0.0000446
    2   0.0001278  -0.0001278  -0.0001278   0.0001231  -0.0001231   0.0001231
    3   0.0001232  -0.0001232   0.0001232  -0.0001278  -0.0001278   0.0001278
           13
    1  -0.0000446
    2  -0.0001231
    3   0.0001278
 Max gradient component =       6.722E-04
 RMS gradient           =       2.445E-04
 Gradient time:  CPU 275.12 s  wall 276.11 s
 Geometry Optimization Parameters
   NAtoms,    NIC,     NZ,  NCons,   NDum,   NFix, NCnnct, MaxDiis
       13     118      16       0       0       0       0       0

 Cartesian Hessian Update
 Hessian Updated using BFGS Update


** GEOMETRY OPTIMIZATION IN DELOCALIZED INTERNAL COORDINATES **
   Searching for a Minimum

   Optimization Cycle:   2

                       Coordinates (Angstroms)
     ATOM              X           Y           Z
    1  C           0.000000    0.000000    1.000000
    2  C           1.265018    0.759921    1.000000
    3  C           1.265018   -0.759921    1.000000
    4  C          -1.265018    0.000000    0.240079
    5  C          -1.265018    0.000000    1.759921
    6  H           1.566455    1.262942    1.914202
    7  H           1.566455    1.262942    0.085798
    8  H           1.566455   -1.262942    1.914202
    9  H           1.566455   -1.262942    0.085798
   10  H          -1.566455   -0.914202   -0.262942
   11  H          -1.566455    0.914202   -0.262942
   12  H          -1.566455   -0.914202    2.262942
   13  H          -1.566455    0.914202    2.262942
   Point Group: c1    Number of degrees of freedom:  33


   Energy is   -195.172071497

 Hessian Updated using BFGS Update

  8 Hessian modes will be used to form the next step
  Hessian Eigenvalues:
     0.024282    0.043338    0.093179    0.255558    0.312411    0.324744
     0.350257    0.353497

 Minimum Search - Taking Simple RFO Step
 Searching for Lamda that Minimizes Along All modes
 Value Taken    Lamda =  -0.00000810
 Step Taken.  Stepsize is  0.006998

                             Maximum     Tolerance    Cnvgd?
         Gradient           0.001126      0.000300      NO
         Displacement       0.005879      0.001200      NO
         Energy change     -0.000397      0.000001      NO


 New Cartesian Coordinates Obtained by Inverse Iteration

 Displacement from previous Coordinates is:  0.008816
 Writing REM_CC_EA           13
 ----------------------------------------------------
       Standard Nuclear Orientation (Angstroms)
    I     Atom         X            Y            Z
 ----------------------------------------------------
    1      C       0.000000     0.000000     1.000000
    2      C       1.264488     0.759285     1.000000
    3      C       1.264488    -0.759285     1.000000
    4      C      -1.264488     0.000000     0.240715
    5      C      -1.264488     0.000000     1.759285
    6      H       1.565998     1.261541     1.914656
    7      H       1.565998     1.261541     0.085344
    8      H       1.565998    -1.261541     1.914656
    9      H       1.565998    -1.261541     0.085344
   10      H      -1.565998    -0.914656    -0.261541
   11      H      -1.565998     0.914656    -0.261541
   12      H      -1.565998    -0.914656     2.261541
   13      H      -1.565998     0.914656     2.261541
 ----------------------------------------------------
 Nuclear Repulsion Energy =   171.0473709504 hartrees
 There are       19 alpha and       19 beta electrons
 Applying Cartesian multipole field
    Component          Value
    ---------          -----
     (2,0,0)        1.00000E-11
     (0,2,0)        2.00000E-11
     (0,0,2)       -3.00000E-11
 Nucleus-field energy     =    -0.0000000026 hartrees
 Requested basis set is G3large
 There are 98 shells and 290 basis functions
 A cutoff of  1.0D-11 yielded   4591 shell pairs
 There are  40493 function pairs ( 49523 Cartesian)
Evaluating contribution to one-electron hamiltonian from nuclear
 Smallest overlap matrix eigenvalue = 2.58E-05
 Multipole matrices computed through 2nd order
 Guess MOs from SCF MO coefficient file
Reading MOs from coefficient file
Reading MOs from coefficient file
 Long-range K will be added via erf
 Coulomb attenuation parameter = 0.31 bohr**(-1)
 A restricted Kohn-Sham SCF calculation will be
 performed using Pulay DIIS extrapolation
 Exchange:  wPBE + LR-HF      Correlation:  PBE
 Using SG-1 standard quadrature grid
 SCF converges when DIIS error is below 1.0E-08
 Requested basis set is G3large
 There are 98 shells and 290 basis functions
 A cutoff of  1.0D-11 yielded   4591 shell pairs
 There are  40493 function pairs ( 49523 Cartesian)
 ---------------------------------------
  Cycle       Energy         DIIS Error
 ---------------------------------------
    1    -195.1718739296      2.76E-05
    2    -195.1720751171      6.35E-06
    3    -195.1720753884      5.05E-06
    4    -195.1720758563      5.34E-07
    5    -195.1720757419      1.63E-07
    6    -195.1720757282      6.18E-08
    7    -195.1720757400      8.76E-09 Convergence criterion met
 ---------------------------------------
 One-Electron    Energy =  -599.9193469576
 Total Coulomb   Energy =   263.7210008899
 Alpha Exchange  Energy =    -3.0399007713
 Beta  Exchange  Energy =    -3.0399007713
 DFT   Exchange  Energy =   -22.6953809977
 DFT Correlation Energy =    -1.2459180799
 Nuclear Repu.   Energy =   171.0473709478
 Nuclear Attr.   Energy =  -794.1341032738
 Kinetic         Energy =   194.2147563162
 SCF time:  CPU 321.80 s  wall 322.87 s
 Final Alpha MO Eigenvalues
            1           2           3           4           5           6
    1 -10.0655628 -10.0522078 -10.0522030 -10.0520966 -10.0520966  -0.9884678
            7           8           9          10          11          12
    1  -0.9045840  -0.7069429  -0.7069429  -0.6443026  -0.5858172  -0.5745418
           13          14          15          16          17          18
    1  -0.5745418  -0.4651647  -0.4514728  -0.4502588  -0.3816809  -0.3816809
           19          20          21          22          23          24
    1  -0.3702865   0.0413488   0.0529325   0.0529325   0.0575664   0.0762336
 Analysis of SCF Wavefunction
 
 --------------------------------------------------------------
                    Orbital Energies (a.u.)
 --------------------------------------------------------------
 
 Alpha MOs
 -- Occupied --
-10.066 -10.052 -10.052 -10.052 -10.052  -0.988  -0.905  -0.707
 -0.707  -0.644  -0.586  -0.575  -0.575  -0.465  -0.451  -0.450
 -0.382  -0.382  -0.370
 -- Virtual --
  0.041   0.053   0.053   0.058   0.076   0.076   0.081   0.098
  0.100   0.123   0.148   0.148   0.159   0.164   0.166   0.166
  0.183   0.184   0.184   0.196   0.207   0.207   0.219   0.234
  0.235   0.237   0.237   0.245   0.245   0.258   0.302   0.302
  0.303   0.333   0.353   0.353   0.369   0.388   0.421   0.421
  0.435   0.435   0.491   0.541   0.558   0.558   0.559   0.586
  0.586   0.620   0.641   0.641   0.662   0.672   0.677   0.689
  0.689   0.705   0.705   0.723   0.732   0.743   0.743   0.748
  0.763   0.798   0.848   0.890   0.890   0.896   0.912   0.941
  0.969   0.994   1.002   1.002   1.073   1.125   1.125   1.151
  1.178   1.198   1.198   1.207   1.227   1.227   1.263   1.275
  1.275   1.333   1.333   1.388   1.395   1.395   1.419   1.443
  1.443   1.465   1.469   1.492   1.499   1.505   1.542   1.542
  1.562   1.563   1.589   1.637   1.653   1.653   1.667   1.681
  1.681   1.685   1.742   1.850   1.883   1.883   1.911   2.549
  2.549   2.631   2.670   2.700   2.700   2.722   2.733   2.765
  2.765   2.772   2.822   2.859   2.859   2.907   2.963   2.977
  2.977   2.982   3.012   3.069   3.069   3.085   3.092   3.144
  3.144   3.160   3.160   3.174   3.206   3.210   3.251   3.274
  3.306   3.306   3.327   3.356   3.422   3.422   3.432   3.465
  3.465   3.518   3.518   3.528   3.547   3.578   3.579   3.623
  3.623   3.639   3.679   3.679   3.693   3.767   3.864   3.894
  3.943   3.960   3.960   4.019   4.019   4.046   4.133   4.183
  4.183   4.185   4.187   4.220   4.220   4.309   4.334   4.342
  4.343   4.423   4.427   4.429   4.439   4.439   4.482   4.482
  4.573   4.573   4.603   4.607   4.607   4.642   4.681   4.788
  4.805   4.980   4.980   5.052   5.052   5.172   5.337   5.466
  5.527   5.527   5.566   5.680   5.680   5.685   5.719   5.831
  5.831   5.863  24.108  24.132  24.388  24.388  24.459  27.485
 27.546  27.599  27.599  27.986  28.076  28.101  28.101  28.119
 28.143  28.143  28.158  28.545  28.545  28.985  40.863  40.880
 40.901  40.965  40.973  40.973  40.975  41.016  41.020  41.020
 41.135  41.141  41.141  41.147  41.147  41.159  41.181  41.195
 41.245  41.245  41.254  41.255  41.276  41.348  41.348
 --------------------------------------------------------------
 
          Ground-State Mulliken Net Atomic Charges

     Atom                 Charge (a.u.)
  ----------------------------------------
      1 C                     0.515963
      2 C                    -0.308080
      3 C                    -0.308080
      4 C                    -0.308080
      5 C                    -0.308080
      6 H                     0.089544
      7 H                     0.089544
      8 H                     0.089544
      9 H                     0.089544
     10 H                     0.089544
     11 H                     0.089544
     12 H                     0.089544
     13 H                     0.089544
  ----------------------------------------
  Sum of atomic charges =     0.000000

 -----------------------------------------------------------------
                    Cartesian Multipole Moments
 -----------------------------------------------------------------
    Charge (ESU x 10^10)
                 0.0000
    Dipole Moment (Debye)
         X       0.0000      Y       0.0000      Z       0.0000
       Tot       0.0000
    Quadrupole Moments (Debye-Ang)
        XX     -32.8555     XY       0.0000     YY     -30.7382
        XZ       0.0000     YZ       0.0000     ZZ     -30.7382
    Octapole Moments (Debye-Ang^2)
       XXX       0.0000    XXY       0.0000    XYY      -0.6475
       YYY       0.0000    XXZ     -32.8555    XYZ       0.0000
       YYZ     -30.7382    XZZ       0.6475    YZZ       0.0000
       ZZZ     -92.2147
    Hexadecapole Moments (Debye-Ang^3)
      XXXX    -348.9988   XXXY       0.0000   XXYY     -67.4115
      XYYY       0.0000   YYYY    -115.1227   XXXZ       0.0000
      XXYZ       0.0000   XYYZ      -0.6475   YYYZ       0.0000
      XXZZ    -100.2670   XYZZ       0.0000   YYZZ     -63.6031
      XZZZ       1.9425   YZZZ       0.0000   ZZZZ    -299.5522
 -----------------------------------------------------------------
 Calculating analytic gradient of the SCF energy
 Gradient of AOints
            1           2           3           4           5           6
    1   0.0000000  -5.9070128  -5.9070138   5.9070136   5.9070133  -1.5490570
    2   0.0000012  -6.0857868   6.0857868  -0.0000001  -0.0000004  -2.3653110
    3  -0.0000002   0.0000001   0.0000001   6.0857864  -6.0857865  -3.4531412
            7           8           9          10          11          12
    1  -1.5490568  -1.5490568  -1.5490569   1.5490571   1.5490566   1.5490571
    2  -2.3653109   2.3653106   2.3653106   3.4531412  -3.4531412   3.4531412
    3   3.4531412  -3.4531414   3.4531414   2.3653108   2.3653112  -2.3653108
           13
    1   1.5490565
    2  -3.4531412
    3  -2.3653111
 Gradient of XC Energy
            1           2           3           4           5           6
    1   0.0000000   0.0475226   0.0475226  -0.0475226  -0.0475226   0.0533792
    2  -0.0000000   0.0763956  -0.0763956   0.0000000   0.0000000   0.0917928
    3   0.0000000  -0.0000000  -0.0000000  -0.0763956   0.0763956   0.1610639
            7           8           9          10          11          12
    1   0.0533792   0.0533792   0.0533792  -0.0533792  -0.0533791  -0.0533792
    2   0.0917928  -0.0917928  -0.0917928  -0.1610639   0.1610639  -0.1610639
    3  -0.1610639   0.1610639  -0.1610639  -0.0917928  -0.0917928   0.0917928
           13
    1  -0.0533791
    2   0.1610639
    3   0.0917928
 Gradient of SCF Energy
            1           2           3           4           5           6
    1  -0.0000000  -0.0000925  -0.0000925   0.0000925   0.0000925   0.0000234
    2  -0.0000000  -0.0000638   0.0000638   0.0000000   0.0000000   0.0000186
    3   0.0000000  -0.0000000  -0.0000000   0.0000638  -0.0000638  -0.0000137
            7           8           9          10          11          12
    1   0.0000234   0.0000234   0.0000234  -0.0000234  -0.0000234  -0.0000234
    2   0.0000186  -0.0000186  -0.0000186   0.0000137  -0.0000137   0.0000137
    3   0.0000137  -0.0000137   0.0000137  -0.0000186  -0.0000186   0.0000186
           13
    1  -0.0000234
    2  -0.0000137
    3   0.0000186
 Max gradient component =       9.247E-05
 RMS gradient           =       3.893E-05
 Gradient time:  CPU 275.46 s  wall 275.75 s
 Geometry Optimization Parameters
   NAtoms,    NIC,     NZ,  NCons,   NDum,   NFix, NCnnct, MaxDiis
       13     118      16       0       0       0       0       0

 Cartesian Hessian Update
 Hessian Updated using BFGS Update


** GEOMETRY OPTIMIZATION IN DELOCALIZED INTERNAL COORDINATES **
   Searching for a Minimum

   Optimization Cycle:   3

                       Coordinates (Angstroms)
     ATOM              X           Y           Z
    1  C           0.000000    0.000000    1.000000
    2  C           1.264488    0.759285    1.000000
    3  C           1.264488   -0.759285    1.000000
    4  C          -1.264488    0.000000    0.240715
    5  C          -1.264488    0.000000    1.759285
    6  H           1.565998    1.261541    1.914656
    7  H           1.565998    1.261541    0.085344
    8  H           1.565998   -1.261541    1.914656
    9  H           1.565998   -1.261541    0.085344
   10  H          -1.565998   -0.914656   -0.261541
   11  H          -1.565998    0.914656   -0.261541
   12  H          -1.565998   -0.914656    2.261541
   13  H          -1.565998    0.914656    2.261541
   Point Group: c1    Number of degrees of freedom:  33


   Energy is   -195.172075740

 Hessian Updated using BFGS Update

 10 Hessian modes will be used to form the next step
  Hessian Eigenvalues:
     0.023609    0.024664    0.086051    0.087976    0.092533    0.108788
     0.252386    0.338319    0.350257    0.353579

 Minimum Search - Taking Simple RFO Step
 Searching for Lamda that Minimizes Along All modes
 Value Taken    Lamda =   0.00000000
 Step Taken.  Stepsize is  0.001383

                             Maximum     Tolerance    Cnvgd?
         Gradient           0.000103      0.000300     YES
         Displacement       0.001252      0.001200      NO
         Energy change     -0.000004      0.000001      NO


 New Cartesian Coordinates Obtained by Inverse Iteration

 Displacement from previous Coordinates is:  0.000852
 Writing REM_CC_EA           13
 ----------------------------------------------------
       Standard Nuclear Orientation (Angstroms)
    I     Atom         X            Y            Z
 ----------------------------------------------------
    1      C       0.000000     0.000000     1.000000
    2      C       1.264552     0.759292     1.000000
    3      C       1.264553    -0.759292     1.000000
    4      C      -1.264553     0.000000     0.240708
    5      C      -1.264553     0.000000     1.759292
    6      H       1.565862     1.261530     1.914725
    7      H       1.565862     1.261530     0.085275
    8      H       1.565862    -1.261530     1.914725
    9      H       1.565862    -1.261530     0.085275
   10      H      -1.565862    -0.914725    -0.261530
   11      H      -1.565862     0.914725    -0.261530
   12      H      -1.565862    -0.914725     2.261530
   13      H      -1.565862     0.914725     2.261530
 ----------------------------------------------------
 Nuclear Repulsion Energy =   171.0446590274 hartrees
 There are       19 alpha and       19 beta electrons
 Applying Cartesian multipole field
    Component          Value
    ---------          -----
     (2,0,0)        1.00000E-11
     (0,2,0)        2.00000E-11
     (0,0,2)       -3.00000E-11
 Nucleus-field energy     =    -0.0000000026 hartrees
 Requested basis set is G3large
 There are 98 shells and 290 basis functions
 A cutoff of  1.0D-11 yielded   4591 shell pairs
 There are  40493 function pairs ( 49523 Cartesian)
Evaluating contribution to one-electron hamiltonian from nuclear
 Smallest overlap matrix eigenvalue = 2.58E-05
 Multipole matrices computed through 2nd order
 Guess MOs from SCF MO coefficient file
Reading MOs from coefficient file
Reading MOs from coefficient file
 Long-range K will be added via erf
 Coulomb attenuation parameter = 0.31 bohr**(-1)
 A restricted Kohn-Sham SCF calculation will be
 performed using Pulay DIIS extrapolation
 Exchange:  wPBE + LR-HF      Correlation:  PBE
 Using SG-1 standard quadrature grid
 SCF converges when DIIS error is below 1.0E-08
 Requested basis set is G3large
 There are 98 shells and 290 basis functions
 A cutoff of  1.0D-11 yielded   4591 shell pairs
 There are  40493 function pairs ( 49523 Cartesian)
 ---------------------------------------
  Cycle       Energy         DIIS Error
 ---------------------------------------
    1    -195.1720961059      2.64E-06
    2    -195.1720756184      6.20E-07
    3    -195.1720758289      5.58E-07
    4    -195.1720757207      2.46E-08
    5    -195.1720757238      8.15E-09 Convergence criterion met
 ---------------------------------------
 One-Electron    Energy =  -599.9140984557
 Total Coulomb   Energy =   263.7183907575
 Alpha Exchange  Energy =    -3.0398982355
 Beta  Exchange  Energy =    -3.0398982355
 DFT   Exchange  Energy =   -22.6953168632
 DFT Correlation Energy =    -1.2459137161
 Nuclear Repu.   Energy =   171.0446590248
 Nuclear Attr.   Energy =  -794.1285655426
 Kinetic         Energy =   194.2144670869
 SCF time:  CPU 230.00 s  wall 233.61 s
 Final Alpha MO Eigenvalues
            1           2           3           4           5           6
    1 -10.0655542 -10.0522129 -10.0522081 -10.0521017 -10.0521017  -0.9884452
            7           8           9          10          11          12
    1  -0.9045715  -0.7069412  -0.7069412  -0.6442724  -0.5857811  -0.5745526
           13          14          15          16          17          18
    1  -0.5745526  -0.4651905  -0.4514839  -0.4502844  -0.3816481  -0.3816481
           19          20          21          22          23          24
    1  -0.3703003   0.0413493   0.0529324   0.0529324   0.0575705   0.0762359
 Analysis of SCF Wavefunction
 
 --------------------------------------------------------------
                    Orbital Energies (a.u.)
 --------------------------------------------------------------
 
 Alpha MOs
 -- Occupied --
-10.066 -10.052 -10.052 -10.052 -10.052  -0.988  -0.905  -0.707
 -0.707  -0.644  -0.586  -0.575  -0.575  -0.465  -0.451  -0.450
 -0.382  -0.382  -0.370
 -- Virtual --
  0.041   0.053   0.053   0.058   0.076   0.076   0.081   0.098
  0.100   0.122   0.148   0.148   0.159   0.164   0.166   0.166
  0.183   0.184   0.184   0.196   0.207   0.207   0.219   0.234
  0.235   0.237   0.237   0.245   0.245   0.258   0.302   0.302
  0.303   0.333   0.353   0.353   0.369   0.388   0.421   0.421
  0.435   0.435   0.491   0.541   0.559   0.559   0.560   0.586
  0.586   0.620   0.641   0.641   0.662   0.672   0.677   0.689
  0.689   0.705   0.705   0.723   0.732   0.743   0.743   0.748
  0.763   0.798   0.848   0.890   0.890   0.896   0.912   0.941
  0.969   0.994   1.002   1.002   1.073   1.125   1.125   1.151
  1.178   1.198   1.198   1.207   1.227   1.227   1.263   1.275
  1.275   1.333   1.333   1.388   1.395   1.395   1.419   1.443
  1.443   1.465   1.469   1.492   1.499   1.505   1.542   1.542
  1.562   1.564   1.589   1.637   1.653   1.653   1.667   1.681
  1.681   1.685   1.742   1.850   1.883   1.883   1.911   2.549
  2.549   2.631   2.670   2.700   2.700   2.722   2.733   2.765
  2.765   2.772   2.822   2.859   2.859   2.907   2.963   2.977
  2.977   2.982   3.012   3.069   3.069   3.085   3.092   3.144
  3.144   3.160   3.160   3.174   3.206   3.210   3.251   3.274
  3.306   3.306   3.327   3.356   3.422   3.422   3.432   3.465
  3.465   3.518   3.518   3.528   3.547   3.578   3.578   3.623
  3.623   3.639   3.679   3.679   3.693   3.767   3.864   3.894
  3.943   3.960   3.960   4.019   4.019   4.046   4.133   4.183
  4.183   4.185   4.187   4.220   4.220   4.309   4.334   4.342
  4.343   4.422   4.427   4.429   4.439   4.439   4.482   4.482
  4.573   4.573   4.603   4.607   4.607   4.642   4.681   4.788
  4.805   4.979   4.979   5.051   5.051   5.172   5.337   5.466
  5.527   5.527   5.566   5.680   5.680   5.685   5.719   5.831
  5.831   5.863  24.108  24.132  24.388  24.388  24.459  27.485
 27.545  27.599  27.599  27.986  28.076  28.101  28.101  28.119
 28.143  28.143  28.158  28.545  28.545  28.984  40.863  40.880
 40.901  40.965  40.973  40.973  40.975  41.016  41.020  41.020
 41.135  41.141  41.141  41.147  41.147  41.159  41.181  41.195
 41.245  41.245  41.254  41.255  41.276  41.348  41.348
 --------------------------------------------------------------
 
          Ground-State Mulliken Net Atomic Charges

     Atom                 Charge (a.u.)
  ----------------------------------------
      1 C                     0.515728
      2 C                    -0.308034
      3 C                    -0.308034
      4 C                    -0.308034
      5 C                    -0.308034
      6 H                     0.089551
      7 H                     0.089551
      8 H                     0.089551
      9 H                     0.089551
     10 H                     0.089551
     11 H                     0.089551
     12 H                     0.089551
     13 H                     0.089551
  ----------------------------------------
  Sum of atomic charges =     0.000000

 -----------------------------------------------------------------
                    Cartesian Multipole Moments
 -----------------------------------------------------------------
    Charge (ESU x 10^10)
                 0.0000
    Dipole Moment (Debye)
         X       0.0000      Y       0.0000      Z       0.0000
       Tot       0.0000
    Quadrupole Moments (Debye-Ang)
        XX     -32.8589     XY       0.0000     YY     -30.7376
        XZ       0.0000     YZ       0.0000     ZZ     -30.7376
    Octapole Moments (Debye-Ang^2)
       XXX       0.0000    XXY       0.0000    XYY      -0.6493
       YYY       0.0000    XXZ     -32.8589    XYZ       0.0000
       YYZ     -30.7376    XZZ       0.6493    YZZ       0.0000
       ZZZ     -92.2128
    Hexadecapole Moments (Debye-Ang^3)
      XXXX    -349.0295   XXXY       0.0000   XXYY     -67.4175
      XYYY       0.0000   YYYY    -115.1230   XXXZ       0.0000
      XXYZ       0.0000   XYYZ      -0.6493   YYYZ       0.0000
      XXZZ    -100.2764   XYZZ       0.0000   YYZZ     -63.6006
      XZZZ       1.9480   YZZZ       0.0000   ZZZZ    -299.5486
 -----------------------------------------------------------------
 Calculating analytic gradient of the SCF energy
 Gradient of AOints
            1           2           3           4           5           6
    1  -0.0000001  -5.9088948  -5.9088956   5.9088955   5.9088954  -1.5478441
    2   0.0000007  -6.0852304   6.0852305  -0.0000001  -0.0000001  -2.3650902
    3   0.0000002  -0.0000002   0.0000002   6.0852302  -6.0852304  -3.4537565
            7           8           9          10          11          12
    1  -1.5478441  -1.5478441  -1.5478442   1.5478442   1.5478438   1.5478443
    2  -2.3650903   2.3650900   2.3650900   3.4537566  -3.4537566   3.4537565
    3   3.4537566  -3.4537567   3.4537566   2.3650902   2.3650903  -2.3650901
           13
    1   1.5478438
    2  -3.4537567
    3  -2.3650904
 Gradient of XC Energy
            1           2           3           4           5           6
    1   0.0000000   0.0476089   0.0476089  -0.0476089  -0.0476089   0.0533302
    2  -0.0000000   0.0763826  -0.0763826   0.0000000   0.0000000   0.0917855
    3  -0.0000000   0.0000000  -0.0000000  -0.0763826   0.0763826   0.1610862
            7           8           9          10          11          12
    1   0.0533302   0.0533302   0.0533302  -0.0533302  -0.0533302  -0.0533302
    2   0.0917855  -0.0917855  -0.0917855  -0.1610862   0.1610862  -0.1610862
    3  -0.1610862   0.1610862  -0.1610862  -0.0917855  -0.0917855   0.0917855
           13
    1  -0.0533302
    2   0.1610862
    3   0.0917855
 Gradient of SCF Energy
            1           2           3           4           5           6
    1  -0.0000000  -0.0000298  -0.0000298   0.0000298   0.0000298   0.0000055
    2  -0.0000000  -0.0000340   0.0000340  -0.0000000  -0.0000000   0.0000101
    3   0.0000000  -0.0000000  -0.0000000   0.0000340  -0.0000340  -0.0000045
            7           8           9          10          11          12
    1   0.0000055   0.0000055   0.0000055  -0.0000055  -0.0000055  -0.0000055
    2   0.0000101  -0.0000101  -0.0000101   0.0000045  -0.0000045   0.0000045
    3   0.0000045  -0.0000045   0.0000045  -0.0000101  -0.0000101   0.0000101
           13
    1  -0.0000055
    2  -0.0000045
    3   0.0000101
 Max gradient component =       3.398E-05
 RMS gradient           =       1.552E-05
 Gradient time:  CPU 248.80 s  wall 249.99 s
 Geometry Optimization Parameters
   NAtoms,    NIC,     NZ,  NCons,   NDum,   NFix, NCnnct, MaxDiis
       13     118      16       0       0       0       0       0

 Cartesian Hessian Update
 Hessian Updated using BFGS Update


** GEOMETRY OPTIMIZATION IN DELOCALIZED INTERNAL COORDINATES **
   Searching for a Minimum

   Optimization Cycle:   4

                       Coordinates (Angstroms)
     ATOM              X           Y           Z
    1  C           0.000000    0.000000    1.000000
    2  C           1.264552    0.759292    1.000000
    3  C           1.264553   -0.759292    1.000000
    4  C          -1.264553    0.000000    0.240708
    5  C          -1.264553    0.000000    1.759292
    6  H           1.565862    1.261530    1.914725
    7  H           1.565862    1.261530    0.085275
    8  H           1.565862   -1.261530    1.914725
    9  H           1.565862   -1.261530    0.085275
   10  H          -1.565862   -0.914725   -0.261530
   11  H          -1.565862    0.914725   -0.261530
   12  H          -1.565862   -0.914725    2.261530
   13  H          -1.565862    0.914725    2.261530
   Point Group: c1    Number of degrees of freedom:  33


   Energy is   -195.172075724

 Hessian Updated using BFGS Update

 12 Hessian modes will be used to form the next step
  Hessian Eigenvalues:
     0.023609    0.024237    0.027442    0.063541    0.092533    0.094162
     0.249649    0.284245    0.292808    0.324744    0.350257    0.353557

 Minimum Search - Taking Simple RFO Step
 Searching for Lamda that Minimizes Along All modes
 Value Taken    Lamda =   0.00000000
 Step Taken.  Stepsize is  0.000533

                             Maximum     Tolerance    Cnvgd?
         Gradient           0.000037      0.000300     YES
         Displacement       0.000398      0.001200     YES
         Energy change      0.000000      0.000001     YES


                       Distance Matrix (Angstroms)
             C (  1)   C (  2)   C (  3)   C (  4)   C (  5)   H (  6)
   C (  2)  1.474997
   C (  3)  1.474997  1.518583
   C (  4)  1.474997  2.747621  2.747621
   C (  5)  1.474997  2.747621  2.747621  1.518583
   H (  6)  2.209096  1.086164  2.238578  3.522078  3.102719
   H (  7)  2.209096  1.086164  2.238578  3.102719  3.522078  1.829449
   H (  8)  2.209096  2.238578  1.086164  3.522078  3.102719  2.523061
   H (  9)  2.209096  2.238578  1.086164  3.102719  3.522078  3.116524
   H ( 10)  2.209096  3.522078  3.102719  1.086164  2.238578  4.390884
   H ( 11)  2.209095  3.102719  3.522078  1.086164  2.238578  3.829367
   H ( 12)  2.209096  3.522078  3.102719  2.238578  1.086164  3.829367
   H ( 13)  2.209095  3.102719  3.522078  2.238578  1.086164  3.169896
             H (  7)   H (  8)   H (  9)   H ( 10)   H ( 11)   H ( 12)
   H (  8)  3.116524
   H (  9)  2.523061  1.829449
   H ( 10)  3.829367  3.829367  3.169896
   H ( 11)  3.169896  4.390884  3.829367  1.829449
   H ( 12)  4.390884  3.169896  3.829367  2.523061  3.116524
   H ( 13)  3.829367  3.829367  4.390884  3.116524  2.523061  1.829449

 


 ******************************
 **  OPTIMIZATION CONVERGED  **
 ******************************
 Analysis of SCF Wavefunction
 
 --------------------------------------------------------------
                    Orbital Energies (a.u.)
 --------------------------------------------------------------
 
 Alpha MOs
 -- Occupied --
-10.066 -10.052 -10.052 -10.052 -10.052  -0.988  -0.905  -0.707
 -0.707  -0.644  -0.586  -0.575  -0.575  -0.465  -0.451  -0.450
 -0.382  -0.382  -0.370
 -- Virtual --
  0.041   0.053   0.053   0.058   0.076   0.076   0.081   0.098
  0.100   0.122   0.148   0.148   0.159   0.164   0.166   0.166
  0.183   0.184   0.184   0.196   0.207   0.207   0.219   0.234
  0.235   0.237   0.237   0.245   0.245   0.258   0.302   0.302
  0.303   0.333   0.353   0.353   0.369   0.388   0.421   0.421
  0.435   0.435   0.491   0.541   0.559   0.559   0.560   0.586
  0.586   0.620   0.641   0.641   0.662   0.672   0.677   0.689
  0.689   0.705   0.705   0.723   0.732   0.743   0.743   0.748
  0.763   0.798   0.848   0.890   0.890   0.896   0.912   0.941
  0.969   0.994   1.002   1.002   1.073   1.125   1.125   1.151
  1.178   1.198   1.198   1.207   1.227   1.227   1.263   1.275
  1.275   1.333   1.333   1.388   1.395   1.395   1.419   1.443
  1.443   1.465   1.469   1.492   1.499   1.505   1.542   1.542
  1.562   1.564   1.589   1.637   1.653   1.653   1.667   1.681
  1.681   1.685   1.742   1.850   1.883   1.883   1.911   2.549
  2.549   2.631   2.670   2.700   2.700   2.722   2.733   2.765
  2.765   2.772   2.822   2.859   2.859   2.907   2.963   2.977
  2.977   2.982   3.012   3.069   3.069   3.085   3.092   3.144
  3.144   3.160   3.160   3.174   3.206   3.210   3.251   3.274
  3.306   3.306   3.327   3.356   3.422   3.422   3.432   3.465
  3.465   3.518   3.518   3.528   3.547   3.578   3.578   3.623
  3.623   3.639   3.679   3.679   3.693   3.767   3.864   3.894
  3.943   3.960   3.960   4.019   4.019   4.046   4.133   4.183
  4.183   4.185   4.187   4.220   4.220   4.309   4.334   4.342
  4.343   4.422   4.427   4.429   4.439   4.439   4.482   4.482
  4.573   4.573   4.603   4.607   4.607   4.642   4.681   4.788
  4.805   4.979   4.979   5.051   5.051   5.172   5.337   5.466
  5.527   5.527   5.566   5.680   5.680   5.685   5.719   5.831
  5.831   5.863  24.108  24.132  24.388  24.388  24.459  27.485
 27.545  27.599  27.599  27.986  28.076  28.101  28.101  28.119
 28.143  28.143  28.158  28.545  28.545  28.984  40.863  40.880
 40.901  40.965  40.973  40.973  40.975  41.016  41.020  41.020
 41.135  41.141  41.141  41.147  41.147  41.159  41.181  41.195
 41.245  41.245  41.254  41.255  41.276  41.348  41.348
 --------------------------------------------------------------
 
          Ground-State Mulliken Net Atomic Charges

     Atom                 Charge (a.u.)
  ----------------------------------------
      1 C                     0.515728
      2 C                    -0.308034
      3 C                    -0.308034
      4 C                    -0.308034
      5 C                    -0.308034
      6 H                     0.089551
      7 H                     0.089551
      8 H                     0.089551
      9 H                     0.089551
     10 H                     0.089551
     11 H                     0.089551
     12 H                     0.089551
     13 H                     0.089551
  ----------------------------------------
  Sum of atomic charges =     0.000000

 -----------------------------------------------------------------
                    Cartesian Multipole Moments
 -----------------------------------------------------------------
    Charge (ESU x 10^10)
                 0.0000
    Dipole Moment (Debye)
         X       0.0000      Y       0.0000      Z       0.0000
       Tot       0.0000
    Quadrupole Moments (Debye-Ang)
        XX     -32.8589     XY       0.0000     YY     -30.7376
        XZ       0.0000     YZ       0.0000     ZZ     -30.7376
    Octapole Moments (Debye-Ang^2)
       XXX       0.0000    XXY       0.0000    XYY      -0.6493
       YYY       0.0000    XXZ     -32.8589    XYZ       0.0000
       YYZ     -30.7376    XZZ       0.6493    YZZ       0.0000
       ZZZ     -92.2128
    Hexadecapole Moments (Debye-Ang^3)
      XXXX    -349.0295   XXXY       0.0000   XXYY     -67.4175
      XYYY       0.0000   YYYY    -115.1230   XXXZ       0.0000
      XXYZ       0.0000   XYYZ      -0.6493   YYYZ       0.0000
      XXZZ    -100.2764   XYZZ       0.0000   YYZZ     -63.6006
      XZZZ       1.9480   YZZZ       0.0000   ZZZZ    -299.5486
 -----------------------------------------------------------------
 Total job time:  2556.40s(wall), 2541.71s(cpu) 
 Wed May  1 13:19:40 2013

        *************************************************************
        *                                                           *
        *  Thank you very much for using Q-Chem.  Have a nice day.  *
        *                                                           *
        *************************************************************


0 sent ACK to 0 
now end server 0 ... 
 
**********************************************************************
Job 2 of 2 
**********************************************************************
 
Process 0 of 1 is on cl060.stfx.acenet.ca - thread support 1
initial socket setup ...start
initial socket setup ...done 
now start server 0 ... 

cmd = /usr/bin/ssh clhead /usr/local/qchem/bin/get_hostid 1699440320 > /scratch/tmp/5956774.1.short.q/qchem21309/lic.dat
                  Welcome to Q-Chem
     A Quantum Leap Into The Future Of Chemistry

 Y. Shao, L. Fusti-Molnar, Y. Jung, J. Kussmann, C. Ochsenfeld,
 S. T. Brown, A. T. B. Gilbert, L. V. Slipchenko,S. V. Levchenko,
 D. P. O'Neill, R. A. DiStasio Jr., R. C. Lochan, T. Wang,
 G. J. O. Beran, N. A. Besley, J. M. Herbert, C. Y. Lin,
 T. Van Voorhis, S. H. Chien, A. Sodt, R. P. Steele, 
 V. A. Rassolov, P. E. Maslen, P. P. Korambath, R. D. Adamson,
 B. Austin, J. Baker, E. F. C. Byrd, H. Dachsel, R. J. Doerksen,
 A. Dreuw, B. D. Dunietz, A. D. Dutoi, T. R. Furlani,
 S. R. Gwaltney, A. Heyden, S. Hirata, C.-P. Hsu, G. Kedziora,
 R. Z. Khaliullin, P. Klunzinger, A. M. Lee, M. S. Lee, W. Liang,
 I. Lotan, N. Nair, B. Peters, E. I. Proynov, P. A. Pieniazek, 
 Y. M. Rhee, J. Ritchie, E. Rosta, C. D. Sherrill, 
 A. C. Simmonett, J. E. Subotnik, H. L. Woodcock III,
 W. Zhang, A. T. Bell, A. K. Chakraborty, D. M. Chipman,
 F. J. Keil, A. Warshel, W. J. Hehre, H. F. Schaefer III,
 J. Kong, A. I. Krylov, P. M. W. Gill, M. Head-Gordon,
 Q-Chem, Version 3.1, Q-Chem, Inc., Pittsburgh, PA (2007).

 Additional authors for Version 3.1: 
 Z. Gan, Y. Zhao, N. E. Schultz, D. Truhlar, E. Epifanovsky and M. Oana.

 Additional authors for Version 3.2: 
 R. Baer, B. R. Brooks, D. Casanova, J.-D. Chai, C.-L. Cheng, 
 C. Cramer, D. Crittenden, A. Ghysels, G. Hawkins, E. G. Hohenstein, 
 C. Kelley, W. Kurlancheek, D. Liotard, E. Livshits, P. Manohar, 
 A. Marenich, D. Neuhauser, R. Olson, M. A. Rohrdanz, K. S. Thanthiriwatte, 
 A. J. W. Thom, V. Vanovschi, C. F. Williams, Q. Wu and Z.-Q. You. 


 Intel X86 Linux Version

 Q-chem begins on Wed May  1 13:19:43 2013  

 Parallel job on  1  processors
Processing $rem in /usr/local/qchem/config/preferences.

theFileMan(): MAXOPENFILES=974 MAX_SUB_FILE_NUM=16
Maximum size of a physical file is 2.0 GB, maximum size of a tmp-file is 32.0 GB


--------------------------------------------------------------
User input:
--------------------------------------------------------------

$molecule 
READ 
$end 

$xc_functional
C PBE   1.00
X wPBE  1.00
$end


$rem
SYMMETRY_DECOMPOSITION	0
LRC_DFT                 true
exchange 		general
BASIS                   g3large
omega			310 
JOBTYPE                 freq
IDERIV 1
SCF_GUESS READ
mem_static              760
max_scf_cycles          200
scf_final_print         1
sym_ignore              true
$end

--------------------------------------------------------------
 Writing REM_CC_EA           13
 ----------------------------------------------------
       Standard Nuclear Orientation (Angstroms)
    I     Atom         X            Y            Z
 ----------------------------------------------------
    1      C       0.000000     0.000000     1.000000
    2      C       1.264552     0.759292     1.000000
    3      C       1.264553    -0.759292     1.000000
    4      C      -1.264553     0.000000     0.240708
    5      C      -1.264553     0.000000     1.759292
    6      H       1.565862     1.261530     1.914725
    7      H       1.565862     1.261530     0.085275
    8      H       1.565862    -1.261530     1.914725
    9      H       1.565862    -1.261530     0.085275
   10      H      -1.565862    -0.914725    -0.261530
   11      H      -1.565862     0.914725    -0.261530
   12      H      -1.565862    -0.914725     2.261530
   13      H      -1.565862     0.914725     2.261530
 ----------------------------------------------------
 Nuclear Repulsion Energy =   171.0446590274 hartrees
 There are       19 alpha and       19 beta electrons
 Requested basis set is G3large
 There are 98 shells and 290 basis functions

Total QAlloc Memory Limit   2000 MB
Mega-Array Size       759 MB
MEM_STATIC part       760 MB

                       Distance Matrix (Angstroms)
             C (  1)   C (  2)   C (  3)   C (  4)   C (  5)   H (  6)
   C (  2)  1.474997
   C (  3)  1.474997  1.518583
   C (  4)  1.474997  2.747621  2.747621
   C (  5)  1.474997  2.747621  2.747621  1.518583
   H (  6)  2.209096  1.086164  2.238578  3.522078  3.102719
   H (  7)  2.209096  1.086164  2.238578  3.102719  3.522078  1.829449
   H (  8)  2.209096  2.238578  1.086164  3.522078  3.102719  2.523061
   H (  9)  2.209096  2.238578  1.086164  3.102719  3.522078  3.116524
   H ( 10)  2.209096  3.522078  3.102719  1.086164  2.238578  4.390884
   H ( 11)  2.209095  3.102719  3.522078  1.086164  2.238578  3.829367
   H ( 12)  2.209096  3.522078  3.102719  2.238578  1.086164  3.829367
   H ( 13)  2.209095  3.102719  3.522078  2.238578  1.086164  3.169896
             H (  7)   H (  8)   H (  9)   H ( 10)   H ( 11)   H ( 12)
   H (  8)  3.116524
   H (  9)  2.523061  1.829449
   H ( 10)  3.829367  3.829367  3.169896
   H ( 11)  3.169896  4.390884  3.829367  1.829449
   H ( 12)  4.390884  3.169896  3.829367  2.523061  3.116524
   H ( 13)  3.829367  3.829367  4.390884  3.116524  2.523061  1.829449

 
 A cutoff of  1.0D-11 yielded   4591 shell pairs
 There are  40493 function pairs ( 49523 Cartesian)
Evaluating contribution to one-electron hamiltonian from nuclear
 Smallest overlap matrix eigenvalue = 2.58E-05
 Multipole matrices computed through 2nd order
 Guess MOs from SCF MO coefficient file
Reading MOs from coefficient file
Reading MOs from coefficient file
 Long-range K will be added via erf
 Coulomb attenuation parameter = 0.31 bohr**(-1)
 A restricted Kohn-Sham SCF calculation will be
 performed using Pulay DIIS extrapolation
 Exchange:  wPBE + LR-HF      Correlation:  PBE
 Using SG-1 standard quadrature grid
 SCF converges when DIIS error is below 1.0E-08
 ---------------------------------------
  Cycle       Energy         DIIS Error
 ---------------------------------------
    1    -195.1720756286      3.59E-09
    2    -195.1720756251      2.52E-09 Convergence criterion met
 ---------------------------------------
 One-Electron    Energy =  -599.9140946762
 Total Coulomb   Energy =   263.7183866472
 Alpha Exchange  Energy =    -3.0398982262
 Beta  Exchange  Energy =    -3.0398982262
 DFT   Exchange  Energy =   -22.6953164769
 DFT Correlation Energy =    -1.2459136942
 Nuclear Repu.   Energy =   171.0446590274
 Nuclear Attr.   Energy =  -794.1285597813
 Kinetic         Energy =   194.2144651051
 SCF time:  CPU 108.47 s  wall 109.45 s
 Final Alpha MO Eigenvalues
            1           2           3           4           5           6
    1 -10.0655543 -10.0522132 -10.0522084 -10.0521020 -10.0521020  -0.9884453
            7           8           9          10          11          12
    1  -0.9045717  -0.7069413  -0.7069413  -0.6442725  -0.5857812  -0.5745527
           13          14          15          16          17          18
    1  -0.5745527  -0.4651906  -0.4514840  -0.4502845  -0.3816482  -0.3816482
           19          20          21          22          23          24
    1  -0.3703005   0.0413493   0.0529325   0.0529325   0.0575705   0.0762359
 Analysis of SCF Wavefunction
 
 --------------------------------------------------------------
                    Orbital Energies (a.u.)
 --------------------------------------------------------------
 
 Alpha MOs
 -- Occupied --
-10.066 -10.052 -10.052 -10.052 -10.052  -0.988  -0.905  -0.707
 -0.707  -0.644  -0.586  -0.575  -0.575  -0.465  -0.451  -0.450
 -0.382  -0.382  -0.370
 -- Virtual --
  0.041   0.053   0.053   0.058   0.076   0.076   0.081   0.098
  0.100   0.122   0.148   0.148   0.159   0.164   0.166   0.166
  0.183   0.184   0.184   0.196   0.207   0.207   0.219   0.234
  0.235   0.237   0.237   0.245   0.245   0.258   0.302   0.302
  0.303   0.333   0.353   0.353   0.369   0.388   0.421   0.421
  0.435   0.435   0.491   0.541   0.559   0.559   0.560   0.586
  0.586   0.620   0.641   0.641   0.662   0.672   0.677   0.689
  0.689   0.705   0.705   0.723   0.732   0.743   0.743   0.748
  0.763   0.798   0.848   0.890   0.890   0.896   0.912   0.941
  0.969   0.994   1.002   1.002   1.073   1.125   1.125   1.151
  1.178   1.198   1.198   1.207   1.227   1.227   1.263   1.275
  1.275   1.333   1.333   1.388   1.395   1.395   1.419   1.443
  1.443   1.465   1.469   1.492   1.499   1.505   1.542   1.542
  1.562   1.564   1.589   1.637   1.653   1.653   1.667   1.681
  1.681   1.685   1.742   1.850   1.883   1.883   1.911   2.549
  2.549   2.631   2.670   2.700   2.700   2.722   2.733   2.765
  2.765   2.772   2.822   2.859   2.859   2.907   2.963   2.977
  2.977   2.982   3.012   3.069   3.069   3.085   3.092   3.144
  3.144   3.160   3.160   3.174   3.206   3.210   3.251   3.274
  3.306   3.306   3.327   3.356   3.422   3.422   3.432   3.465
  3.465   3.518   3.518   3.528   3.547   3.578   3.578   3.623
  3.623   3.639   3.679   3.679   3.693   3.767   3.864   3.894
  3.943   3.960   3.960   4.019   4.019   4.046   4.133   4.183
  4.183   4.185   4.187   4.220   4.220   4.309   4.334   4.342
  4.343   4.422   4.427   4.429   4.439   4.439   4.482   4.482
  4.573   4.573   4.603   4.607   4.607   4.642   4.681   4.788
  4.805   4.979   4.979   5.051   5.051   5.172   5.337   5.466
  5.527   5.527   5.566   5.680   5.680   5.685   5.719   5.831
  5.831   5.863  24.108  24.132  24.388  24.388  24.459  27.485
 27.545  27.599  27.599  27.986  28.076  28.101  28.101  28.119
 28.143  28.143  28.158  28.545  28.545  28.984  40.863  40.880
 40.901  40.965  40.973  40.973  40.975  41.016  41.020  41.020
 41.135  41.141  41.141  41.147  41.147  41.159  41.181  41.195
 41.245  41.245  41.254  41.255  41.276  41.348  41.348
 --------------------------------------------------------------
 
          Ground-State Mulliken Net Atomic Charges

     Atom                 Charge (a.u.)
  ----------------------------------------
      1 C                     0.515729
      2 C                    -0.308035
      3 C                    -0.308035
      4 C                    -0.308035
      5 C                    -0.308035
      6 H                     0.089551
      7 H                     0.089551
      8 H                     0.089551
      9 H                     0.089551
     10 H                     0.089551
     11 H                     0.089551
     12 H                     0.089551
     13 H                     0.089551
  ----------------------------------------
  Sum of atomic charges =     0.000000

 -----------------------------------------------------------------
                    Cartesian Multipole Moments
 -----------------------------------------------------------------
    Charge (ESU x 10^10)
                 0.0000
    Dipole Moment (Debye)
         X       0.0000      Y       0.0000      Z       0.0000
       Tot       0.0000
    Quadrupole Moments (Debye-Ang)
        XX     -32.8589     XY       0.0000     YY     -30.7376
        XZ       0.0000     YZ       0.0000     ZZ     -30.7376
    Octapole Moments (Debye-Ang^2)
       XXX       0.0000    XXY       0.0000    XYY      -0.6493
       YYY       0.0000    XXZ     -32.8589    XYZ       0.0000
       YYZ     -30.7376    XZZ       0.6493    YZZ       0.0000
       ZZZ     -92.2128
    Hexadecapole Moments (Debye-Ang^3)
      XXXX    -349.0295   XXXY       0.0000   XXYY     -67.4174
      XYYY       0.0000   YYYY    -115.1230   XXXZ       0.0000
      XXYZ       0.0000   XYYZ      -0.6493   YYYZ       0.0000
      XXZZ    -100.2764   XYZZ       0.0000   YYZZ     -63.6006
      XZZZ       1.9480   YZZZ       0.0000   ZZZZ    -299.5486
 -----------------------------------------------------------------
 Calculating analytic gradient of the SCF energy
 Gradient of AOints
            1           2           3           4           5           6
    1  -0.0000000  -5.9088928  -5.9088933   5.9088931   5.9088932  -1.5478449
    2   0.0000010  -6.0852309   6.0852308  -0.0000001  -0.0000002  -2.3650901
    3  -0.0000000  -0.0000000   0.0000000   6.0852308  -6.0852308  -3.4537567
            7           8           9          10          11          12
    1  -1.5478449  -1.5478449  -1.5478449   1.5478451   1.5478446   1.5478451
    2  -2.3650901   2.3650899   2.3650899   3.4537567  -3.4537568   3.4537567
    3   3.4537567  -3.4537568   3.4537568   2.3650900   2.3650902  -2.3650900
           13
    1   1.5478446
    2  -3.4537568
    3  -2.3650902
 Gradient of XC Energy
            1           2           3           4           5           6
    1   0.0000000   0.0476088   0.0476089  -0.0476089  -0.0476089   0.0533302
    2  -0.0000000   0.0763826  -0.0763826   0.0000000   0.0000000   0.0917855
    3   0.0000000   0.0000000  -0.0000000  -0.0763826   0.0763826   0.1610862
            7           8           9          10          11          12
    1   0.0533302   0.0533302   0.0533302  -0.0533302  -0.0533302  -0.0533302
    2   0.0917855  -0.0917855  -0.0917855  -0.1610862   0.1610862  -0.1610862
    3  -0.1610862   0.1610862  -0.1610862  -0.0917855  -0.0917855   0.0917855
           13
    1  -0.0533302
    2   0.1610862
    3   0.0917855
 Gradient of SCF Energy
            1           2           3           4           5           6
    1  -0.0000000  -0.0000298  -0.0000298   0.0000298   0.0000298   0.0000055
    2  -0.0000000  -0.0000340   0.0000340  -0.0000000  -0.0000000   0.0000101
    3   0.0000000  -0.0000000  -0.0000000   0.0000340  -0.0000340  -0.0000045
            7           8           9          10          11          12
    1   0.0000055   0.0000055   0.0000055  -0.0000055  -0.0000055  -0.0000055
    2   0.0000101  -0.0000101  -0.0000101   0.0000045  -0.0000045   0.0000045
    3   0.0000045  -0.0000045   0.0000045  -0.0000101  -0.0000101   0.0000101
           13
    1  -0.0000055
    2  -0.0000045
    3   0.0000101
 Max gradient component =       3.400E-05
 RMS gradient           =       1.553E-05
 Gradient time:  CPU 251.08 s  wall 251.56 s
 ######################################################
 ######################################################
 # Starting finite difference calculation for IDERIV  #
 Finite diff step size: 1.89e-03 a.u.
 Writing REM_CC_EA           13
 ----------------------------------------------------
       Standard Nuclear Orientation (Angstroms)
    I     Atom         X            Y            Z
 ----------------------------------------------------
    1      C       0.001000     0.000000     1.000000
    2      C       1.264552     0.759292     1.000000
    3      C       1.264553    -0.759292     1.000000
    4      C      -1.264553     0.000000     0.240708
    5      C      -1.264553     0.000000     1.759292
    6      H       1.565862     1.261530     1.914725
    7      H       1.565862     1.261530     0.085275
    8      H       1.565862    -1.261530     1.914725
    9      H       1.565862    -1.261530     0.085275
   10      H      -1.565862    -0.914725    -0.261530
   11      H      -1.565862     0.914725    -0.261530
   12      H      -1.565862    -0.914725     2.261530
   13      H      -1.565862     0.914725     2.261530
 ----------------------------------------------------
 Nuclear Repulsion Energy =   171.0446739321 hartrees
 There are       19 alpha and       19 beta electrons

                       Distance Matrix (Angstroms)
             C (  1)   C (  2)   C (  3)   C (  4)   C (  5)   H (  6)
   C (  2)  1.474140
   C (  3)  1.474140  1.518583
   C (  4)  1.475855  2.747621  2.747621
   C (  5)  1.475855  2.747621  2.747621  1.518583
   H (  6)  2.208387  1.086164  2.238578  3.522078  3.102719
   H (  7)  2.208387  1.086164  2.238578  3.102719  3.522078  1.829449
   H (  8)  2.208387  2.238578  1.086164  3.522078  3.102719  2.523061
   H (  9)  2.208387  2.238578  1.086164  3.102719  3.522078  3.116524
   H ( 10)  2.209804  3.522078  3.102719  1.086164  2.238578  4.390884
   H ( 11)  2.209804  3.102719  3.522078  1.086164  2.238578  3.829367
   H ( 12)  2.209804  3.522078  3.102719  2.238578  1.086164  3.829367
   H ( 13)  2.209804  3.102719  3.522078  2.238578  1.086164  3.169896
             H (  7)   H (  8)   H (  9)   H ( 10)   H ( 11)   H ( 12)
   H (  8)  3.116524
   H (  9)  2.523061  1.829449
   H ( 10)  3.829367  3.829367  3.169896
   H ( 11)  3.169896  4.390884  3.829367  1.829449
   H ( 12)  4.390884  3.169896  3.829367  2.523061  3.116524
   H ( 13)  3.829367  3.829367  4.390884  3.116524  2.523061  1.829449

 
 Requested basis set is G3large
 There are 98 shells and 290 basis functions
 A cutoff of  1.0D-11 yielded   4591 shell pairs
 There are  40493 function pairs ( 49523 Cartesian)
Evaluating contribution to one-electron hamiltonian from nuclear
 Smallest overlap matrix eigenvalue = 2.58E-05
 Multipole matrices computed through 2nd order
 Guess MOs from SCF MO coefficient file
Reading MOs from coefficient file
Reading MOs from coefficient file
 Long-range K will be added via erf
 Coulomb attenuation parameter = 0.31 bohr**(-1)
 A restricted Kohn-Sham SCF calculation will be
 performed using Pulay DIIS extrapolation
 Exchange:  wPBE + LR-HF      Correlation:  PBE
 Using SG-1 standard quadrature grid
 SCF converges when DIIS error is below 1.0E-08
 ---------------------------------------
  Cycle       Energy         DIIS Error
 ---------------------------------------
    1    -195.1720750702      2.80E-05
    2    -195.1720740050      3.07E-06
    3    -195.1720740880      1.71E-06
    4    -195.1720741077      4.34E-07
    5    -195.1720741124      1.14E-07
    6    -195.1720741132      1.01E-08
    7    -195.1720741106      1.73E-09 Convergence criterion met
 ---------------------------------------
 One-Electron    Energy =  -599.9141179025
 Total Coulomb   Energy =   263.7183971837
 Alpha Exchange  Energy =    -3.0398981895
 Beta  Exchange  Energy =    -3.0398981895
 DFT   Exchange  Energy =   -22.6953172621
 DFT Correlation Energy =    -1.2459136827
 Nuclear Repu.   Energy =   171.0446739321
 Nuclear Attr.   Energy =  -794.1285890198
 Kinetic         Energy =   194.2144711173
 SCF time:  CPU 308.16 s  wall 309.71 s
 Final Alpha MO Eigenvalues
            1           2           3           4           5           6
    1 -10.0655540 -10.0522586 -10.0521629 -10.0521497 -10.0520542  -0.9884463
            7           8           9          10          11          12
    1  -0.9045710  -0.7069877  -0.7068951  -0.6442724  -0.5857812  -0.5746254
           13          14          15          16          17          18
    1  -0.5744802  -0.4651906  -0.4514841  -0.4502845  -0.3819057  -0.3813908
           19          20          21          22          23          24
    1  -0.3703003   0.0413493   0.0529306   0.0529344   0.0575705   0.0762272
 Analysis of SCF Wavefunction
 
 --------------------------------------------------------------
                    Orbital Energies (a.u.)
 --------------------------------------------------------------
 
 Alpha MOs
 -- Occupied --
-10.066 -10.052 -10.052 -10.052 -10.052  -0.988  -0.905  -0.707
 -0.707  -0.644  -0.586  -0.575  -0.574  -0.465  -0.451  -0.450
 -0.382  -0.381  -0.370
 -- Virtual --
  0.041   0.053   0.053   0.058   0.076   0.076   0.081   0.098
  0.100   0.122   0.148   0.148   0.159   0.164   0.166   0.166
  0.183   0.184   0.184   0.196   0.207   0.207   0.219   0.234
  0.235   0.237   0.237   0.245   0.245   0.258   0.302   0.302
  0.303   0.333   0.353   0.353   0.369   0.388   0.421   0.421
  0.435   0.435   0.491   0.541   0.558   0.559   0.560   0.586
  0.586   0.620   0.641   0.642   0.662   0.672   0.677   0.689
  0.689   0.705   0.705   0.723   0.732   0.743   0.743   0.748
  0.763   0.798   0.848   0.890   0.890   0.896   0.912   0.941
  0.969   0.994   1.002   1.002   1.073   1.125   1.125   1.151
  1.178   1.198   1.198   1.207   1.227   1.227   1.263   1.275
  1.275   1.333   1.333   1.388   1.395   1.395   1.419   1.443
[...]
               X      Y      Z        X      Y      Z        X      Y      Z
 C          0.000  0.000  0.000    0.000  0.239 -0.044    0.000  0.044  0.239
 C          0.000  0.000 -0.130    0.159  0.000  0.015    0.029  0.000 -0.081
 C          0.000  0.000  0.130   -0.159  0.000  0.015   -0.029  0.000 -0.080
 C          0.000  0.130  0.000   -0.029 -0.081  0.000    0.159 -0.015  0.000
 C          0.000 -0.130  0.000    0.029 -0.081  0.000   -0.159 -0.015  0.000
 H          0.081  0.197 -0.266    0.213 -0.059  0.029    0.373 -0.048 -0.168
 H         -0.081 -0.197 -0.266    0.331 -0.072  0.032   -0.273  0.024 -0.167
 H         -0.081  0.197  0.267   -0.331 -0.072  0.032    0.273  0.024 -0.167
 H          0.081 -0.197  0.267   -0.213 -0.058  0.029   -0.373 -0.048 -0.167
 H         -0.081  0.266 -0.197    0.273 -0.167 -0.024    0.331 -0.032 -0.072
 H          0.081  0.266  0.197   -0.373 -0.168  0.048    0.213 -0.029 -0.058
 H          0.081 -0.267 -0.197    0.373 -0.168  0.048   -0.213 -0.029 -0.059
 H         -0.081 -0.267  0.197   -0.273 -0.167 -0.024   -0.331 -0.032 -0.072
 TransDip   0.000  0.000  0.000    0.000 -0.015  0.003    0.000 -0.003 -0.015

 Mode:                 4                      5                      6
 Frequency:       626.67                 784.79                 784.86
 Force Cnst:      0.7991                 0.3722                 0.3723
 Red. Mass:       3.4538                 1.0257                 1.0257
 IR Active:          YES                    YES                    YES
 IR Intens:        0.000                  0.697                  0.696
 Raman Active:       YES                    YES                    YES
               X      Y      Z        X      Y      Z        X      Y      Z
 C          0.000  0.000  0.000    0.000  0.000  0.004    0.000 -0.004  0.000
 C         -0.226  0.066  0.000    0.002  0.001  0.020   -0.017 -0.010  0.002
 C         -0.226 -0.066  0.000   -0.002  0.001  0.020    0.017 -0.010  0.002
 C          0.226  0.000 -0.066    0.017  0.002  0.010    0.002 -0.020  0.001
 C          0.226  0.000  0.066   -0.017  0.003  0.010   -0.002 -0.020  0.001
 H         -0.302  0.078  0.014   -0.104  0.443 -0.191   -0.050  0.053 -0.021
 H         -0.302  0.078 -0.014    0.113 -0.443 -0.191   -0.024 -0.055 -0.025
 H         -0.302 -0.078  0.014   -0.112 -0.443 -0.191    0.024 -0.055 -0.025
 H         -0.301 -0.078 -0.014    0.103  0.444 -0.191    0.050  0.053 -0.022
 H          0.302 -0.014 -0.078    0.023 -0.025  0.055    0.112  0.191 -0.443
 H          0.301  0.014 -0.078    0.050 -0.021 -0.053   -0.103  0.191  0.444
 H          0.302 -0.014  0.078   -0.050 -0.022 -0.053    0.103  0.191  0.443
 H          0.302  0.014  0.078   -0.024 -0.025  0.055   -0.112  0.191 -0.443
 TransDip   0.000  0.000  0.000    0.000 -0.003 -0.027    0.000  0.027 -0.003

 Mode:                 7                      8                      9
 Frequency:       833.42                 908.52                 908.52
 Force Cnst:      0.4524                 0.9338                 0.9338
 Red. Mass:       1.1055                 1.9202                 1.9202
 IR Active:          YES                    YES                    YES
 IR Intens:        0.000                  6.005                  6.000
 Raman Active:       YES                    YES                    YES
               X      Y      Z        X      Y      Z        X      Y      Z
 C          0.000  0.000  0.000    0.000 -0.111 -0.051    0.000  0.051 -0.111
 C          0.000  0.000 -0.047    0.117  0.100 -0.030   -0.055 -0.047 -0.065
 C          0.000  0.000  0.047   -0.117  0.100 -0.030    0.055 -0.047 -0.065
 C          0.000 -0.047  0.000    0.055 -0.065  0.047    0.117  0.030  0.100
 C          0.000  0.047  0.000   -0.055 -0.065  0.047   -0.117  0.030  0.100
 H         -0.324 -0.086  0.107    0.068 -0.013  0.049   -0.453 -0.095  0.090
 H          0.324  0.086  0.107    0.390  0.064  0.037    0.240  0.071  0.096
 H          0.324 -0.085 -0.107   -0.390  0.064  0.037   -0.240  0.071  0.096
 H         -0.324  0.085 -0.107   -0.068 -0.013  0.049    0.453 -0.095  0.090
 H         -0.324  0.107 -0.085   -0.240  0.096 -0.071    0.390 -0.037  0.064
 H          0.324  0.107  0.085    0.453  0.090  0.095    0.068 -0.049 -0.013
 H          0.324 -0.107 -0.085   -0.453  0.090  0.095   -0.068 -0.049 -0.013
 H         -0.324 -0.107  0.085    0.240  0.096 -0.071   -0.390 -0.037  0.064
 TransDip   0.000  0.000  0.000    0.000 -0.071 -0.033    0.000  0.033 -0.071

 Mode:                10                     11                     12
 Frequency:       949.81                1013.14                1018.41
 Force Cnst:      1.4481                 0.7144                 0.8737
 Red. Mass:       2.7244                 1.1813                 1.4298
 IR Active:          YES                    YES                    YES
 IR Intens:       32.366                  0.000                  7.589
 Raman Active:       YES                    YES                    YES
               X      Y      Z        X      Y      Z        X      Y      Z
 C         -0.163  0.000  0.000    0.000  0.000  0.000    0.029  0.000  0.000
 C          0.013 -0.179  0.000    0.000  0.000  0.063   -0.060  0.076  0.000
 C          0.013  0.180  0.000    0.000  0.000 -0.063   -0.060 -0.076  0.000
 C          0.013  0.000 -0.180    0.000 -0.063  0.000   -0.060  0.000  0.076
 C          0.013  0.000  0.180    0.000  0.063  0.000   -0.060  0.000 -0.076
 H          0.168 -0.278 -0.003    0.345  0.021 -0.063    0.316 -0.142 -0.001
 H          0.168 -0.278  0.003   -0.344 -0.021 -0.063    0.317 -0.142  0.001
 H          0.168  0.278 -0.003   -0.344  0.021  0.063    0.317  0.142 -0.001
 H          0.167  0.278  0.003    0.345 -0.021  0.063    0.315  0.142  0.001
 H          0.168 -0.003 -0.278   -0.344  0.063 -0.021    0.317 -0.001 -0.142
 H          0.168  0.003 -0.278    0.345  0.063  0.021    0.315  0.001 -0.142
 H          0.167 -0.003  0.278    0.345 -0.063 -0.021    0.316 -0.001  0.142
 H          0.168  0.003  0.278   -0.344 -0.063  0.021    0.317  0.001  0.142
 TransDip   0.182  0.000  0.000    0.000  0.000  0.000    0.088  0.000  0.000

 Mode:                13                     14                     15
 Frequency:      1053.21                1081.06                1081.07
 Force Cnst:      0.8410                 1.0135                 1.0135
 Red. Mass:       1.2869                 1.4718                 1.4718
 IR Active:          YES                    YES                    YES
 IR Intens:        0.000                  1.514                  1.527
 Raman Active:       YES                    YES                    YES
               X      Y      Z        X      Y      Z        X      Y      Z
 C          0.000  0.000  0.000    0.000  0.011 -0.004    0.000 -0.004 -0.011
 C          0.075  0.027  0.000    0.132 -0.041  0.003   -0.043  0.013  0.008
 C          0.075 -0.027  0.000   -0.131 -0.041  0.003    0.043  0.013  0.008
 C         -0.075  0.000 -0.027   -0.043 -0.008  0.013   -0.132  0.003  0.041
 C         -0.075  0.000  0.027    0.043 -0.008  0.013    0.132  0.003  0.041
 H         -0.235  0.257 -0.017   -0.374  0.253  0.008    0.169 -0.083 -0.009
 H         -0.235  0.257  0.017   -0.402  0.254 -0.012    0.083 -0.081 -0.002
 H         -0.235 -0.258 -0.017    0.402  0.253 -0.012   -0.083 -0.081 -0.002
 H         -0.235 -0.258  0.017    0.374  0.253  0.008   -0.169 -0.083 -0.009
 H          0.235  0.017 -0.257    0.083  0.002 -0.081    0.402 -0.012 -0.253
 H          0.235 -0.017 -0.257    0.169  0.009 -0.083    0.374  0.008 -0.253
 H          0.235  0.017  0.257   -0.169  0.009 -0.083   -0.374  0.008 -0.253
 H          0.235 -0.017  0.257   -0.083  0.002 -0.081   -0.402 -0.012 -0.253
 TransDip   0.000  0.000  0.000    0.000  0.037 -0.012    0.000 -0.012 -0.038

 Mode:                16                     17                     18
 Frequency:      1114.00                1160.17                1169.18
 Force Cnst:      2.3881                 0.9898                 1.0722
 Red. Mass:       3.2661                 1.2481                 1.3313
 IR Active:          YES                    YES                    YES
 IR Intens:        0.000                  0.000                  0.000
 Raman Active:       YES                    YES                    YES
               X      Y      Z        X      Y      Z        X      Y      Z
 C          0.000  0.000  0.000    0.000  0.000  0.000    0.000  0.000  0.000
 C         -0.007 -0.227  0.000    0.000  0.000 -0.074    0.000  0.000  0.086
 C         -0.007  0.227  0.000    0.000  0.000  0.074    0.000  0.000 -0.086
 C          0.007  0.000  0.227    0.000 -0.074  0.000    0.000 -0.086  0.000
 C          0.007  0.000 -0.227    0.000  0.074  0.000    0.000  0.086  0.000
 H         -0.293 -0.114  0.020    0.159 -0.309  0.041   -0.121  0.323 -0.048
 H         -0.293 -0.114 -0.020   -0.159  0.309  0.041    0.121 -0.323 -0.048
 H         -0.293  0.114  0.020   -0.159 -0.309 -0.041    0.121  0.323  0.048
 H         -0.293  0.114 -0.020    0.159  0.309 -0.041   -0.121 -0.323  0.048
 H          0.293 -0.021  0.114    0.159  0.041 -0.309    0.121  0.048 -0.323
 H          0.293  0.020  0.114   -0.158  0.041  0.309   -0.121  0.048  0.323
 H          0.293 -0.020 -0.114   -0.158 -0.041 -0.309   -0.121 -0.048 -0.323
 H          0.293  0.020 -0.114    0.159 -0.041  0.309    0.121 -0.048  0.323
 TransDip   0.000  0.000  0.000    0.000  0.000  0.000    0.000  0.000  0.000

 Mode:                19                     20                     21
 Frequency:      1187.88                1187.88                1422.96
 Force Cnst:      1.9205                 1.9206                 1.3916
 Red. Mass:       2.3100                 2.3101                 1.1665
 IR Active:          YES                    YES                    YES
 IR Intens:        2.365                  2.361                  0.541
 Raman Active:       YES                    YES                    YES
               X      Y      Z        X      Y      Z        X      Y      Z
 C          0.000  0.158  0.240    0.000  0.240 -0.158    0.116  0.000  0.000
 C         -0.043 -0.035 -0.073   -0.066 -0.053  0.048   -0.003  0.015  0.000
 C          0.043 -0.035 -0.073    0.066 -0.053  0.048   -0.003 -0.015  0.000
 C         -0.066 -0.048 -0.053    0.043 -0.073  0.035   -0.003  0.000  0.015
 C          0.066 -0.048 -0.053   -0.043 -0.073  0.035   -0.003  0.000 -0.015
 H         -0.412 -0.045  0.055    0.204 -0.016 -0.062   -0.155 -0.255  0.184
 H          0.351  0.003  0.079   -0.297 -0.047 -0.026   -0.155 -0.255 -0.184
 H         -0.351  0.003  0.079    0.297 -0.047 -0.026   -0.155  0.255  0.184
 H          0.412 -0.045  0.055   -0.204 -0.016 -0.062   -0.155  0.255 -0.184
 H         -0.297  0.026 -0.047   -0.351  0.079 -0.003   -0.155  0.184 -0.255
 H          0.204  0.062 -0.016    0.412  0.055  0.045   -0.155 -0.184 -0.255
 H         -0.204  0.062 -0.016   -0.412  0.055  0.045   -0.155  0.184  0.255
 H          0.297  0.026 -0.047    0.351  0.079 -0.003   -0.155 -0.184  0.255
 TransDip   0.000  0.027  0.041    0.000  0.041 -0.027   -0.024  0.000  0.000

 Mode:                22                     23                     24
 Frequency:      1443.99                1444.00                1479.60
 Force Cnst:      1.3446                 1.3446                 1.5615
 Red. Mass:       1.0945                 1.0945                 1.2106
 IR Active:          YES                    YES                    YES
 IR Intens:        3.890                  3.897                  0.000
 Raman Active:       YES                    YES                    YES
               X      Y      Z        X      Y      Z        X      Y      Z
 C          0.000  0.002 -0.011    0.000 -0.011 -0.002    0.000  0.000  0.000
 C          0.005  0.011  0.002   -0.027 -0.055  0.000    0.040  0.055  0.000
 C         -0.005  0.011  0.002    0.027 -0.055  0.000    0.040 -0.055  0.000
 C         -0.027  0.000 -0.055   -0.005  0.002 -0.011   -0.040  0.000 -0.055
 C          0.027  0.000 -0.055    0.005  0.002 -0.011   -0.040  0.000  0.055
 H         -0.029 -0.072  0.056    0.198  0.346 -0.282   -0.155 -0.230  0.214
 H         -0.050 -0.067 -0.057    0.194  0.347  0.282   -0.155 -0.230 -0.214
 H          0.050 -0.067 -0.057   -0.194  0.348  0.282   -0.155  0.230  0.214
 H          0.029 -0.072  0.056   -0.198  0.346 -0.282   -0.155  0.230 -0.214
 H          0.194 -0.282  0.348    0.050 -0.057  0.067    0.155 -0.214  0.230
 H          0.198  0.282  0.346    0.029  0.056  0.072    0.155  0.214  0.230
 H         -0.198  0.282  0.346   -0.029  0.056  0.072    0.155 -0.214 -0.230
 H         -0.194 -0.282  0.348   -0.050 -0.057  0.067    0.155  0.214 -0.230
 TransDip   0.000 -0.012  0.062    0.000  0.062  0.012    0.000  0.000  0.000

 Mode:                25                     26                     27
 Frequency:      1621.38                3123.82                3123.85
 Force Cnst:      9.1607                 6.0427                 6.0428
 Red. Mass:       5.9144                 1.0510                 1.0510
 IR Active:          YES                    YES                    YES
 IR Intens:        0.250                 18.167                 18.145
 Raman Active:       YES                    YES                    YES
               X      Y      Z        X      Y      Z        X      Y      Z
 C          0.525  0.000  0.000    0.000  0.000  0.001    0.000 -0.001  0.000
 C         -0.138 -0.153  0.000   -0.003 -0.005  0.000    0.023  0.038  0.000
 C         -0.138  0.153  0.000    0.003 -0.005  0.000   -0.023  0.038  0.000
 C         -0.138  0.000 -0.153   -0.023  0.000 -0.037   -0.003  0.000 -0.005
 C         -0.138  0.000  0.153    0.023  0.000 -0.038    0.003  0.000 -0.005
 H          0.043  0.121 -0.230    0.019  0.030  0.058   -0.133 -0.222 -0.422
 H          0.043  0.121  0.230    0.017  0.030 -0.057   -0.133 -0.222  0.422
 H          0.043 -0.120 -0.230   -0.017  0.029 -0.056    0.133 -0.222  0.421
 H          0.043 -0.120  0.230   -0.019  0.030  0.057    0.133 -0.221 -0.421
 H          0.042 -0.230  0.121    0.133  0.421  0.221    0.017  0.057  0.030
 H          0.043  0.230  0.120    0.133 -0.421  0.221    0.019 -0.058  0.030
 H          0.043 -0.230 -0.120   -0.133 -0.422  0.222   -0.019 -0.057  0.030
 H          0.043  0.230 -0.121   -0.133  0.422  0.222   -0.017  0.056  0.029
 TransDip  -0.016  0.000  0.000    0.000 -0.018 -0.135    0.000  0.135 -0.018

 Mode:                28                     29                     30
 Frequency:      3129.10                3129.41                3202.49
 Force Cnst:      6.1077                 6.1194                 6.7695
 Red. Mass:       1.0587                 1.0606                 1.1203
 IR Active:          YES                    YES                    YES
 IR Intens:        0.001                 25.683                  0.000
 Raman Active:       YES                    YES                    YES
               X      Y      Z        X      Y      Z        X      Y      Z
 C          0.000  0.000  0.000    0.007  0.000  0.000    0.000  0.000  0.000
 C         -0.018 -0.029  0.000   -0.017 -0.030  0.000    0.000  0.000 -0.051
 C         -0.018  0.029  0.000   -0.017  0.030  0.000    0.000  0.000  0.051
 C          0.018  0.000  0.029   -0.017  0.000 -0.030    0.000  0.050  0.000
 C          0.018  0.000 -0.029   -0.017  0.000  0.030    0.000 -0.050  0.000
 H          0.096  0.156  0.299    0.094  0.157  0.303    0.100  0.162  0.298
 H          0.096  0.156 -0.299    0.094  0.157 -0.303   -0.100 -0.162  0.298
 H          0.096 -0.156  0.300    0.094 -0.157  0.304   -0.100  0.162 -0.298
 H          0.096 -0.156 -0.300    0.094 -0.157 -0.304    0.100 -0.162 -0.298
 H         -0.097 -0.303 -0.158    0.093  0.301  0.156   -0.099 -0.295 -0.160
 H         -0.097  0.303 -0.158    0.093 -0.301  0.156    0.099 -0.295  0.160
 H         -0.096 -0.302  0.157    0.093  0.300 -0.156    0.099  0.295 -0.160
 H         -0.096  0.302  0.157    0.093 -0.300 -0.156   -0.099  0.295  0.160
 TransDip   0.001  0.000  0.000   -0.162  0.000  0.000    0.000  0.000  0.000

 Mode:                31                     32                     33
 Frequency:      3203.11                3214.77                3214.78
 Force Cnst:      6.7589                 6.7985                 6.7985
 Red. Mass:       1.1181                 1.1165                 1.1165
 IR Active:          YES                    YES                    YES
 IR Intens:        0.000                 13.709                 13.694
 Raman Active:       YES                    YES                    YES
               X      Y      Z        X      Y      Z        X      Y      Z
 C          0.000  0.000  0.000    0.000  0.000 -0.001    0.000 -0.001  0.000
 C          0.000  0.000 -0.050    0.000  0.000 -0.070    0.000  0.000 -0.008
 C          0.000  0.000  0.050    0.000  0.000 -0.070    0.000  0.000 -0.008
 C          0.000 -0.050  0.000    0.000  0.008  0.000    0.000 -0.070  0.000
 C          0.000  0.050  0.000    0.000  0.008  0.000    0.000 -0.070  0.000
 H          0.099  0.161  0.295    0.136  0.231  0.415    0.016  0.026  0.046
 H         -0.099 -0.161  0.295   -0.137 -0.231  0.415   -0.015 -0.026  0.048
 H         -0.099  0.161 -0.295    0.137 -0.231  0.415    0.015 -0.026  0.048
 H          0.099 -0.161 -0.295   -0.136  0.231  0.415   -0.016  0.026  0.046
 H          0.100  0.298  0.162   -0.015 -0.048 -0.026    0.137  0.415  0.231
 H         -0.100  0.298 -0.162    0.016 -0.046  0.026   -0.136  0.415 -0.231
 H         -0.100 -0.298  0.162   -0.016 -0.046  0.026    0.136  0.415 -0.231
 H          0.100 -0.298 -0.162    0.015 -0.048 -0.026   -0.137  0.415  0.231
 TransDip   0.000  0.000  0.000    0.000  0.013 -0.118    0.000 -0.118 -0.013

 STANDARD THERMODYNAMIC QUANTITIES AT   298.18 K  AND     1.00 ATM

   This Molecule has  0 Imaginary Frequencies
   Zero point vibrational energy:       72.232 kcal/mol

   Atom    1 Element C  Has Mass   12.00000
   Atom    2 Element C  Has Mass   12.00000
   Atom    3 Element C  Has Mass   12.00000
   Atom    4 Element C  Has Mass   12.00000
   Atom    5 Element C  Has Mass   12.00000
   Atom    6 Element H  Has Mass    1.00783
   Atom    7 Element H  Has Mass    1.00783
   Atom    8 Element H  Has Mass    1.00783
   Atom    9 Element H  Has Mass    1.00783
   Atom   10 Element H  Has Mass    1.00783
   Atom   11 Element H  Has Mass    1.00783
   Atom   12 Element H  Has Mass    1.00783
   Atom   13 Element H  Has Mass    1.00783
   Molecular Mass:    68.062640 amu
   Principal axes and moments of inertia in atomic units:
                             1           2           3
    Eigenvalues --      168.73522   429.06621   429.06621
          X               1.00000     0.00000     0.00000
          Y               0.00000    -0.04084     0.99917
          Z               0.00000     0.99917     0.04084
   Rotational Symmetry Number is   1
   The Molecule is a Symmetric Top
   Translational Enthalpy:        0.889 kcal/mol
   Rotational Enthalpy:           0.889 kcal/mol
   Vibrational Enthalpy:         73.522 kcal/mol
   gas constant (RT):             0.593 kcal/mol
   Translational Entropy:        38.572  cal/mol.K
   Rotational Entropy:           24.944  cal/mol.K
   Vibrational Entropy:           6.296  cal/mol.K

   Total Enthalpy:               75.892 kcal/mol
   Total Entropy:                69.811  cal/mol.K
 Total job time:  47629.42s(wall), 47327.22s(cpu) 
 Thu May  2 02:33:32 2013

        *************************************************************
        *                                                           *
        *  Thank you very much for using Q-Chem.  Have a nice day.  *
        *                                                           *
        *************************************************************


0 sent ACK to 0 
now end server 0 ... 
