Process 0 of 1 is on cl164.stfx.acenet.ca - thread support 1
initial socket setup ...start
initial socket setup ...done 
now start server 0 ... 

cmd = /usr/bin/ssh clhead /usr/local/qchem/bin/get_hostid 1120651594 > /globalscratch/itamblyn/bnl/g297_b3lyp_neut_g03Large_worked/g2g71032/omega590/qchem19636/lic.dat
                  Welcome to Q-Chem
     A Quantum Leap Into The Future Of Chemistry

 Y. Shao, L. Fusti-Molnar, Y. Jung, J. Kussmann, C. Ochsenfeld,
 S. T. Brown, A. T. B. Gilbert, L. V. Slipchenko,S. V. Levchenko,
 D. P. O'Neill, R. A. DiStasio Jr., R. C. Lochan, T. Wang,
 G. J. O. Beran, N. A. Besley, J. M. Herbert, C. Y. Lin,
 T. Van Voorhis, S. H. Chien, A. Sodt, R. P. Steele, 
 V. A. Rassolov, P. E. Maslen, P. P. Korambath, R. D. Adamson,
 B. Austin, J. Baker, E. F. C. Byrd, H. Dachsel, R. J. Doerksen,
 A. Dreuw, B. D. Dunietz, A. D. Dutoi, T. R. Furlani,
 S. R. Gwaltney, A. Heyden, S. Hirata, C.-P. Hsu, G. Kedziora,
 R. Z. Khaliullin, P. Klunzinger, A. M. Lee, M. S. Lee, W. Liang,
 I. Lotan, N. Nair, B. Peters, E. I. Proynov, P. A. Pieniazek, 
 Y. M. Rhee, J. Ritchie, E. Rosta, C. D. Sherrill, 
 A. C. Simmonett, J. E. Subotnik, H. L. Woodcock III,
 W. Zhang, A. T. Bell, A. K. Chakraborty, D. M. Chipman,
 F. J. Keil, A. Warshel, W. J. Hehre, H. F. Schaefer III,
 J. Kong, A. I. Krylov, P. M. W. Gill, M. Head-Gordon,
 Q-Chem, Version 3.1, Q-Chem, Inc., Pittsburgh, PA (2007).

 Additional authors for Version 3.1: 
 Z. Gan, Y. Zhao, N. E. Schultz, D. Truhlar, E. Epifanovsky and M. Oana.

 Additional authors for Version 3.2: 
 R. Baer, B. R. Brooks, D. Casanova, J.-D. Chai, C.-L. Cheng, 
 C. Cramer, D. Crittenden, A. Ghysels, G. Hawkins, E. G. Hohenstein, 
 C. Kelley, W. Kurlancheek, D. Liotard, E. Livshits, P. Manohar, 
 A. Marenich, D. Neuhauser, R. Olson, M. A. Rohrdanz, K. S. Thanthiriwatte, 
 A. J. W. Thom, V. Vanovschi, C. F. Williams, Q. Wu and Z.-Q. You. 


 Intel X86 Linux Version

 Q-chem begins on Fri Apr 15 15:27:02 2011  

 Parallel job on  1  processors
Processing $rem in /usr/local/qchem/config/preferences.

theFileMan(): MAXOPENFILES=974 MAX_SUB_FILE_NUM=16
Maximum size of a physical file is 2.0 GB, maximum size of a tmp-file is 32.0 GB


--------------------------------------------------------------
User input:
--------------------------------------------------------------

$molecule
-1,2
N
N,1,NN

NN=1.10549853

$end

$comment
negative
$end

$xc_functional
   X HF 1.0
   X BNL 1.0
   C LYP 1.0
$end

$rem
SYMMETRY_DECOMPOSITION	0
exchange 		general
BASIS                   g3large
omega			590
separate_jk		true
mem_static              760
max_scf_cycles          200
scf_final_print         1
sym_ignore              true
$end

--------------------------------------------------------------
 Writing REM_CC_EA            2
 ----------------------------------------------------
       Standard Nuclear Orientation (Angstroms)
    I     Atom         X            Y            Z
 ----------------------------------------------------
    1      N       0.000000     0.000000     0.000000
    2      N       0.000000     0.000000     1.105499
 ----------------------------------------------------
 Nuclear Repulsion Energy =    23.4551947610 hartrees
 There are        8 alpha and        7 beta electrons
 Requested basis set is G3large
 There are 20 shells and 84 basis functions

Total QAlloc Memory Limit   2000 MB
Mega-Array Size       743 MB
MEM_STATIC part       760 MB

                       Distance Matrix (Angstroms)
             N (  1)
   N (  2)  1.105499
 
 A cutoff of  1.0D-08 yielded    206 shell pairs
 There are   3662 function pairs (  4809 Cartesian)
Evaluating contribution to one-electron hamiltonian from nuclear
 Smallest overlap matrix eigenvalue = 2.03E-04
 Multipole matrices computed through 2nd order

  Scale SEOQF with 1.000000e-01/1.000000e-01/1.000000e-01

 Standard Electronic Orientation quadrupole field applied
 Nucleus-field energy     =    -0.0000000009 hartrees
 Guess from superposition of atomic densities
 Warning:  Energy on first SCF cycle will be non-variational
 An unrestricted hybrid HF-DFT SCF calculation will be
 performed using Pulay DIIS extrapolation
 Exchange:     1.0000 Hartree-Fock + 1.0000 BNL
 Correlation:  1.0000 LYP
 Using SG-1 standard quadrature grid
 SCF converges when DIIS error is below 1.0E-05
 Warning!  Inaccurate integrated density:
   Number of electrons =    15
   Numerical integral  =    13.999994582429
   Relative error      =    -6.6667027838 %
 ---------------------------------------
  Cycle       Energy         DIIS Error
 ---------------------------------------
    1    -108.5697247499      5.31E-02
    2    -108.4214413486      6.05E-03
    3    -108.4549189537      4.36E-03
    4    -108.4681377145      4.15E-04
    5    -108.4683251066      1.14E-04
    6    -108.4683466247      2.70E-05
    7    -108.4683510172      9.52E-06 Convergence criterion met
 ---------------------------------------
 One-Electron    Energy =  -198.8899297075
 Total Coulomb   Energy =    79.8934823519
 Alpha Exchange  Energy =    -2.1485800037
 Beta  Exchange  Energy =    -1.8972273505
 DFT   Exchange  Energy =    -8.3720251756
 DFT Correlation Energy =    -0.5092658919
 Nuclear Repu.   Energy =    23.4551947601
 Nuclear Attr.   Energy =  -307.2551623724
 Kinetic         Energy =   108.3652326650
 <S^2> = 0.7525
 SCF time:  CPU 7.99 s  wall 19.10 s
 Final Alpha MO Eigenvalues
            1           2           3           4           5           6
    1 -13.8883414 -13.8870178  -0.9801860  -0.4128122  -0.3301312  -0.2932938
            7           8           9          10          11          12
    1  -0.2769457   0.0559812   0.3026527   0.3303638   0.3354305   0.3451346
           13
    1   0.3501784
 Final Beta MO Eigenvalues
            1           2           3           4           5           6
    1 -13.8789310 -13.8773571  -0.9634402  -0.3709909  -0.2834322  -0.2566704
            7           8           9          10          11          12
    1  -0.2540881   0.2981323   0.3270447   0.3352250   0.3425397   0.3425692
 Analysis of SCF Wavefunction
 
 --------------------------------------------------------------
                    Orbital Energies (a.u.)
 --------------------------------------------------------------
 
 Alpha MOs
 -- Occupied --
-13.888 -13.887  -0.980  -0.413  -0.330  -0.293  -0.277   0.056
 -- Virtual --
  0.303   0.330   0.335   0.345   0.350   0.413   0.419   0.478
  0.513   0.863   1.054   1.103   1.110   1.194   1.199   1.267
  1.268   1.303   1.313   1.541   1.555   1.587   1.695   1.695
  2.179   2.181   2.269   2.448   3.690   3.739   3.739   3.793
  3.793   4.071   4.074   4.106   4.112   4.113   4.117   4.277
  4.277   4.774   4.835   5.048   5.049   5.052   5.076   5.076
  5.143   5.143   5.275   5.275   5.609   5.614   6.408   6.812
  6.817   7.233  35.734  36.741  37.720  37.722  38.105  38.107
 38.693  38.947  40.722  40.785  40.829  40.928  40.932  40.932
 40.972  41.269  41.270  41.850
 
 Beta MOs
 -- Occupied --
-13.879 -13.877  -0.963  -0.371  -0.283  -0.257  -0.254
 -- Virtual --
  0.298   0.327   0.335   0.343   0.343   0.348   0.410   0.486
  0.510   0.512   0.870   1.057   1.107   1.125   1.205   1.225
  1.280   1.281   1.319   1.324   1.560   1.583   1.598   1.724
  1.724   2.183   2.203   2.279   2.457   3.699   3.753   3.756
  3.812   3.812   4.081   4.104   4.114   4.122   4.140   4.150
  4.302   4.302   4.787   4.852   5.057   5.061   5.080   5.096
  5.099   5.177   5.177   5.308   5.308   5.619   5.644   6.417
  6.821   6.844   7.247  35.746  36.753  37.726  37.740  38.111
 38.125  38.701  38.953  40.733  40.808  40.850  40.939  40.950
 40.953  40.993  41.277  41.291  41.859
 --------------------------------------------------------------
 
          Ground-State Mulliken Net Atomic Charges

     Atom                 Charge (a.u.)    Spin (a.u.)
  --------------------------------------------------------
      1 N                    -0.500008       0.500003
      2 N                    -0.499992       0.499997
  --------------------------------------------------------
  Sum of atomic charges =    -1.000000
  Sum of spin   charges =     1.000000

 -----------------------------------------------------------------
                    Cartesian Multipole Moments
 -----------------------------------------------------------------
    Charge (ESU x 10^10)
                -4.8032
    Dipole Moment (Debye)
         X       0.0000      Y       0.0000      Z      -2.6550
       Tot       2.6550
    Quadrupole Moments (Debye-Ang)
        XX     -13.4131     XY       0.0016     YY     -16.1979
        XZ       0.0000     YZ       0.0000     ZZ     -20.8152
    Octapole Moments (Debye-Ang^2)
       XXX       0.0000    XXY       0.0000    XYY       0.0000
       YYY       0.0001    XXZ      -7.4141    XYZ       0.0009
       YYZ      -8.9533    XZZ       0.0000    YZZ       0.0000
       ZZZ     -32.8944
    Hexadecapole Moments (Debye-Ang^3)
      XXXX     -16.4962   XXXY       0.0032   XXYY      -7.3764
      XYYY       0.0032   YYYY     -27.7621   XXXZ       0.0000
      XXYZ       0.0000   XYYZ       0.0000   YYYZ       0.0000
      XXZZ     -16.1182   XYZZ       0.0039   YYZZ     -23.0931
      XZZZ       0.0000   YZZZ       0.0001   ZZZZ     -95.9609
 -----------------------------------------------------------------
 Total job time:  20.26s(wall), 8.07s(cpu) 
 Fri Apr 15 15:27:23 2011

        *************************************************************
        *                                                           *
        *  Thank you very much for using Q-Chem.  Have a nice day.  *
        *                                                           *
        *************************************************************


0 sent ACK to 0 
now end server 0 ... 
 
**********************************************************************
Job 2 of 3 
**********************************************************************
 
Process 0 of 1 is on cl164.stfx.acenet.ca - thread support 1
initial socket setup ...start
initial socket setup ...done 
now start server 0 ... 

cmd = /usr/bin/ssh clhead /usr/local/qchem/bin/get_hostid 257929429 > /globalscratch/itamblyn/bnl/g297_b3lyp_neut_g03Large_worked/g2g71032/omega590/qchem19636/lic.dat
                  Welcome to Q-Chem
     A Quantum Leap Into The Future Of Chemistry

 Y. Shao, L. Fusti-Molnar, Y. Jung, J. Kussmann, C. Ochsenfeld,
 S. T. Brown, A. T. B. Gilbert, L. V. Slipchenko,S. V. Levchenko,
 D. P. O'Neill, R. A. DiStasio Jr., R. C. Lochan, T. Wang,
 G. J. O. Beran, N. A. Besley, J. M. Herbert, C. Y. Lin,
 T. Van Voorhis, S. H. Chien, A. Sodt, R. P. Steele, 
 V. A. Rassolov, P. E. Maslen, P. P. Korambath, R. D. Adamson,
 B. Austin, J. Baker, E. F. C. Byrd, H. Dachsel, R. J. Doerksen,
 A. Dreuw, B. D. Dunietz, A. D. Dutoi, T. R. Furlani,
 S. R. Gwaltney, A. Heyden, S. Hirata, C.-P. Hsu, G. Kedziora,
 R. Z. Khaliullin, P. Klunzinger, A. M. Lee, M. S. Lee, W. Liang,
 I. Lotan, N. Nair, B. Peters, E. I. Proynov, P. A. Pieniazek, 
 Y. M. Rhee, J. Ritchie, E. Rosta, C. D. Sherrill, 
 A. C. Simmonett, J. E. Subotnik, H. L. Woodcock III,
 W. Zhang, A. T. Bell, A. K. Chakraborty, D. M. Chipman,
 F. J. Keil, A. Warshel, W. J. Hehre, H. F. Schaefer III,
 J. Kong, A. I. Krylov, P. M. W. Gill, M. Head-Gordon,
 Q-Chem, Version 3.1, Q-Chem, Inc., Pittsburgh, PA (2007).

 Additional authors for Version 3.1: 
 Z. Gan, Y. Zhao, N. E. Schultz, D. Truhlar, E. Epifanovsky and M. Oana.

 Additional authors for Version 3.2: 
 R. Baer, B. R. Brooks, D. Casanova, J.-D. Chai, C.-L. Cheng, 
 C. Cramer, D. Crittenden, A. Ghysels, G. Hawkins, E. G. Hohenstein, 
 C. Kelley, W. Kurlancheek, D. Liotard, E. Livshits, P. Manohar, 
 A. Marenich, D. Neuhauser, R. Olson, M. A. Rohrdanz, K. S. Thanthiriwatte, 
 A. J. W. Thom, V. Vanovschi, C. F. Williams, Q. Wu and Z.-Q. You. 


 Intel X86 Linux Version

 Q-chem begins on Fri Apr 15 15:27:27 2011  

 Parallel job on  1  processors
Processing $rem in /usr/local/qchem/config/preferences.

theFileMan(): MAXOPENFILES=974 MAX_SUB_FILE_NUM=16
Maximum size of a physical file is 2.0 GB, maximum size of a tmp-file is 32.0 GB


--------------------------------------------------------------
User input:
--------------------------------------------------------------

$molecule
0,1
N
N,1,NN

NN=1.10549853

$end

$comment
neutral
$end

$xc_functional
   X HF 1.0
   X BNL 1.0
   C LYP 1.0
$end

$rem
SYMMETRY_DECOMPOSITION	0
exchange 		general
BASIS                   g3large
omega			590
separate_jk		true
mem_static              760
max_scf_cycles          200
scf_final_print         1
sym_ignore              true
$end

--------------------------------------------------------------
 Writing REM_CC_EA            2
 ----------------------------------------------------
       Standard Nuclear Orientation (Angstroms)
    I     Atom         X            Y            Z
 ----------------------------------------------------
    1      N       0.000000     0.000000     0.000000
    2      N       0.000000     0.000000     1.105499
 ----------------------------------------------------
 Nuclear Repulsion Energy =    23.4551947610 hartrees
 There are        7 alpha and        7 beta electrons
 Requested basis set is G3large
 There are 20 shells and 84 basis functions

Total QAlloc Memory Limit   2000 MB
Mega-Array Size       743 MB
MEM_STATIC part       760 MB

                       Distance Matrix (Angstroms)
             N (  1)
   N (  2)  1.105499
 
 A cutoff of  1.0D-08 yielded    206 shell pairs
 There are   3662 function pairs (  4809 Cartesian)
Evaluating contribution to one-electron hamiltonian from nuclear
 Smallest overlap matrix eigenvalue = 2.03E-04
 Multipole matrices computed through 2nd order

  Scale SEOQF with 1.000000e-01/1.000000e-01/1.000000e-01

 Standard Electronic Orientation quadrupole field applied
 Nucleus-field energy     =    -0.0000000009 hartrees
 Guess from superposition of atomic densities
 Warning:  Energy on first SCF cycle will be non-variational
 A restricted hybrid HF-DFT SCF calculation will be
 performed using Pulay DIIS extrapolation
 Exchange:     1.0000 Hartree-Fock + 1.0000 BNL
 Correlation:  1.0000 LYP
 Using SG-1 standard quadrature grid
 SCF converges when DIIS error is below 1.0E-05
 ---------------------------------------
  Cycle       Energy         DIIS Error
 ---------------------------------------
    1    -108.5697247499      5.31E-02
    2    -108.5300487810      2.80E-03
    3    -108.5362531656      9.65E-04
    4    -108.5367135433      1.57E-04
    5    -108.5367265936      2.66E-05
    6    -108.5367315090      5.63E-06 Convergence criterion met
 ---------------------------------------
 One-Electron    Energy =  -194.0782725786
 Total Coulomb   Energy =    74.6957672056
 Alpha Exchange  Energy =    -1.9266000856
 Beta  Exchange  Energy =    -1.9266000856
 DFT   Exchange  Energy =    -8.2727727966
 DFT Correlation Energy =    -0.4834479283
 Nuclear Repu.   Energy =    23.4551947601
 Nuclear Attr.   Energy =  -302.0432839066
 Kinetic         Energy =   107.9650113280
 SCF time:  CPU 6.04 s  wall 11.17 s
 Final Alpha MO Eigenvalues
            1           2           3           4           5           6
    1 -14.2655217 -14.2638840  -1.3294412  -0.7282634  -0.6296349  -0.6296348
            7           8           9          10          11          12
    1  -0.6065197   0.0762706   0.0762708   0.1263673   0.1265512   0.1452630
 Analysis of SCF Wavefunction
 
 --------------------------------------------------------------
                    Orbital Energies (a.u.)
 --------------------------------------------------------------
 
 Alpha MOs
 -- Occupied --
-14.266 -14.264  -1.329  -0.728  -0.630  -0.630  -0.607
 -- Virtual --
  0.076   0.076   0.126   0.127   0.145   0.145   0.200   0.233
  0.233   0.314   0.600   0.776   0.820   0.820   0.918   0.918
  0.952   0.952   0.983   1.014   1.237   1.237   1.298   1.395
  1.395   1.879   1.879   1.962   2.134   3.355   3.402   3.402
  3.457   3.457   3.728   3.728   3.771   3.771   3.777   3.777
  3.943   3.943   4.445   4.490   4.714   4.717   4.717   4.743
  4.743   4.798   4.798   4.930   4.930   5.271   5.271   6.068
  6.470   6.470   6.885  35.361  36.368  37.345  37.345  37.730
 37.730  38.320  38.572  40.349  40.412  40.456  40.555  40.559
 40.559  40.599  40.896  40.896  41.477
 --------------------------------------------------------------
 
          Ground-State Mulliken Net Atomic Charges

     Atom                 Charge (a.u.)
  ----------------------------------------
      1 N                    -0.000018
      2 N                     0.000018
  ----------------------------------------
  Sum of atomic charges =     0.000000

 -----------------------------------------------------------------
                    Cartesian Multipole Moments
 -----------------------------------------------------------------
    Charge (ESU x 10^10)
                 0.0000
    Dipole Moment (Debye)
         X       0.0000      Y       0.0000      Z       0.0001
       Tot       0.0001
    Quadrupole Moments (Debye-Ang)
        XX     -10.4186     XY       0.0000     YY     -10.4186
        XZ       0.0000     YZ       0.0000     ZZ     -11.8958
    Octapole Moments (Debye-Ang^2)
       XXX       0.0000    XXY       0.0000    XYY       0.0000
       YYY       0.0000    XXZ      -5.7589    XYZ       0.0000
       YYZ      -5.7589    XZZ       0.0000    YZZ       0.0000
       ZZZ     -19.7263
    Hexadecapole Moments (Debye-Ang^3)
      XXXX      -9.2319   XXXY       0.0000   XXYY      -3.0773
      XYYY       0.0000   YYYY      -9.2319   XXXZ       0.0000
      XXYZ       0.0000   XYYZ       0.0000   YYYZ       0.0000
      XXZZ      -9.7691   XYZZ       0.0000   YYZZ      -9.7691
      XZZZ       0.0000   YZZZ       0.0000   ZZZZ     -54.7944
 -----------------------------------------------------------------
 Total job time:  14.19s(wall), 6.15s(cpu) 
 Fri Apr 15 15:27:41 2011

        *************************************************************
        *                                                           *
        *  Thank you very much for using Q-Chem.  Have a nice day.  *
        *                                                           *
        *************************************************************


0 sent ACK to 0 
now end server 0 ... 
 
**********************************************************************
Job 3 of 3 
**********************************************************************
 
Process 0 of 1 is on cl164.stfx.acenet.ca - thread support 1
initial socket setup ...start
initial socket setup ...done 
now start server 0 ... 

cmd = /usr/bin/ssh clhead /usr/local/qchem/bin/get_hostid 1694624345 > /globalscratch/itamblyn/bnl/g297_b3lyp_neut_g03Large_worked/g2g71032/omega590/qchem19636/lic.dat
                  Welcome to Q-Chem
     A Quantum Leap Into The Future Of Chemistry

 Y. Shao, L. Fusti-Molnar, Y. Jung, J. Kussmann, C. Ochsenfeld,
 S. T. Brown, A. T. B. Gilbert, L. V. Slipchenko,S. V. Levchenko,
 D. P. O'Neill, R. A. DiStasio Jr., R. C. Lochan, T. Wang,
 G. J. O. Beran, N. A. Besley, J. M. Herbert, C. Y. Lin,
 T. Van Voorhis, S. H. Chien, A. Sodt, R. P. Steele, 
 V. A. Rassolov, P. E. Maslen, P. P. Korambath, R. D. Adamson,
 B. Austin, J. Baker, E. F. C. Byrd, H. Dachsel, R. J. Doerksen,
 A. Dreuw, B. D. Dunietz, A. D. Dutoi, T. R. Furlani,
 S. R. Gwaltney, A. Heyden, S. Hirata, C.-P. Hsu, G. Kedziora,
 R. Z. Khaliullin, P. Klunzinger, A. M. Lee, M. S. Lee, W. Liang,
 I. Lotan, N. Nair, B. Peters, E. I. Proynov, P. A. Pieniazek, 
 Y. M. Rhee, J. Ritchie, E. Rosta, C. D. Sherrill, 
 A. C. Simmonett, J. E. Subotnik, H. L. Woodcock III,
 W. Zhang, A. T. Bell, A. K. Chakraborty, D. M. Chipman,
 F. J. Keil, A. Warshel, W. J. Hehre, H. F. Schaefer III,
 J. Kong, A. I. Krylov, P. M. W. Gill, M. Head-Gordon,
 Q-Chem, Version 3.1, Q-Chem, Inc., Pittsburgh, PA (2007).

 Additional authors for Version 3.1: 
 Z. Gan, Y. Zhao, N. E. Schultz, D. Truhlar, E. Epifanovsky and M. Oana.

 Additional authors for Version 3.2: 
 R. Baer, B. R. Brooks, D. Casanova, J.-D. Chai, C.-L. Cheng, 
 C. Cramer, D. Crittenden, A. Ghysels, G. Hawkins, E. G. Hohenstein, 
 C. Kelley, W. Kurlancheek, D. Liotard, E. Livshits, P. Manohar, 
 A. Marenich, D. Neuhauser, R. Olson, M. A. Rohrdanz, K. S. Thanthiriwatte, 
 A. J. W. Thom, V. Vanovschi, C. F. Williams, Q. Wu and Z.-Q. You. 


 Intel X86 Linux Version

 Q-chem begins on Fri Apr 15 15:27:48 2011  

 Parallel job on  1  processors
Processing $rem in /usr/local/qchem/config/preferences.

theFileMan(): MAXOPENFILES=974 MAX_SUB_FILE_NUM=16
Maximum size of a physical file is 2.0 GB, maximum size of a tmp-file is 32.0 GB


--------------------------------------------------------------
User input:
--------------------------------------------------------------

$molecule
1,2
N
N,1,NN

NN=1.10549853

$end

$comment
positive
$end

$xc_functional
   X HF 1.0
   X BNL 1.0
   C LYP 1.0
$end

$rem
SYMMETRY_DECOMPOSITION	0
exchange 		general
BASIS                   g3large
omega			590
separate_jk		true
mem_static              760
max_scf_cycles          200
scf_final_print         1
sym_ignore              true
$end

--------------------------------------------------------------
 Writing REM_CC_EA            2
 ----------------------------------------------------
       Standard Nuclear Orientation (Angstroms)
    I     Atom         X            Y            Z
 ----------------------------------------------------
    1      N       0.000000     0.000000     0.000000
    2      N       0.000000     0.000000     1.105499
 ----------------------------------------------------
 Nuclear Repulsion Energy =    23.4551947610 hartrees
 There are        7 alpha and        6 beta electrons
 Requested basis set is G3large
 There are 20 shells and 84 basis functions

Total QAlloc Memory Limit   2000 MB
Mega-Array Size       743 MB
MEM_STATIC part       760 MB

                       Distance Matrix (Angstroms)
             N (  1)
   N (  2)  1.105499
 
 A cutoff of  1.0D-08 yielded    206 shell pairs
 There are   3662 function pairs (  4809 Cartesian)
Evaluating contribution to one-electron hamiltonian from nuclear
 Smallest overlap matrix eigenvalue = 2.03E-04
 Multipole matrices computed through 2nd order

  Scale SEOQF with 1.000000e-01/1.000000e-01/1.000000e-01

 Standard Electronic Orientation quadrupole field applied
 Nucleus-field energy     =    -0.0000000009 hartrees
 Guess from superposition of atomic densities
 Warning:  Energy on first SCF cycle will be non-variational
 An unrestricted hybrid HF-DFT SCF calculation will be
 performed using Pulay DIIS extrapolation
 Exchange:     1.0000 Hartree-Fock + 1.0000 BNL
 Correlation:  1.0000 LYP
 Using SG-1 standard quadrature grid
 SCF converges when DIIS error is below 1.0E-05
 Warning!  Inaccurate integrated density:
   Number of electrons =    13
   Numerical integral  =    13.999994582429
   Relative error      =     7.6922660187 %
 ---------------------------------------
  Cycle       Energy         DIIS Error
 ---------------------------------------
    1    -108.5697247499      5.31E-02
    2    -107.8529026938      8.54E-03
    3    -107.9237052619      3.37E-03
    4    -107.9296893637      2.89E-04
    5    -107.9298905579      4.26E-05
    6    -107.9298999520      9.30E-06 Convergence criterion met
 ---------------------------------------
 One-Electron    Energy =  -187.8593044220
 Total Coulomb   Energy =    68.6454323487
 Alpha Exchange  Energy =    -1.9555627944
 Beta  Exchange  Energy =    -1.6420953729
 DFT   Exchange  Energy =    -8.1277467538
 DFT Correlation Energy =    -0.4458177176
 Nuclear Repu.   Energy =    23.4551947601
 Nuclear Attr.   Energy =  -295.3677288327
 Kinetic         Energy =   107.5084244107
 <S^2> = 0.7558
 SCF time:  CPU 6.71 s  wall 14.16 s
 Final Alpha MO Eigenvalues
            1           2           3           4           5           6
    1 -14.7577599 -14.7560686  -1.7757603  -1.1859292  -1.0809803  -1.0496479
            7           8           9          10          11          12
    1  -1.0496473  -0.3182805  -0.3182799  -0.1068568  -0.0699848  -0.0682047
 Final Beta MO Eigenvalues
            1           2           3           4           5           6
    1 -14.7438076 -14.7422912  -1.7454568  -1.0481899  -1.0325168  -1.0325162
            7           8           9          10          11
    1  -0.6100851  -0.2932931  -0.2932927  -0.0984011  -0.0703017
 Analysis of SCF Wavefunction
 
 --------------------------------------------------------------
                    Orbital Energies (a.u.)
 --------------------------------------------------------------
 
 Alpha MOs
 -- Occupied --
-14.758 -14.756  -1.776  -1.186  -1.081  -1.050  -1.050
 -- Virtual --
 -0.318  -0.318  -0.107  -0.070  -0.068  -0.068  -0.015   0.019
  0.019   0.109   0.269   0.458   0.500   0.500   0.578   0.590
  0.590   0.596   0.596   0.655   0.840   0.840   0.961   1.030
  1.030   1.508   1.508   1.574   1.737   2.927   2.987   2.987
  3.061   3.061   3.281   3.281   3.351   3.351   3.354   3.354
  3.545   3.545   4.004   4.008   4.265   4.265   4.269   4.319
  4.319   4.358   4.358   4.497   4.497   4.809   4.809   5.597
  6.017   6.017   6.391  34.872  35.881  36.862  36.862  37.247
 37.247  37.821  38.071  39.842  39.929  39.973  40.058  40.058
 40.072  40.116  40.396  40.396  40.965
 
 Beta MOs
 -- Occupied --
-14.744 -14.742  -1.745  -1.048  -1.033  -1.033
 -- Virtual --
 -0.610  -0.293  -0.293  -0.098  -0.070  -0.068  -0.068  -0.014
  0.019   0.019   0.111   0.293   0.477   0.507   0.507   0.594
  0.594   0.602   0.602   0.626   0.680   0.871   0.871   0.972
  1.039   1.039   1.530   1.530   1.604   1.765   2.959   3.006
  3.006   3.069   3.069   3.309   3.309   3.371   3.371   3.373
  3.373   3.555   3.555   4.052   4.068   4.309   4.315   4.315
  4.350   4.350   4.379   4.379   4.510   4.510   4.861   4.861
  5.652   6.051   6.051   6.457  34.890  35.895  36.871  36.871
 37.257  37.257  37.847  38.096  39.877  39.940  39.984  40.083
 40.088  40.088  40.127  40.424  40.424  41.006
 --------------------------------------------------------------
 
          Ground-State Mulliken Net Atomic Charges

     Atom                 Charge (a.u.)    Spin (a.u.)
  --------------------------------------------------------
      1 N                     0.500073       0.499977
      2 N                     0.499927       0.500023
  --------------------------------------------------------
  Sum of atomic charges =     1.000000
  Sum of spin   charges =     1.000000

 -----------------------------------------------------------------
                    Cartesian Multipole Moments
 -----------------------------------------------------------------
    Charge (ESU x 10^10)
                 4.8032
    Dipole Moment (Debye)
         X       0.0000      Y       0.0000      Z       2.6546
       Tot       2.6546
    Quadrupole Moments (Debye-Ang)
        XX      -8.3932     XY       0.0000     YY      -8.3932
        XZ       0.0000     YZ       0.0000     ZZ      -4.4292
    Octapole Moments (Debye-Ang^2)
       XXX       0.0000    XXY       0.0000    XYY       0.0000
       YYY       0.0000    XXZ      -4.6394    XYZ       0.0000
       YYZ      -4.6394    XZZ       0.0000    YZZ       0.0000
       ZZZ      -8.9669
    Hexadecapole Moments (Debye-Ang^3)
      XXXX      -6.0442   XXXY       0.0000   XXYY      -2.0147
      XYYY       0.0000   YYYY      -6.0442   XXXZ       0.0000
      XXYZ       0.0000   XYYZ       0.0000   YYYZ       0.0000
      XXZZ      -6.8387   XYZZ       0.0000   YYZZ      -6.8387
      XZZZ       0.0000   YZZZ       0.0000   ZZZZ     -29.8903
 -----------------------------------------------------------------
 Total job time:  22.54s(wall), 6.82s(cpu) 
 Fri Apr 15 15:28:10 2011

        *************************************************************
        *                                                           *
        *  Thank you very much for using Q-Chem.  Have a nice day.  *
        *                                                           *
        *************************************************************


0 sent ACK to 0 
now end server 0 ... 
