Process 0 of 1 is on cl082.stfx.acenet.ca - thread support 1
initial socket setup ...start
initial socket setup ...done 
now start server 0 ... 

cmd = /usr/bin/ssh clhead /usr/local/qchem/bin/get_hostid 281639991 > /scratch/tmp/6063688.1.short.q/qchem18895/lic.dat
                  Welcome to Q-Chem
     A Quantum Leap Into The Future Of Chemistry

 Y. Shao, L. Fusti-Molnar, Y. Jung, J. Kussmann, C. Ochsenfeld,
 S. T. Brown, A. T. B. Gilbert, L. V. Slipchenko,S. V. Levchenko,
 D. P. O'Neill, R. A. DiStasio Jr., R. C. Lochan, T. Wang,
 G. J. O. Beran, N. A. Besley, J. M. Herbert, C. Y. Lin,
 T. Van Voorhis, S. H. Chien, A. Sodt, R. P. Steele, 
 V. A. Rassolov, P. E. Maslen, P. P. Korambath, R. D. Adamson,
 B. Austin, J. Baker, E. F. C. Byrd, H. Dachsel, R. J. Doerksen,
 A. Dreuw, B. D. Dunietz, A. D. Dutoi, T. R. Furlani,
 S. R. Gwaltney, A. Heyden, S. Hirata, C.-P. Hsu, G. Kedziora,
 R. Z. Khaliullin, P. Klunzinger, A. M. Lee, M. S. Lee, W. Liang,
 I. Lotan, N. Nair, B. Peters, E. I. Proynov, P. A. Pieniazek, 
 Y. M. Rhee, J. Ritchie, E. Rosta, C. D. Sherrill, 
 A. C. Simmonett, J. E. Subotnik, H. L. Woodcock III,
 W. Zhang, A. T. Bell, A. K. Chakraborty, D. M. Chipman,
 F. J. Keil, A. Warshel, W. J. Hehre, H. F. Schaefer III,
 J. Kong, A. I. Krylov, P. M. W. Gill, M. Head-Gordon,
 Q-Chem, Version 3.1, Q-Chem, Inc., Pittsburgh, PA (2007).

 Additional authors for Version 3.1: 
 Z. Gan, Y. Zhao, N. E. Schultz, D. Truhlar, E. Epifanovsky and M. Oana.

 Additional authors for Version 3.2: 
 R. Baer, B. R. Brooks, D. Casanova, J.-D. Chai, C.-L. Cheng, 
 C. Cramer, D. Crittenden, A. Ghysels, G. Hawkins, E. G. Hohenstein, 
 C. Kelley, W. Kurlancheek, D. Liotard, E. Livshits, P. Manohar, 
 A. Marenich, D. Neuhauser, R. Olson, M. A. Rohrdanz, K. S. Thanthiriwatte, 
 A. J. W. Thom, V. Vanovschi, C. F. Williams, Q. Wu and Z.-Q. You. 


 Intel X86 Linux Version

 Q-chem begins on Sun Jul  7 08:39:49 2013  

 Parallel job on  1  processors
Processing $rem in /usr/local/qchem/config/preferences.

theFileMan(): MAXOPENFILES=974 MAX_SUB_FILE_NUM=16
Maximum size of a physical file is 2.0 GB, maximum size of a tmp-file is 32.0 GB


--------------------------------------------------------------
User input:
--------------------------------------------------------------

$molecule
-1,2
N          0.00000        0.00000        1.83618
C          0.00000        0.00000        0.69391
C          0.00000        0.00000       -0.69391
N          0.00000        0.00000       -1.83618
$end

$comment
negative
$end

$xc_functional
C PBE   1.00
X wPBE  1.00
$end

$rem
SYMMETRY_DECOMPOSITION	0
exchange 		general
LRC_DFT                 true
BASIS                   g3large
omega			600
mem_static              760
max_scf_cycles          200
scf_final_print         1
sym_ignore              true
$end

--------------------------------------------------------------
 Writing REM_CC_EA            4
 ----------------------------------------------------
       Standard Nuclear Orientation (Angstroms)
    I     Atom         X            Y            Z
 ----------------------------------------------------
    1      N       0.000000     0.000000     1.836180
    2      C       0.000000     0.000000     0.693910
    3      C       0.000000     0.000000    -0.693910
    4      N       0.000000     0.000000    -1.836180
 ----------------------------------------------------
 Nuclear Repulsion Energy =    77.2710182365 hartrees
 There are       14 alpha and       13 beta electrons
 Requested basis set is G3large
 There are 40 shells and 168 basis functions

Total QAlloc Memory Limit   2000 MB
Mega-Array Size       743 MB
MEM_STATIC part       760 MB

                       Distance Matrix (Angstroms)
             N (  1)   C (  2)   C (  3)
   C (  2)  1.142270
   C (  3)  2.530090  1.387820
   N (  4)  3.672360  2.530090  1.142270
 
 A cutoff of  1.0D-08 yielded    716 shell pairs
 There are  12995 function pairs ( 17001 Cartesian)
Evaluating contribution to one-electron hamiltonian from nuclear
 Smallest overlap matrix eigenvalue = 9.69E-06

 Q-Chem warning in module mkSTV.C, line 194:

 Overlap eigenvalue is smaller than square root of threshold

 Multipole matrices computed through 2nd order

  Scale SEOQF with 1.000000e-01/1.000000e-01/1.000000e-01

 Standard Electronic Orientation quadrupole field applied
 Nucleus-field energy     =    -0.0000000057 hartrees
 Guess from superposition of atomic densities
 Warning:  Energy on first SCF cycle will be non-variational
 Long-range K will be added via erf
 Coulomb attenuation parameter = 0.6 bohr**(-1)
 An unrestricted Kohn-Sham SCF calculation will be
 performed using Pulay DIIS extrapolation
 Exchange:  wPBE + LR-HF      Correlation:  PBE
 Using SG-1 standard quadrature grid
 SCF converges when DIIS error is below 1.0E-05
 Requested basis set is G3large
 There are 40 shells and 168 basis functions
 A cutoff of  1.0D-08 yielded    716 shell pairs
 There are  12995 function pairs ( 17001 Cartesian)
 Warning!  Inaccurate integrated density:
   Number of electrons =    27
   Numerical integral  =    26.000074941606
   Relative error      =    -3.7034261422 %
 ---------------------------------------
  Cycle       Energy         DIIS Error
 ---------------------------------------
    1    -186.3627653438      3.80E-02
    2    -185.3884792421      6.24E-03
    3    -185.4054417440      6.96E-03
    4    -185.5415133519      6.15E-04
    5    -185.5452494329      2.86E-04
    6    -185.5461748105      7.70E-05
    7    -185.5463195369      2.01E-05
    8    -185.5463357466      5.85E-06 Convergence criterion met
 ---------------------------------------
 One-Electron    Energy =  -409.4951998244
 Total Coulomb   Energy =   171.3811513033
 Alpha Exchange  Energy =    -3.8272452816
 Beta  Exchange  Energy =    -3.5600721759
 DFT   Exchange  Energy =   -16.4389134814
 DFT Correlation Energy =    -0.8770745176
 Nuclear Repu.   Energy =    77.2710182308
 Nuclear Attr.   Energy =  -594.7493321537
 Kinetic         Energy =   185.2541323294
 <S^2> = 0.7727
 SCF time:  CPU 53.23 s  wall 53.59 s
 Final Alpha MO Eigenvalues
            1           2           3           4           5           6
    1 -14.0855452 -14.0854902 -10.0502821 -10.0494762  -0.9422686  -0.9161220
            7           8           9          10          11          12
    1  -0.6671832  -0.3881591  -0.3572183  -0.3543133  -0.3391432  -0.2997480
           13          14          15          16          17          18
    1  -0.2619261  -0.0304047   0.1955649   0.2058511   0.2493188   0.2617458
           19
    1   0.2684313
 Final Beta MO Eigenvalues
            1           2           3           4           5           6
    1 -14.0781355 -14.0780780 -10.0496346 -10.0489615  -0.9299137  -0.9040601
            7           8           9          10          11          12
    1  -0.6400698  -0.3536304  -0.3371636  -0.3357581  -0.3240912  -0.2561530
           13          14          15          16          17          18
    1  -0.2362954   0.1961615   0.2063590   0.2535143   0.2605504   0.2727722
 Analysis of SCF Wavefunction
 
 --------------------------------------------------------------
                    Orbital Energies (a.u.)
 --------------------------------------------------------------
 
 Alpha MOs
 -- Occupied --
-14.086 -14.085 -10.050 -10.049  -0.942  -0.916  -0.667  -0.388
 -0.357  -0.354  -0.339  -0.300  -0.262  -0.030
 -- Virtual --
  0.196   0.206   0.249   0.262   0.268   0.274   0.276   0.315
  0.320   0.413   0.422   0.424   0.430   0.437   0.438   0.451
  0.499   0.515   0.553   0.590   0.802   0.813   0.814   0.858
  0.858   0.917   0.923   0.943   0.987   1.076   1.077   1.116
  1.116   1.136   1.141   1.144   1.198   1.203   1.272   1.282
  1.301   1.467   1.468   1.559   1.656   1.657   1.667   1.749
  1.751   1.909   2.063   2.064   2.376   2.390   2.394   2.396
  2.418   2.731   3.014   3.014   3.024   3.024   3.036   3.038
  3.040   3.142   3.146   3.241   3.245   3.256   3.256   3.481
  3.481   3.497   3.497   3.570   3.573   3.575   3.612   3.804
  3.805   3.862   3.864   4.030   4.030   4.069   4.069   4.220
  4.222   4.318   4.367   4.368   4.505   4.605   4.606   4.791
  4.955   4.956   5.034   5.077   5.078   5.173   5.174   5.237
  5.238   5.428   5.498   5.500   5.645   5.645   6.132   6.325
  6.326   6.902   7.303   7.304   7.331   8.605  24.762  25.147
 27.644  27.645  27.839  27.840  29.026  30.499  36.449  37.306
 37.795  37.797  38.162  38.164  38.627  38.761  40.794  40.803
 40.900  40.902  40.911  40.981  40.982  41.143  41.156  41.172
 41.173  41.396  41.400  41.409  41.579  41.580  41.656  41.656
 41.999  42.038
 
 Beta MOs
 -- Occupied --
-14.078 -14.078 -10.050 -10.049  -0.930  -0.904  -0.640  -0.354
 -0.337  -0.336  -0.324  -0.256  -0.236
 -- Virtual --
  0.196   0.206   0.254   0.261   0.273   0.274   0.277   0.290
  0.317   0.320   0.424   0.432   0.432   0.439   0.440   0.443
  0.452   0.499   0.558   0.575   0.597   0.812   0.815   0.825
  0.870   0.871   0.916   0.925   0.945   0.992   1.079   1.079
  1.120   1.122   1.145   1.149   1.159   1.208   1.221   1.286
  1.305   1.309   1.491   1.491   1.565   1.675   1.675   1.675
  1.753   1.769   1.913   2.067   2.082   2.380   2.396   2.397
  2.409   2.424   2.742   3.021   3.021   3.033   3.035   3.038
  3.049   3.054   3.142   3.155   3.242   3.254   3.261   3.261
  3.488   3.488   3.499   3.500   3.571   3.582   3.583   3.616
  3.816   3.816   3.865   3.880   4.051   4.051   4.090   4.090
  4.231   4.254   4.326   4.376   4.397   4.515   4.618   4.619
  4.801   4.959   4.977   5.044   5.090   5.091   5.208   5.208
  5.270   5.270   5.435   5.505   5.523   5.649   5.665   6.137
  6.329   6.345   6.908   7.307   7.324   7.338   8.609  24.763
 25.147  27.644  27.648  27.839  27.843  29.027  30.500  36.457
 37.316  37.802  37.814  38.170  38.182  38.631  38.765  40.810
 40.819  40.902  40.919  40.926  40.983  40.995  41.145  41.158
 41.174  41.186  41.397  41.402  41.411  41.579  41.583  41.655
 41.659  42.001  42.040
 --------------------------------------------------------------
 
          Ground-State Mulliken Net Atomic Charges

     Atom                 Charge (a.u.)    Spin (a.u.)
  --------------------------------------------------------
      1 N                    -0.579178       0.394315
      2 C                     0.079205       0.105687
      3 C                     0.079165       0.105687
      4 N                    -0.579192       0.394311
  --------------------------------------------------------
  Sum of atomic charges =    -1.000000
  Sum of spin   charges =     1.000000

 -----------------------------------------------------------------
                    Cartesian Multipole Moments
 -----------------------------------------------------------------
    Charge (ESU x 10^10)
                -4.8032
    Dipole Moment (Debye)
         X       0.0000      Y       0.0000      Z       0.0001
       Tot       0.0001
    Quadrupole Moments (Debye-Ang)
        XX     -24.6857     XY      -0.9848     YY     -24.6840
        XZ       0.0000     YZ      -0.0001     ZZ     -47.2411
    Octapole Moments (Debye-Ang^2)
       XXX       0.0000    XXY       0.0000    XYY       0.0000
       YYY       0.0000    XXZ       0.0000    XYZ       0.0000
       YYZ       0.0000    XZZ       0.0000    YZZ       0.0000
       ZZZ       0.0003
    Hexadecapole Moments (Debye-Ang^3)
      XXXX     -29.7570   XXXY      -1.4748   XXYY      -9.9183
      XYYY      -1.4748   YYYY     -29.7519   XXXZ      -0.0001
      XXYZ       0.0000   XYYZ       0.0000   YYYZ      -0.0001
      XXZZ     -63.0224   XYZZ      -2.6104   YYZZ     -63.0178
      XZZZ      -0.0004   YZZZ      -0.0005   ZZZZ    -445.0631
 -----------------------------------------------------------------
 Total job time:  53.79s(wall), 53.40s(cpu) 
 Sun Jul  7 08:40:42 2013

        *************************************************************
        *                                                           *
        *  Thank you very much for using Q-Chem.  Have a nice day.  *
        *                                                           *
        *************************************************************


0 sent ACK to 0 
now end server 0 ... 
 
**********************************************************************
Job 2 of 3 
**********************************************************************
 
Process 0 of 1 is on cl082.stfx.acenet.ca - thread support 1
initial socket setup ...start
initial socket setup ...done 
now start server 0 ... 

cmd = /usr/bin/ssh clhead /usr/local/qchem/bin/get_hostid 131214676 > /scratch/tmp/6063688.1.short.q/qchem18895/lic.dat
                  Welcome to Q-Chem
     A Quantum Leap Into The Future Of Chemistry

 Y. Shao, L. Fusti-Molnar, Y. Jung, J. Kussmann, C. Ochsenfeld,
 S. T. Brown, A. T. B. Gilbert, L. V. Slipchenko,S. V. Levchenko,
 D. P. O'Neill, R. A. DiStasio Jr., R. C. Lochan, T. Wang,
 G. J. O. Beran, N. A. Besley, J. M. Herbert, C. Y. Lin,
 T. Van Voorhis, S. H. Chien, A. Sodt, R. P. Steele, 
 V. A. Rassolov, P. E. Maslen, P. P. Korambath, R. D. Adamson,
 B. Austin, J. Baker, E. F. C. Byrd, H. Dachsel, R. J. Doerksen,
 A. Dreuw, B. D. Dunietz, A. D. Dutoi, T. R. Furlani,
 S. R. Gwaltney, A. Heyden, S. Hirata, C.-P. Hsu, G. Kedziora,
 R. Z. Khaliullin, P. Klunzinger, A. M. Lee, M. S. Lee, W. Liang,
 I. Lotan, N. Nair, B. Peters, E. I. Proynov, P. A. Pieniazek, 
 Y. M. Rhee, J. Ritchie, E. Rosta, C. D. Sherrill, 
 A. C. Simmonett, J. E. Subotnik, H. L. Woodcock III,
 W. Zhang, A. T. Bell, A. K. Chakraborty, D. M. Chipman,
 F. J. Keil, A. Warshel, W. J. Hehre, H. F. Schaefer III,
 J. Kong, A. I. Krylov, P. M. W. Gill, M. Head-Gordon,
 Q-Chem, Version 3.1, Q-Chem, Inc., Pittsburgh, PA (2007).

 Additional authors for Version 3.1: 
 Z. Gan, Y. Zhao, N. E. Schultz, D. Truhlar, E. Epifanovsky and M. Oana.

 Additional authors for Version 3.2: 
 R. Baer, B. R. Brooks, D. Casanova, J.-D. Chai, C.-L. Cheng, 
 C. Cramer, D. Crittenden, A. Ghysels, G. Hawkins, E. G. Hohenstein, 
 C. Kelley, W. Kurlancheek, D. Liotard, E. Livshits, P. Manohar, 
 A. Marenich, D. Neuhauser, R. Olson, M. A. Rohrdanz, K. S. Thanthiriwatte, 
 A. J. W. Thom, V. Vanovschi, C. F. Williams, Q. Wu and Z.-Q. You. 


 Intel X86 Linux Version

 Q-chem begins on Sun Jul  7 08:40:45 2013  

 Parallel job on  1  processors
Processing $rem in /usr/local/qchem/config/preferences.

theFileMan(): MAXOPENFILES=974 MAX_SUB_FILE_NUM=16
Maximum size of a physical file is 2.0 GB, maximum size of a tmp-file is 32.0 GB


--------------------------------------------------------------
User input:
--------------------------------------------------------------

$molecule
0,1
N          0.00000        0.00000        1.83618
C          0.00000        0.00000        0.69391
C          0.00000        0.00000       -0.69391
N          0.00000        0.00000       -1.83618
$end

$comment
neutral
$end

$xc_functional
C PBE   1.00
X wPBE  1.00
$end


$rem
SYMMETRY_DECOMPOSITION	0
LRC_DFT                 true
exchange 		general
BASIS                   g3large
omega			600
mem_static              760
max_scf_cycles          200
scf_final_print         1
sym_ignore              true
$end

--------------------------------------------------------------
 Writing REM_CC_EA            4
 ----------------------------------------------------
       Standard Nuclear Orientation (Angstroms)
    I     Atom         X            Y            Z
 ----------------------------------------------------
    1      N       0.000000     0.000000     1.836180
    2      C       0.000000     0.000000     0.693910
    3      C       0.000000     0.000000    -0.693910
    4      N       0.000000     0.000000    -1.836180
 ----------------------------------------------------
 Nuclear Repulsion Energy =    77.2710182365 hartrees
 There are       13 alpha and       13 beta electrons
 Requested basis set is G3large
 There are 40 shells and 168 basis functions

Total QAlloc Memory Limit   2000 MB
Mega-Array Size       743 MB
MEM_STATIC part       760 MB

                       Distance Matrix (Angstroms)
             N (  1)   C (  2)   C (  3)
   C (  2)  1.142270
   C (  3)  2.530090  1.387820
   N (  4)  3.672360  2.530090  1.142270
 
 A cutoff of  1.0D-08 yielded    716 shell pairs
 There are  12995 function pairs ( 17001 Cartesian)
Evaluating contribution to one-electron hamiltonian from nuclear
 Smallest overlap matrix eigenvalue = 9.69E-06

 Q-Chem warning in module mkSTV.C, line 194:

 Overlap eigenvalue is smaller than square root of threshold

 Multipole matrices computed through 2nd order

  Scale SEOQF with 1.000000e-01/1.000000e-01/1.000000e-01

 Standard Electronic Orientation quadrupole field applied
 Nucleus-field energy     =    -0.0000000057 hartrees
 Guess from superposition of atomic densities
 Warning:  Energy on first SCF cycle will be non-variational
 Long-range K will be added via erf
 Coulomb attenuation parameter = 0.6 bohr**(-1)
 A restricted Kohn-Sham SCF calculation will be
 performed using Pulay DIIS extrapolation
 Exchange:  wPBE + LR-HF      Correlation:  PBE
 Using SG-1 standard quadrature grid
 SCF converges when DIIS error is below 1.0E-05
 Requested basis set is G3large
 There are 40 shells and 168 basis functions
 A cutoff of  1.0D-08 yielded    716 shell pairs
 There are  12995 function pairs ( 17001 Cartesian)
 ---------------------------------------
  Cycle       Energy         DIIS Error
 ---------------------------------------
    1    -186.3627653438      3.80E-02
    2    -185.4090425914      5.60E-03
    3    -185.3799641370      7.47E-03
    4    -185.5313289634      5.62E-04
    5    -185.5349474905      2.09E-04
    6    -185.5356723785      7.66E-05
    7    -185.5357903793      1.91E-05
    8    -185.5357950701      4.05E-06 Convergence criterion met
 ---------------------------------------
 One-Electron    Energy =  -402.3744422560
 Total Coulomb   Energy =   163.9365676510
 Alpha Exchange  Energy =    -3.5904264324
 Beta  Exchange  Energy =    -3.5904264324
 DFT   Exchange  Energy =   -16.3442649783
 DFT Correlation Energy =    -0.8438208529
 Nuclear Repu.   Energy =    77.2710182308
 Nuclear Attr.   Energy =  -587.2891685270
 Kinetic         Energy =   184.9147262710
 SCF time:  CPU 44.26 s  wall 45.00 s
 Final Alpha MO Eigenvalues
            1           2           3           4           5           6
    1 -14.3823966 -14.3823387 -10.3319748 -10.3312842  -1.2132528  -1.1864338
            7           8           9          10          11          12
    1  -0.9410893  -0.6247216  -0.6247164  -0.6099099  -0.5967823  -0.5259184
           13          14          15          16          17          18
    1  -0.5259139   0.0080501   0.0080526   0.0495646   0.0768986   0.1014714
 Analysis of SCF Wavefunction
 
 --------------------------------------------------------------
                    Orbital Energies (a.u.)
 --------------------------------------------------------------
 
 Alpha MOs
 -- Occupied --
-14.382 -14.382 -10.332 -10.331  -1.213  -1.186  -0.941  -0.625
 -0.625  -0.610  -0.597  -0.526  -0.526
 -- Virtual --
  0.008   0.008   0.050   0.077   0.101   0.101   0.135   0.135
  0.151   0.171   0.239   0.239   0.245   0.258   0.258   0.267
  0.292   0.325   0.338   0.338   0.383   0.579   0.588   0.588
  0.612   0.612   0.695   0.695   0.731   0.771   0.825   0.825
  0.901   0.903   0.920   0.920   0.936   0.987   0.987   1.024
  1.024   1.049   1.230   1.230   1.292   1.416   1.416   1.438
  1.499   1.499   1.669   1.817   1.817   2.133   2.143   2.159
  2.159   2.179   2.468   2.742   2.742   2.751   2.751   2.762
  2.762   2.771   2.875   2.875   2.976   2.976   2.984   2.984
  3.207   3.208   3.229   3.229   3.303   3.303   3.312   3.341
  3.528   3.528   3.590   3.590   3.768   3.768   3.807   3.807
  3.955   3.955   4.045   4.101   4.101   4.239   4.338   4.338
  4.520   4.680   4.680   4.764   4.811   4.811   4.907   4.907
  4.970   4.970   5.164   5.235   5.235   5.383   5.383   5.864
  6.051   6.051   6.627   7.030   7.030   7.052   8.328  24.480
 24.867  27.364  27.364  27.558  27.558  28.744  30.218  36.155
 37.013  37.502  37.502  37.869  37.869  38.332  38.466  40.500
 40.509  40.607  40.609  40.616  40.687  40.687  40.861  40.875
 40.878  40.878  41.113  41.114  41.127  41.297  41.297  41.373
 41.373  41.709  41.752
 --------------------------------------------------------------
 
          Ground-State Mulliken Net Atomic Charges

     Atom                 Charge (a.u.)
  ----------------------------------------
      1 N                    -0.280476
      2 C                     0.280472
      3 C                     0.280472
      4 N                    -0.280468
  ----------------------------------------
  Sum of atomic charges =     0.000000

 -----------------------------------------------------------------
                    Cartesian Multipole Moments
 -----------------------------------------------------------------
    Charge (ESU x 10^10)
                 0.0000
    Dipole Moment (Debye)
         X       0.0000      Y       0.0000      Z      -0.0001
       Tot       0.0001
    Quadrupole Moments (Debye-Ang)
        XX     -20.7933     XY       0.0000     YY     -20.7933
        XZ       0.0000     YZ       0.0000     ZZ     -30.2721
    Octapole Moments (Debye-Ang^2)
       XXX       0.0000    XXY       0.0000    XYY       0.0000
       YYY       0.0000    XXZ       0.0000    XYZ       0.0000
       YYZ       0.0000    XZZ       0.0000    YZZ       0.0000
       ZZZ      -0.0003
    Hexadecapole Moments (Debye-Ang^3)
      XXXX     -19.8747   XXXY       0.0000   XXYY      -6.6249
      XYYY       0.0000   YYYY     -19.8747   XXXZ       0.0000
      XXYZ       0.0000   XYYZ       0.0000   YYYZ       0.0000
      XXZZ     -49.9770   XYZZ       0.0001   YYZZ     -49.9770
      XZZZ       0.0001   YZZZ      -0.0001   ZZZZ    -328.8922
 -----------------------------------------------------------------
 Total job time:  45.18s(wall), 44.43s(cpu) 
 Sun Jul  7 08:41:31 2013

        *************************************************************
        *                                                           *
        *  Thank you very much for using Q-Chem.  Have a nice day.  *
        *                                                           *
        *************************************************************


0 sent ACK to 0 
now end server 0 ... 
 
**********************************************************************
Job 3 of 3 
**********************************************************************
 
Process 0 of 1 is on cl082.stfx.acenet.ca - thread support 1
initial socket setup ...start
initial socket setup ...done 
now start server 0 ... 

cmd = /usr/bin/ssh clhead /usr/local/qchem/bin/get_hostid 1636427301 > /scratch/tmp/6063688.1.short.q/qchem18895/lic.dat
                  Welcome to Q-Chem
     A Quantum Leap Into The Future Of Chemistry

 Y. Shao, L. Fusti-Molnar, Y. Jung, J. Kussmann, C. Ochsenfeld,
 S. T. Brown, A. T. B. Gilbert, L. V. Slipchenko,S. V. Levchenko,
 D. P. O'Neill, R. A. DiStasio Jr., R. C. Lochan, T. Wang,
 G. J. O. Beran, N. A. Besley, J. M. Herbert, C. Y. Lin,
 T. Van Voorhis, S. H. Chien, A. Sodt, R. P. Steele, 
 V. A. Rassolov, P. E. Maslen, P. P. Korambath, R. D. Adamson,
 B. Austin, J. Baker, E. F. C. Byrd, H. Dachsel, R. J. Doerksen,
 A. Dreuw, B. D. Dunietz, A. D. Dutoi, T. R. Furlani,
 S. R. Gwaltney, A. Heyden, S. Hirata, C.-P. Hsu, G. Kedziora,
 R. Z. Khaliullin, P. Klunzinger, A. M. Lee, M. S. Lee, W. Liang,
 I. Lotan, N. Nair, B. Peters, E. I. Proynov, P. A. Pieniazek, 
 Y. M. Rhee, J. Ritchie, E. Rosta, C. D. Sherrill, 
 A. C. Simmonett, J. E. Subotnik, H. L. Woodcock III,
 W. Zhang, A. T. Bell, A. K. Chakraborty, D. M. Chipman,
 F. J. Keil, A. Warshel, W. J. Hehre, H. F. Schaefer III,
 J. Kong, A. I. Krylov, P. M. W. Gill, M. Head-Gordon,
 Q-Chem, Version 3.1, Q-Chem, Inc., Pittsburgh, PA (2007).

 Additional authors for Version 3.1: 
 Z. Gan, Y. Zhao, N. E. Schultz, D. Truhlar, E. Epifanovsky and M. Oana.

 Additional authors for Version 3.2: 
 R. Baer, B. R. Brooks, D. Casanova, J.-D. Chai, C.-L. Cheng, 
 C. Cramer, D. Crittenden, A. Ghysels, G. Hawkins, E. G. Hohenstein, 
 C. Kelley, W. Kurlancheek, D. Liotard, E. Livshits, P. Manohar, 
 A. Marenich, D. Neuhauser, R. Olson, M. A. Rohrdanz, K. S. Thanthiriwatte, 
 A. J. W. Thom, V. Vanovschi, C. F. Williams, Q. Wu and Z.-Q. You. 


 Intel X86 Linux Version

 Q-chem begins on Sun Jul  7 08:41:34 2013  

 Parallel job on  1  processors
Processing $rem in /usr/local/qchem/config/preferences.

theFileMan(): MAXOPENFILES=974 MAX_SUB_FILE_NUM=16
Maximum size of a physical file is 2.0 GB, maximum size of a tmp-file is 32.0 GB


--------------------------------------------------------------
User input:
--------------------------------------------------------------

$molecule
1,2
N          0.00000        0.00000        1.83618
C          0.00000        0.00000        0.69391
C          0.00000        0.00000       -0.69391
N          0.00000        0.00000       -1.83618
$end

$comment
positive
$end

$xc_functional
C PBE   1.00
X wPBE  1.00
$end

$rem
SYMMETRY_DECOMPOSITION	0
LRC_DFT                 true
exchange 		general
BASIS                   g3large
omega			600
mem_static              760
max_scf_cycles          200
scf_final_print         1
sym_ignore              true
$end

--------------------------------------------------------------
 Writing REM_CC_EA            4
 ----------------------------------------------------
       Standard Nuclear Orientation (Angstroms)
    I     Atom         X            Y            Z
 ----------------------------------------------------
    1      N       0.000000     0.000000     1.836180
    2      C       0.000000     0.000000     0.693910
    3      C       0.000000     0.000000    -0.693910
    4      N       0.000000     0.000000    -1.836180
 ----------------------------------------------------
 Nuclear Repulsion Energy =    77.2710182365 hartrees
 There are       13 alpha and       12 beta electrons
 Requested basis set is G3large
 There are 40 shells and 168 basis functions

Total QAlloc Memory Limit   2000 MB
Mega-Array Size       743 MB
MEM_STATIC part       760 MB

                       Distance Matrix (Angstroms)
             N (  1)   C (  2)   C (  3)
   C (  2)  1.142270
   C (  3)  2.530090  1.387820
   N (  4)  3.672360  2.530090  1.142270
 
 A cutoff of  1.0D-08 yielded    716 shell pairs
 There are  12995 function pairs ( 17001 Cartesian)
Evaluating contribution to one-electron hamiltonian from nuclear
 Smallest overlap matrix eigenvalue = 9.69E-06

 Q-Chem warning in module mkSTV.C, line 194:

 Overlap eigenvalue is smaller than square root of threshold

 Multipole matrices computed through 2nd order

  Scale SEOQF with 1.000000e-01/1.000000e-01/1.000000e-01

 Standard Electronic Orientation quadrupole field applied
 Nucleus-field energy     =    -0.0000000057 hartrees
 Guess from superposition of atomic densities
 Warning:  Energy on first SCF cycle will be non-variational
 Long-range K will be added via erf
 Coulomb attenuation parameter = 0.6 bohr**(-1)
 An unrestricted Kohn-Sham SCF calculation will be
 performed using Pulay DIIS extrapolation
 Exchange:  wPBE + LR-HF      Correlation:  PBE
 Using SG-1 standard quadrature grid
 SCF converges when DIIS error is below 1.0E-05
 Requested basis set is G3large
 There are 40 shells and 168 basis functions
 A cutoff of  1.0D-08 yielded    716 shell pairs
 There are  12995 function pairs ( 17001 Cartesian)
 Warning!  Inaccurate integrated density:
   Number of electrons =    25
   Numerical integral  =    26.000074941606
   Relative error      =     4.0002997664 %
 ---------------------------------------
  Cycle       Energy         DIIS Error
 ---------------------------------------
    1    -186.3627653438      3.80E-02
    2    -184.8786179807      4.98E-03
    3    -184.9394199943      5.31E-03
    4    -185.0218506342      8.01E-04
    5    -185.0279385424      3.25E-04
    6    -185.0302074402      1.06E-04
    7    -185.0307427057      2.61E-05
    8    -185.0308172653      1.14E-05
    9    -185.0308407737      5.53E-06 Convergence criterion met
 ---------------------------------------
 One-Electron    Energy =  -394.2754682169
 Total Coulomb   Energy =   155.9831625132
 Alpha Exchange  Energy =    -3.6272075978
 Beta  Exchange  Energy =    -3.3305498431
 DFT   Exchange  Energy =   -16.2516763059
 DFT Correlation Energy =    -0.8001195540
 Nuclear Repu.   Energy =    77.2710182308
 Nuclear Attr.   Energy =  -578.9919340317
 Kinetic         Energy =   184.7164658148
 <S^2> = 0.8499
 SCF time:  CPU 59.99 s  wall 60.42 s
 Final Alpha MO Eigenvalues
            1           2           3           4           5           6
    1 -14.7168568 -14.7167978 -10.6514824 -10.6508155  -1.5430625  -1.5239288
            7           8           9          10          11          12
    1  -1.2339502  -0.9437398  -0.9212914  -0.9070875  -0.8946274  -0.8707045
           13          14          15          16          17          18
    1  -0.8340875  -0.2918638  -0.2733899  -0.1186522  -0.0840858  -0.0666846
 Final Beta MO Eigenvalues
            1           2           3           4           5           6
    1 -14.7066398 -14.7065909 -10.6516828 -10.6508355  -1.5092991  -1.4799190
            7           8           9          10          11          12
    1  -1.2403611  -0.9173048  -0.8887117  -0.8773528  -0.8422862  -0.8191439
           13          14          15          16          17
    1  -0.4836807  -0.2673339  -0.2205254  -0.1187925  -0.0803904
 Analysis of SCF Wavefunction
 
 --------------------------------------------------------------
                    Orbital Energies (a.u.)
 --------------------------------------------------------------
 
 Alpha MOs
 -- Occupied --
-14.717 -14.717 -10.651 -10.651  -1.543  -1.524  -1.234  -0.944
 -0.921  -0.907  -0.895  -0.871  -0.834
 -- Virtual --
 -0.292  -0.273  -0.119  -0.084  -0.067  -0.064  -0.050  -0.037
 -0.021  -0.011  -0.010  -0.005   0.050   0.090   0.092   0.094
  0.138   0.153   0.157   0.162   0.204   0.341   0.349   0.349
  0.350   0.356   0.454   0.462   0.510   0.538   0.549   0.549
  0.658   0.670   0.671   0.683   0.715   0.728   0.743   0.747
  0.757   0.782   0.947   0.947   0.997   1.140   1.140   1.189
  1.204   1.224   1.414   1.541   1.554   1.864   1.865   1.890
  1.905   1.920   2.185   2.450   2.450   2.454   2.456   2.476
  2.477   2.481   2.575   2.585   2.679   2.688   2.688   2.688
  2.908   2.908   2.917   2.918   2.984   3.002   3.019   3.048
  3.230   3.230   3.266   3.286   3.453   3.453   3.494   3.494
  3.623   3.653   3.734   3.776   3.802   3.937   4.029   4.030
  4.217   4.366   4.382   4.461   4.510   4.510   4.572   4.573
  4.632   4.632   4.874   4.918   4.942   5.073   5.094   5.561
  5.724   5.744   6.317   6.704   6.725   6.738   8.017  24.164
 24.550  27.044  27.047  27.238  27.242  28.426  29.899  35.821
 36.678  37.157  37.172  37.524  37.539  38.003  38.136  40.157
 40.166  40.262  40.274  40.284  40.345  40.360  40.537  40.541
 40.551  40.555  40.790  40.794  40.807  40.974  40.978  41.051
 41.055  41.384  41.430
 
 Beta MOs
 -- Occupied --
-14.707 -14.707 -10.652 -10.651  -1.509  -1.480  -1.240  -0.917
 -0.889  -0.877  -0.842  -0.819
 -- Virtual --
 -0.484  -0.267  -0.221  -0.119  -0.080  -0.066  -0.064  -0.036
 -0.023  -0.019  -0.011  -0.003   0.010   0.051   0.094   0.095
  0.097   0.139   0.154   0.164   0.167   0.206   0.338   0.347
  0.349   0.350   0.354   0.462   0.462   0.515   0.546   0.569
  0.570   0.667   0.675   0.685   0.688   0.722   0.753   0.759
  0.762   0.766   0.788   0.973   0.974   1.006   1.158   1.159
  1.199   1.229   1.230   1.418   1.554   1.555   1.872   1.876
  1.909   1.909   1.928   2.189   2.451   2.451   2.460   2.460
  2.473   2.479   2.484   2.579   2.582   2.686   2.687   2.693
  2.693   2.909   2.909   2.932   2.933   3.004   3.005   3.027
  3.052   3.231   3.231   3.289   3.289   3.488   3.488   3.526
  3.526   3.665   3.672   3.747   3.812   3.817   3.953   4.049
  4.050   4.229   4.385   4.385   4.474   4.524   4.525   4.621
  4.625   4.681   4.684   4.881   4.949   4.954   5.099   5.102
  5.569   5.748   5.749   6.326   6.730   6.732   6.745   8.023
 24.164  24.550  27.045  27.046  27.240  27.241  28.426  29.900
 35.833  36.692  37.180  37.185  37.547  37.553  38.009  38.142
 40.180  40.189  40.285  40.289  40.297  40.363  40.365  40.541
 40.554  40.555  40.557  40.792  40.794  40.807  40.977  40.978
 41.053  41.054  41.387  41.431
 --------------------------------------------------------------
 
          Ground-State Mulliken Net Atomic Charges

     Atom                 Charge (a.u.)    Spin (a.u.)
  --------------------------------------------------------
      1 N                     0.015539       0.506656
      2 C                     0.484459      -0.006679
      3 C                     0.484456      -0.006567
      4 N                     0.015545       0.506590
  --------------------------------------------------------
  Sum of atomic charges =     1.000000
  Sum of spin   charges =     1.000000

 -----------------------------------------------------------------
                    Cartesian Multipole Moments
 -----------------------------------------------------------------
    Charge (ESU x 10^10)
                 4.8032
    Dipole Moment (Debye)
         X       0.0000      Y       0.0000      Z       0.0000
       Tot       0.0000
    Quadrupole Moments (Debye-Ang)
        XX     -17.9277     XY      -0.5961     YY     -17.9273
        XZ       0.0075     YZ      -0.0075     ZZ     -15.0970
    Octapole Moments (Debye-Ang^2)
       XXX       0.0000    XXY       0.0000    XYY       0.0000
       YYY       0.0000    XXZ       0.0000    XYZ       0.0000
       YYZ       0.0000    XZZ       0.0000    YZZ      -0.0001
       ZZZ       0.0000
    Hexadecapole Moments (Debye-Ang^3)
      XXXX     -14.9971   XXXY      -0.3646   XXYY      -4.9993
      XYYY      -0.3646   YYYY     -14.9965   XXXZ       0.0058
      XXYZ      -0.0019   XYYZ       0.0019   YYYZ      -0.0058
      XXZZ     -41.1812   XYZZ      -1.7330   YYZZ     -41.1799
      XZZZ       0.0410   YZZZ      -0.0410   ZZZZ    -247.8818
 -----------------------------------------------------------------
 Total job time:  60.60s(wall), 60.16s(cpu) 
 Sun Jul  7 08:42:34 2013

        *************************************************************
        *                                                           *
        *  Thank you very much for using Q-Chem.  Have a nice day.  *
        *                                                           *
        *************************************************************


0 sent ACK to 0 
now end server 0 ... 
