Process 0 of 1 is on cl213.stfx.acenet.ca - thread support 1
initial socket setup ...start
initial socket setup ...done 
now start server 0 ... 

cmd = /usr/bin/ssh clhead /usr/local/qchem/bin/get_hostid 1819205691 > /scratch/tmp/6021918.1.medium.q/qchem20639/lic.dat
                  Welcome to Q-Chem
     A Quantum Leap Into The Future Of Chemistry

 Y. Shao, L. Fusti-Molnar, Y. Jung, J. Kussmann, C. Ochsenfeld,
 S. T. Brown, A. T. B. Gilbert, L. V. Slipchenko,S. V. Levchenko,
 D. P. O'Neill, R. A. DiStasio Jr., R. C. Lochan, T. Wang,
 G. J. O. Beran, N. A. Besley, J. M. Herbert, C. Y. Lin,
 T. Van Voorhis, S. H. Chien, A. Sodt, R. P. Steele, 
 V. A. Rassolov, P. E. Maslen, P. P. Korambath, R. D. Adamson,
 B. Austin, J. Baker, E. F. C. Byrd, H. Dachsel, R. J. Doerksen,
 A. Dreuw, B. D. Dunietz, A. D. Dutoi, T. R. Furlani,
 S. R. Gwaltney, A. Heyden, S. Hirata, C.-P. Hsu, G. Kedziora,
 R. Z. Khaliullin, P. Klunzinger, A. M. Lee, M. S. Lee, W. Liang,
 I. Lotan, N. Nair, B. Peters, E. I. Proynov, P. A. Pieniazek, 
 Y. M. Rhee, J. Ritchie, E. Rosta, C. D. Sherrill, 
 A. C. Simmonett, J. E. Subotnik, H. L. Woodcock III,
 W. Zhang, A. T. Bell, A. K. Chakraborty, D. M. Chipman,
 F. J. Keil, A. Warshel, W. J. Hehre, H. F. Schaefer III,
 J. Kong, A. I. Krylov, P. M. W. Gill, M. Head-Gordon,
 Q-Chem, Version 3.1, Q-Chem, Inc., Pittsburgh, PA (2007).

 Additional authors for Version 3.1: 
 Z. Gan, Y. Zhao, N. E. Schultz, D. Truhlar, E. Epifanovsky and M. Oana.

 Additional authors for Version 3.2: 
 R. Baer, B. R. Brooks, D. Casanova, J.-D. Chai, C.-L. Cheng, 
 C. Cramer, D. Crittenden, A. Ghysels, G. Hawkins, E. G. Hohenstein, 
 C. Kelley, W. Kurlancheek, D. Liotard, E. Livshits, P. Manohar, 
 A. Marenich, D. Neuhauser, R. Olson, M. A. Rohrdanz, K. S. Thanthiriwatte, 
 A. J. W. Thom, V. Vanovschi, C. F. Williams, Q. Wu and Z.-Q. You. 


 Intel X86 Linux Version

 Q-chem begins on Wed May 29 17:02:06 2013  

 Parallel job on  1  processors
Processing $rem in /usr/local/qchem/config/preferences.

theFileMan(): MAXOPENFILES=974 MAX_SUB_FILE_NUM=16
Maximum size of a physical file is 2.0 GB, maximum size of a tmp-file is 32.0 GB


--------------------------------------------------------------
User input:
--------------------------------------------------------------

$molecule
-1,2
C          0.00000        0.00000        0.00524
C          0.00000        0.00000        1.32569
H          0.92424        0.00000       -0.56390
H         -0.92424        0.00000       -0.56390
H          0.92424        0.00000        1.89483
H         -0.92424        0.00000        1.89483
$end

$comment
negative
$end

$xc_functional
C PBE   1.00
X wPBE  1.00
$end

$rem
SYMMETRY_DECOMPOSITION	0
exchange 		general
LRC_DFT                 true
BASIS                   g3large
omega			410
mem_static              760
max_scf_cycles          200
scf_final_print         1
sym_ignore              true
$end

--------------------------------------------------------------
 Writing REM_CC_EA            6
 ----------------------------------------------------
       Standard Nuclear Orientation (Angstroms)
    I     Atom         X            Y            Z
 ----------------------------------------------------
    1      C       0.000000     0.000000     0.005240
    2      C       0.000000     0.000000     1.325690
    3      H       0.924240     0.000000    -0.563900
    4      H      -0.924240     0.000000    -0.563900
    5      H       0.924240     0.000000     1.894830
    6      H      -0.924240     0.000000     1.894830
 ----------------------------------------------------
 Nuclear Repulsion Energy =    33.5126428380 hartrees
 There are        9 alpha and        8 beta electrons
 Requested basis set is G3large
 There are 44 shells and 124 basis functions

Total QAlloc Memory Limit   2000 MB
Mega-Array Size       743 MB
MEM_STATIC part       760 MB

                       Distance Matrix (Angstroms)
             C (  1)   C (  2)   H (  3)   H (  4)   H (  5)
   C (  2)  1.320450
   H (  3)  1.085422  2.103514
   H (  4)  1.085422  2.103514  1.848480
   H (  5)  2.103514  1.085422  2.458730  3.076074
   H (  6)  2.103514  1.085422  3.076074  2.458730  1.848480
 
 A cutoff of  1.0D-08 yielded    978 shell pairs
 There are   7834 function pairs (  9461 Cartesian)
Evaluating contribution to one-electron hamiltonian from nuclear
 Smallest overlap matrix eigenvalue = 1.15E-04
 Multipole matrices computed through 2nd order

  Scale SEOQF with 1.000000e-01/1.000000e-01/1.000000e-01

 Standard Electronic Orientation quadrupole field applied
 Nucleus-field energy     =    -0.0000000018 hartrees
 Guess from superposition of atomic densities
 Warning:  Energy on first SCF cycle will be non-variational
 Long-range K will be added via erf
 Coulomb attenuation parameter = 0.41 bohr**(-1)
 An unrestricted Kohn-Sham SCF calculation will be
 performed using Pulay DIIS extrapolation
 Exchange:  wPBE + LR-HF      Correlation:  PBE
 Using SG-1 standard quadrature grid
 SCF converges when DIIS error is below 1.0E-05
 Requested basis set is G3large
 There are 44 shells and 124 basis functions
 A cutoff of  1.0D-08 yielded    978 shell pairs
 There are   7834 function pairs (  9461 Cartesian)
 Warning!  Inaccurate integrated density:
   Number of electrons =    17
   Numerical integral  =    15.999959341146
   Relative error      =    -5.8825921109 %
 ---------------------------------------
  Cycle       Energy         DIIS Error
 ---------------------------------------
    1     -78.8999678627      3.75E-02
    2     -78.3443391327      7.15E-03
    3     -78.4016450730      6.21E-03
    4     -78.4787073338      3.82E-04
    5     -78.4802166320      1.72E-04
    6     -78.4806455303      7.53E-05
    7     -78.4808002059      3.16E-05
    8     -78.4808415321      1.31E-05
    9     -78.4808551074      9.88E-06 Convergence criterion met
 ---------------------------------------
 One-Electron    Energy =  -174.4588771051
 Total Coulomb   Energy =    74.9127311904
 Alpha Exchange  Energy =    -1.7381366805
 Beta  Exchange  Energy =    -1.5888949496
 DFT   Exchange  Energy =    -8.6013055656
 DFT Correlation Energy =    -0.5190148332
 Nuclear Repu.   Energy =    33.5126428362
 Nuclear Attr.   Energy =  -252.7987226470
 Kinetic         Energy =    78.3398455419
 <S^2> = 0.7525
 SCF time:  CPU 34.76 s  wall 35.24 s
 Final Alpha MO Eigenvalues
            1           2           3           4           5           6
    1  -9.8525118  -9.8518028  -0.6758731  -0.4891380  -0.3677975  -0.3066845
            7           8           9          10          11          12
    1  -0.2397803  -0.1823839   0.0616084   0.1776566   0.1817781   0.1847487
           13          14
    1   0.1921697   0.2764669
 Final Beta MO Eigenvalues
            1           2           3           4           5           6
    1  -9.8486691  -9.8478742  -0.6655010  -0.4705518  -0.3647110  -0.3015373
            7           8           9          10          11          12
    1  -0.2363835  -0.1368406   0.1797631   0.1846825   0.1855226   0.1926367
           13
    1   0.2669816
 Analysis of SCF Wavefunction
 
 --------------------------------------------------------------
                    Orbital Energies (a.u.)
 --------------------------------------------------------------
 
 Alpha MOs
 -- Occupied --
 -9.853  -9.852  -0.676  -0.489  -0.368  -0.307  -0.240  -0.182
  0.062
 -- Virtual --
  0.178   0.182   0.185   0.192   0.276   0.286   0.308   0.333
  0.343   0.352   0.354   0.365   0.413   0.440   0.458   0.598
  0.651   0.721   0.730   0.807   0.818   0.829   0.838   0.856
  0.905   0.925   0.951   0.952   0.989   1.016   1.048   1.064
  1.152   1.225   1.255   1.323   1.349   1.361   1.466   1.480
  1.524   1.528   1.709   1.723   1.739   1.740   1.816   1.837
  1.858   1.928   2.090   2.743   2.847   2.884   2.993   3.029
  3.045   3.093   3.135   3.142   3.227   3.263   3.303   3.404
  3.439   3.454   3.489   3.498   3.531   3.579   3.583   3.651
  3.716   3.747   3.916   3.998   4.012   4.029   4.088   4.094
  4.349   4.400   4.409   4.504   4.560   4.615   4.721   4.762
  4.833   5.035   5.094   5.448   5.490   5.796   5.843   6.003
  6.368  24.156  25.010  27.484  27.671  28.369  28.474  28.503
 28.635  41.104  41.225  41.242  41.391  41.397  41.435  41.519
 41.520  41.579  41.623
 
 Beta MOs
 -- Occupied --
 -9.849  -9.848  -0.666  -0.471  -0.365  -0.302  -0.236  -0.137
 -- Virtual --
  0.180   0.185   0.186   0.193   0.267   0.284   0.289   0.309
  0.349   0.353   0.367   0.367   0.401   0.417   0.441   0.466
  0.600   0.657   0.728   0.729   0.813   0.832   0.840   0.855
  0.859   0.933   0.942   0.959   0.973   0.995   1.038   1.055
  1.068   1.155   1.231   1.259   1.334   1.354   1.376   1.470
  1.488   1.525   1.551   1.718   1.737   1.741   1.744   1.818
  1.842   1.865   1.941   2.093   2.751   2.849   2.891   3.009
  3.048   3.052   3.118   3.145   3.152   3.232   3.280   3.309
  3.424   3.455   3.466   3.505   3.505   3.538   3.580   3.593
  3.674   3.734   3.752   3.921   4.014   4.018   4.046   4.091
  4.110   4.348   4.400   4.413   4.511   4.564   4.620   4.724
  4.771   4.837   5.053   5.094   5.453   5.499   5.797   5.844
  6.005   6.372  24.161  25.015  27.496  27.682  28.372  28.477
 28.505  28.638  41.110  41.232  41.250  41.399  41.405  41.443
 41.521  41.526  41.582  41.624
 --------------------------------------------------------------
 
          Ground-State Mulliken Net Atomic Charges

     Atom                 Charge (a.u.)    Spin (a.u.)
  --------------------------------------------------------
      1 C                    -0.602274       0.567393
      2 C                    -0.602295       0.567393
      3 H                     0.048942      -0.031469
      4 H                     0.053344      -0.035927
      5 H                     0.053344      -0.035920
      6 H                     0.048940      -0.031469
  --------------------------------------------------------
  Sum of atomic charges =    -1.000000
  Sum of spin   charges =     1.000000

 -----------------------------------------------------------------
                    Cartesian Multipole Moments
 -----------------------------------------------------------------
    Charge (ESU x 10^10)
                -4.8032
    Dipole Moment (Debye)
         X       0.0000      Y       0.0000      Z      -3.1964
       Tot       3.1964
    Quadrupole Moments (Debye-Ang)
        XX     -17.9435     XY       0.1097     YY     -27.0584
        XZ       0.0241     YZ      -0.5161     ZZ     -28.2636
    Octapole Moments (Debye-Ang^2)
       XXX       0.0000    XXY       0.0000    XYY       0.0000
       YYY       0.0000    XXZ     -11.9409    XYZ       0.0730
       YYZ     -18.0067    XZZ       0.0320    YZZ      -0.6868
       ZZZ     -53.5946
    Hexadecapole Moments (Debye-Ang^3)
      XXXX     -48.6804   XXXY       0.7669   XXYY     -23.3861
      XYYY       0.6677   YYYY     -87.7975   XXXZ       0.2551
      XXYZ      -1.3679   XYYZ       0.0615   YYYZ      -3.3051
      XXZZ     -39.7739   XYZZ       0.8717   YYZZ     -69.4920
      XZZZ       0.2966   YZZZ      -4.6050   ZZZZ    -222.7121
 -----------------------------------------------------------------
 Total job time:  35.37s(wall), 34.88s(cpu) 
 Wed May 29 17:02:41 2013

        *************************************************************
        *                                                           *
        *  Thank you very much for using Q-Chem.  Have a nice day.  *
        *                                                           *
        *************************************************************


0 sent ACK to 0 
now end server 0 ... 
 
**********************************************************************
Job 2 of 3 
**********************************************************************
 
Process 0 of 1 is on cl213.stfx.acenet.ca - thread support 1
initial socket setup ...start
initial socket setup ...done 
now start server 0 ... 

cmd = /usr/bin/ssh clhead /usr/local/qchem/bin/get_hostid 998848450 > /scratch/tmp/6021918.1.medium.q/qchem20639/lic.dat
                  Welcome to Q-Chem
     A Quantum Leap Into The Future Of Chemistry

 Y. Shao, L. Fusti-Molnar, Y. Jung, J. Kussmann, C. Ochsenfeld,
 S. T. Brown, A. T. B. Gilbert, L. V. Slipchenko,S. V. Levchenko,
 D. P. O'Neill, R. A. DiStasio Jr., R. C. Lochan, T. Wang,
 G. J. O. Beran, N. A. Besley, J. M. Herbert, C. Y. Lin,
 T. Van Voorhis, S. H. Chien, A. Sodt, R. P. Steele, 
 V. A. Rassolov, P. E. Maslen, P. P. Korambath, R. D. Adamson,
 B. Austin, J. Baker, E. F. C. Byrd, H. Dachsel, R. J. Doerksen,
 A. Dreuw, B. D. Dunietz, A. D. Dutoi, T. R. Furlani,
 S. R. Gwaltney, A. Heyden, S. Hirata, C.-P. Hsu, G. Kedziora,
 R. Z. Khaliullin, P. Klunzinger, A. M. Lee, M. S. Lee, W. Liang,
 I. Lotan, N. Nair, B. Peters, E. I. Proynov, P. A. Pieniazek, 
 Y. M. Rhee, J. Ritchie, E. Rosta, C. D. Sherrill, 
 A. C. Simmonett, J. E. Subotnik, H. L. Woodcock III,
 W. Zhang, A. T. Bell, A. K. Chakraborty, D. M. Chipman,
 F. J. Keil, A. Warshel, W. J. Hehre, H. F. Schaefer III,
 J. Kong, A. I. Krylov, P. M. W. Gill, M. Head-Gordon,
 Q-Chem, Version 3.1, Q-Chem, Inc., Pittsburgh, PA (2007).

 Additional authors for Version 3.1: 
 Z. Gan, Y. Zhao, N. E. Schultz, D. Truhlar, E. Epifanovsky and M. Oana.

 Additional authors for Version 3.2: 
 R. Baer, B. R. Brooks, D. Casanova, J.-D. Chai, C.-L. Cheng, 
 C. Cramer, D. Crittenden, A. Ghysels, G. Hawkins, E. G. Hohenstein, 
 C. Kelley, W. Kurlancheek, D. Liotard, E. Livshits, P. Manohar, 
 A. Marenich, D. Neuhauser, R. Olson, M. A. Rohrdanz, K. S. Thanthiriwatte, 
 A. J. W. Thom, V. Vanovschi, C. F. Williams, Q. Wu and Z.-Q. You. 


 Intel X86 Linux Version

 Q-chem begins on Wed May 29 17:02:44 2013  

 Parallel job on  1  processors
Processing $rem in /usr/local/qchem/config/preferences.

theFileMan(): MAXOPENFILES=974 MAX_SUB_FILE_NUM=16
Maximum size of a physical file is 2.0 GB, maximum size of a tmp-file is 32.0 GB


--------------------------------------------------------------
User input:
--------------------------------------------------------------

$molecule
0,1
C          0.00000        0.00000        0.00524
C          0.00000        0.00000        1.32569
H          0.92424        0.00000       -0.56390
H         -0.92424        0.00000       -0.56390
H          0.92424        0.00000        1.89483
H         -0.92424        0.00000        1.89483
$end

$comment
neutral
$end

$xc_functional
C PBE   1.00
X wPBE  1.00
$end


$rem
SYMMETRY_DECOMPOSITION	0
LRC_DFT                 true
exchange 		general
BASIS                   g3large
omega			410
mem_static              760
max_scf_cycles          200
scf_final_print         1
sym_ignore              true
$end

--------------------------------------------------------------
 Writing REM_CC_EA            6
 ----------------------------------------------------
       Standard Nuclear Orientation (Angstroms)
    I     Atom         X            Y            Z
 ----------------------------------------------------
    1      C       0.000000     0.000000     0.005240
    2      C       0.000000     0.000000     1.325690
    3      H       0.924240     0.000000    -0.563900
    4      H      -0.924240     0.000000    -0.563900
    5      H       0.924240     0.000000     1.894830
    6      H      -0.924240     0.000000     1.894830
 ----------------------------------------------------
 Nuclear Repulsion Energy =    33.5126428380 hartrees
 There are        8 alpha and        8 beta electrons
 Requested basis set is G3large
 There are 44 shells and 124 basis functions

Total QAlloc Memory Limit   2000 MB
Mega-Array Size       743 MB
MEM_STATIC part       760 MB

                       Distance Matrix (Angstroms)
             C (  1)   C (  2)   H (  3)   H (  4)   H (  5)
   C (  2)  1.320450
   H (  3)  1.085422  2.103514
   H (  4)  1.085422  2.103514  1.848480
   H (  5)  2.103514  1.085422  2.458730  3.076074
   H (  6)  2.103514  1.085422  3.076074  2.458730  1.848480
 
 A cutoff of  1.0D-08 yielded    978 shell pairs
 There are   7834 function pairs (  9461 Cartesian)
Evaluating contribution to one-electron hamiltonian from nuclear
 Smallest overlap matrix eigenvalue = 1.15E-04
 Multipole matrices computed through 2nd order

  Scale SEOQF with 1.000000e-01/1.000000e-01/1.000000e-01

 Standard Electronic Orientation quadrupole field applied
 Nucleus-field energy     =    -0.0000000018 hartrees
 Guess from superposition of atomic densities
 Warning:  Energy on first SCF cycle will be non-variational
 Long-range K will be added via erf
 Coulomb attenuation parameter = 0.41 bohr**(-1)
 A restricted Kohn-Sham SCF calculation will be
 performed using Pulay DIIS extrapolation
 Exchange:  wPBE + LR-HF      Correlation:  PBE
 Using SG-1 standard quadrature grid
 SCF converges when DIIS error is below 1.0E-05
 Requested basis set is G3large
 There are 44 shells and 124 basis functions
 A cutoff of  1.0D-08 yielded    978 shell pairs
 There are   7834 function pairs (  9461 Cartesian)
 ---------------------------------------
  Cycle       Energy         DIIS Error
 ---------------------------------------
    1     -78.8999678627      3.75E-02
    2     -78.5212003983      3.49E-03
    3     -78.5437470710      1.83E-03
    4     -78.5504589099      3.26E-04
    5     -78.5511331288      6.91E-05
    6     -78.5511787357      1.53E-05
    7     -78.5511805873      3.21E-06 Convergence criterion met
 ---------------------------------------
 One-Electron    Energy =  -170.6614064085
 Total Coulomb   Energy =    70.8454641956
 Alpha Exchange  Energy =    -1.6010325721
 Beta  Exchange  Energy =    -1.6010325721
 DFT   Exchange  Energy =    -8.5493514026
 DFT Correlation Energy =    -0.4964646639
 Nuclear Repu.   Energy =    33.5126428362
 Nuclear Attr.   Energy =  -248.8197284477
 Kinetic         Energy =    78.1583220393
 SCF time:  CPU 21.84 s  wall 22.19 s
 Final Alpha MO Eigenvalues
            1           2           3           4           5           6
    1 -10.1071250 -10.1063199  -0.9163134  -0.7198853  -0.6044420  -0.5467865
            7           8           9          10          11          12
    1  -0.4734671  -0.3979625   0.0464916   0.0596931   0.0611290   0.0783437
           13
    1   0.0815744
 Analysis of SCF Wavefunction
 
 --------------------------------------------------------------
                    Orbital Energies (a.u.)
 --------------------------------------------------------------
 
 Alpha MOs
 -- Occupied --
-10.107 -10.106  -0.916  -0.720  -0.604  -0.547  -0.473  -0.398
 -- Virtual --
  0.046   0.060   0.061   0.078   0.082   0.122   0.137   0.171
  0.179   0.186   0.198   0.213   0.225   0.230   0.252   0.284
  0.424   0.449   0.522   0.527   0.592   0.597   0.627   0.628
  0.656   0.704   0.730   0.745   0.745   0.787   0.799   0.833
  0.858   0.934   1.019   1.044   1.115   1.131   1.147   1.256
  1.262   1.307   1.310   1.492   1.505   1.523   1.527   1.605
  1.618   1.639   1.712   1.869   2.513   2.621   2.654   2.750
  2.791   2.807   2.854   2.903   2.906   2.988   3.025   3.066
  3.168   3.202   3.216   3.250   3.262   3.291   3.343   3.345
  3.414   3.481   3.512   3.681   3.755   3.778   3.789   3.851
  3.853   4.118   4.167   4.174   4.268   4.321   4.380   4.485
  4.525   4.590   4.791   4.858   5.213   5.248   5.556   5.606
  5.767   6.129  23.903  24.757  27.232  27.418  28.116  28.221
 28.249  28.381  40.850  40.972  40.988  41.137  41.143  41.182
 41.264  41.266  41.324  41.369
 --------------------------------------------------------------
 
          Ground-State Mulliken Net Atomic Charges

     Atom                 Charge (a.u.)
  ----------------------------------------
      1 C                    -0.183355
      2 C                    -0.183352
      3 H                     0.091687
      4 H                     0.091667
      5 H                     0.091670
      6 H                     0.091682
  ----------------------------------------
  Sum of atomic charges =     0.000000

 -----------------------------------------------------------------
                    Cartesian Multipole Moments
 -----------------------------------------------------------------
    Charge (ESU x 10^10)
                 0.0000
    Dipole Moment (Debye)
         X       0.0000      Y       0.0000      Z       0.0000
       Tot       0.0000
    Quadrupole Moments (Debye-Ang)
        XX     -12.2127     XY      -0.0003     YY     -15.5810
        XZ       0.0000     YZ       0.0000     ZZ     -12.1171
    Octapole Moments (Debye-Ang^2)
       XXX       0.0000    XXY       0.0000    XYY       0.0000
       YYY       0.0000    XXZ      -8.1271    XYZ      -0.0002
       YYZ     -10.3686    XZZ       0.0000    YZZ       0.0000
       ZZZ     -24.1905
    Hexadecapole Moments (Debye-Ang^3)
      XXXX     -27.0470   XXXY      -0.0006   XXYY      -8.4759
      XYYY      -0.0004   YYYY     -19.0827   XXXZ       0.0000
      XXYZ       0.0000   XYYZ       0.0000   YYYZ       0.0000
      XXZZ     -18.3469   XYZZ      -0.0009   YYZZ     -22.3154
      XZZZ       0.0000   YZZZ       0.0000   ZZZZ    -100.1543
 -----------------------------------------------------------------
 Total job time:  22.32s(wall), 21.95s(cpu) 
 Wed May 29 17:03:06 2013

        *************************************************************
        *                                                           *
        *  Thank you very much for using Q-Chem.  Have a nice day.  *
        *                                                           *
        *************************************************************


0 sent ACK to 0 
now end server 0 ... 
 
**********************************************************************
Job 3 of 3 
**********************************************************************
 
Process 0 of 1 is on cl213.stfx.acenet.ca - thread support 1
initial socket setup ...start
initial socket setup ...done 
now start server 0 ... 

cmd = /usr/bin/ssh clhead /usr/local/qchem/bin/get_hostid 1984487525 > /scratch/tmp/6021918.1.medium.q/qchem20639/lic.dat
                  Welcome to Q-Chem
     A Quantum Leap Into The Future Of Chemistry

 Y. Shao, L. Fusti-Molnar, Y. Jung, J. Kussmann, C. Ochsenfeld,
 S. T. Brown, A. T. B. Gilbert, L. V. Slipchenko,S. V. Levchenko,
 D. P. O'Neill, R. A. DiStasio Jr., R. C. Lochan, T. Wang,
 G. J. O. Beran, N. A. Besley, J. M. Herbert, C. Y. Lin,
 T. Van Voorhis, S. H. Chien, A. Sodt, R. P. Steele, 
 V. A. Rassolov, P. E. Maslen, P. P. Korambath, R. D. Adamson,
 B. Austin, J. Baker, E. F. C. Byrd, H. Dachsel, R. J. Doerksen,
 A. Dreuw, B. D. Dunietz, A. D. Dutoi, T. R. Furlani,
 S. R. Gwaltney, A. Heyden, S. Hirata, C.-P. Hsu, G. Kedziora,
 R. Z. Khaliullin, P. Klunzinger, A. M. Lee, M. S. Lee, W. Liang,
 I. Lotan, N. Nair, B. Peters, E. I. Proynov, P. A. Pieniazek, 
 Y. M. Rhee, J. Ritchie, E. Rosta, C. D. Sherrill, 
 A. C. Simmonett, J. E. Subotnik, H. L. Woodcock III,
 W. Zhang, A. T. Bell, A. K. Chakraborty, D. M. Chipman,
 F. J. Keil, A. Warshel, W. J. Hehre, H. F. Schaefer III,
 J. Kong, A. I. Krylov, P. M. W. Gill, M. Head-Gordon,
 Q-Chem, Version 3.1, Q-Chem, Inc., Pittsburgh, PA (2007).

 Additional authors for Version 3.1: 
 Z. Gan, Y. Zhao, N. E. Schultz, D. Truhlar, E. Epifanovsky and M. Oana.

 Additional authors for Version 3.2: 
 R. Baer, B. R. Brooks, D. Casanova, J.-D. Chai, C.-L. Cheng, 
 C. Cramer, D. Crittenden, A. Ghysels, G. Hawkins, E. G. Hohenstein, 
 C. Kelley, W. Kurlancheek, D. Liotard, E. Livshits, P. Manohar, 
 A. Marenich, D. Neuhauser, R. Olson, M. A. Rohrdanz, K. S. Thanthiriwatte, 
 A. J. W. Thom, V. Vanovschi, C. F. Williams, Q. Wu and Z.-Q. You. 


 Intel X86 Linux Version

 Q-chem begins on Wed May 29 17:03:09 2013  

 Parallel job on  1  processors
Processing $rem in /usr/local/qchem/config/preferences.

theFileMan(): MAXOPENFILES=974 MAX_SUB_FILE_NUM=16
Maximum size of a physical file is 2.0 GB, maximum size of a tmp-file is 32.0 GB


--------------------------------------------------------------
User input:
--------------------------------------------------------------

$molecule
1,2
C          0.00000        0.00000        0.00524
C          0.00000        0.00000        1.32569
H          0.92424        0.00000       -0.56390
H         -0.92424        0.00000       -0.56390
H          0.92424        0.00000        1.89483
H         -0.92424        0.00000        1.89483
$end

$comment
positive
$end

$xc_functional
C PBE   1.00
X wPBE  1.00
$end

$rem
SYMMETRY_DECOMPOSITION	0
LRC_DFT                 true
exchange 		general
BASIS                   g3large
omega			410
mem_static              760
max_scf_cycles          200
scf_final_print         1
sym_ignore              true
$end

--------------------------------------------------------------
 Writing REM_CC_EA            6
 ----------------------------------------------------
       Standard Nuclear Orientation (Angstroms)
    I     Atom         X            Y            Z
 ----------------------------------------------------
    1      C       0.000000     0.000000     0.005240
    2      C       0.000000     0.000000     1.325690
    3      H       0.924240     0.000000    -0.563900
    4      H      -0.924240     0.000000    -0.563900
    5      H       0.924240     0.000000     1.894830
    6      H      -0.924240     0.000000     1.894830
 ----------------------------------------------------
 Nuclear Repulsion Energy =    33.5126428380 hartrees
 There are        8 alpha and        7 beta electrons
 Requested basis set is G3large
 There are 44 shells and 124 basis functions

Total QAlloc Memory Limit   2000 MB
Mega-Array Size       743 MB
MEM_STATIC part       760 MB

                       Distance Matrix (Angstroms)
             C (  1)   C (  2)   H (  3)   H (  4)   H (  5)
   C (  2)  1.320450
   H (  3)  1.085422  2.103514
   H (  4)  1.085422  2.103514  1.848480
   H (  5)  2.103514  1.085422  2.458730  3.076074
   H (  6)  2.103514  1.085422  3.076074  2.458730  1.848480
 
 A cutoff of  1.0D-08 yielded    978 shell pairs
 There are   7834 function pairs (  9461 Cartesian)
Evaluating contribution to one-electron hamiltonian from nuclear
 Smallest overlap matrix eigenvalue = 1.15E-04
 Multipole matrices computed through 2nd order

  Scale SEOQF with 1.000000e-01/1.000000e-01/1.000000e-01

 Standard Electronic Orientation quadrupole field applied
 Nucleus-field energy     =    -0.0000000018 hartrees
 Guess from superposition of atomic densities
 Warning:  Energy on first SCF cycle will be non-variational
 Long-range K will be added via erf
 Coulomb attenuation parameter = 0.41 bohr**(-1)
 An unrestricted Kohn-Sham SCF calculation will be
 performed using Pulay DIIS extrapolation
 Exchange:  wPBE + LR-HF      Correlation:  PBE
 Using SG-1 standard quadrature grid
 SCF converges when DIIS error is below 1.0E-05
 Requested basis set is G3large
 There are 44 shells and 124 basis functions
 A cutoff of  1.0D-08 yielded    978 shell pairs
 There are   7834 function pairs (  9461 Cartesian)
 Warning!  Inaccurate integrated density:
   Number of electrons =    15
   Numerical integral  =    15.999959341146
   Relative error      =     6.6663956076 %
 ---------------------------------------
  Cycle       Energy         DIIS Error
 ---------------------------------------
    1     -78.8999678627      3.75E-02
    2     -78.1103037387      2.94E-03
    3     -78.1514168217      1.22E-03
    4     -78.1581337032      4.68E-04
    5     -78.1605906181      1.88E-04
    6     -78.1615726619      6.03E-05
    7     -78.1617238256      1.73E-05
    8     -78.1617456013      6.83E-06 Convergence criterion met
 ---------------------------------------
 One-Electron    Energy =  -165.4263997979
 Total Coulomb   Energy =    65.7337910423
 Alpha Exchange  Energy =    -1.6172332310
 Beta  Exchange  Energy =    -1.4321423394
 DFT   Exchange  Energy =    -8.4757449609
 DFT Correlation Energy =    -0.4566591505
 Nuclear Repu.   Energy =    33.5126428362
 Nuclear Attr.   Energy =  -243.4969342677
 Kinetic         Energy =    78.0705344698
 <S^2> = 0.7526
 SCF time:  CPU 30.69 s  wall 32.62 s
 Final Alpha MO Eigenvalues
            1           2           3           4           5           6
    1 -10.4617383 -10.4609018  -1.2714490  -1.0311804  -0.9193076  -0.8714613
            7           8           9          10          11          12
    1  -0.7731380  -0.7662932  -0.2311084  -0.1150565  -0.0906778  -0.0868947
           13
    1  -0.0620622
 Final Beta MO Eigenvalues
            1           2           3           4           5           6
    1 -10.4542693 -10.4536104  -1.2268079  -1.0146264  -0.9110635  -0.8625719
            7           8           9          10          11          12
    1  -0.7693973  -0.3793055  -0.1537763  -0.1130990  -0.0896379  -0.0850036
 Analysis of SCF Wavefunction
 
 --------------------------------------------------------------
                    Orbital Energies (a.u.)
 --------------------------------------------------------------
 
 Alpha MOs
 -- Occupied --
-10.462 -10.461  -1.271  -1.031  -0.919  -0.871  -0.773  -0.766
 -- Virtual --
 -0.231  -0.115  -0.091  -0.087  -0.062  -0.043  -0.036  -0.022
 -0.003   0.019   0.022   0.028   0.032   0.042   0.067   0.076
  0.193   0.225   0.284   0.295   0.300   0.323   0.348   0.377
  0.413   0.425   0.473   0.486   0.491   0.493   0.543   0.559
  0.614   0.656   0.772   0.790   0.853   0.859   0.872   0.987
  0.998   1.025   1.036   1.214   1.219   1.253   1.269   1.349
  1.350   1.360   1.439   1.593   2.206   2.338   2.351   2.386
  2.431   2.467   2.495   2.574   2.606   2.657   2.680   2.749
  2.816   2.873   2.895   2.901   2.952   2.969   3.030   3.043
  3.080   3.139   3.203   3.373   3.409   3.432   3.480   3.514
  3.540   3.834   3.878   3.882   3.968   4.004   4.082   4.179
  4.220   4.262   4.425   4.558   4.908   4.911   5.241   5.305
  5.469   5.817  23.551  24.403  26.868  27.054  27.766  27.871
 27.896  28.032  40.492  40.615  40.628  40.776  40.783  40.822
 40.903  40.917  40.971  41.019
 
 Beta MOs
 -- Occupied --
-10.454 -10.454  -1.227  -1.015  -0.911  -0.863  -0.769
 -- Virtual --
 -0.379  -0.154  -0.113  -0.090  -0.085  -0.053  -0.043  -0.035
 -0.010   0.007   0.021   0.022   0.032   0.033   0.045   0.068
  0.081   0.204   0.227   0.287   0.297   0.331   0.347   0.379
  0.392   0.418   0.453   0.484   0.493   0.507   0.525   0.547
  0.571   0.616   0.673   0.773   0.792   0.866   0.870   0.887
  0.999   1.005   1.042   1.044   1.227   1.239   1.257   1.272
  1.353   1.356   1.371   1.454   1.597   2.227   2.340   2.366
  2.429   2.479   2.495   2.547   2.595   2.623   2.674   2.723
  2.764   2.868   2.908   2.919   2.935   2.965   2.978   3.046
  3.051   3.111   3.184   3.211   3.381   3.449   3.472   3.487
  3.546   3.547   3.833   3.882   3.885   3.977   4.011   4.091
  4.188   4.231   4.271   4.471   4.561   4.918   4.929   5.246
  5.307   5.471   5.822  23.560  24.413  26.890  27.077  27.771
 27.876  27.902  28.036  40.504  40.628  40.646  40.791  40.799
 40.837  40.918  40.919  40.977  41.022
 --------------------------------------------------------------
 
          Ground-State Mulliken Net Atomic Charges

     Atom                 Charge (a.u.)    Spin (a.u.)
  --------------------------------------------------------
      1 C                     0.147623       0.531147
      2 C                     0.147625       0.531136
      3 H                     0.176189      -0.015568
      4 H                     0.176188      -0.015576
      5 H                     0.176187      -0.015565
      6 H                     0.176189      -0.015574
  --------------------------------------------------------
  Sum of atomic charges =     1.000000
  Sum of spin   charges =     1.000000

 -----------------------------------------------------------------
                    Cartesian Multipole Moments
 -----------------------------------------------------------------
    Charge (ESU x 10^10)
                 4.8032
    Dipole Moment (Debye)
         X       0.0000      Y       0.0000      Z       3.1964
       Tot       3.1964
    Quadrupole Moments (Debye-Ang)
        XX      -8.3622     XY      -0.0004     YY     -11.1101
        XZ       0.0000     YZ       0.0000     ZZ      -3.6230
    Octapole Moments (Debye-Ang^2)
       XXX       0.0000    XXY       0.0000    XYY       0.0000
       YYY       0.0000    XXZ      -5.5648    XYZ      -0.0003
       YYZ      -7.3934    XZZ       0.0000    YZZ       0.0000
       ZZZ     -10.0640
    Hexadecapole Moments (Debye-Ang^3)
      XXXX     -17.6598   XXXY      -0.0004   XXYY      -5.5728
      XYYY      -0.0004   YYYY      -9.5145   XXXZ       0.0001
      XXYZ       0.0000   XYYZ       0.0000   YYYZ       0.0000
      XXZZ      -9.6264   XYZZ       0.0001   YYZZ     -15.7238
      XZZZ       0.0001   YZZZ       0.0000   ZZZZ     -61.7708
 -----------------------------------------------------------------
 Total job time:  32.74s(wall), 30.80s(cpu) 
 Wed May 29 17:03:41 2013

        *************************************************************
        *                                                           *
        *  Thank you very much for using Q-Chem.  Have a nice day.  *
        *                                                           *
        *************************************************************


0 sent ACK to 0 
now end server 0 ... 
