Process 0 of 1 is on cl234.stfx.acenet.ca - thread support 1
initial socket setup ...start
initial socket setup ...done 
now start server 0 ... 

cmd = /usr/bin/ssh clhead /usr/local/qchem/bin/get_hostid 230431994 > /globalscratch/itamblyn/bnl/g297_b3lyp_neut_g03Large/g2g71065/omega900/qchem13528/lic.dat
                  Welcome to Q-Chem
     A Quantum Leap Into The Future Of Chemistry

 Y. Shao, L. Fusti-Molnar, Y. Jung, J. Kussmann, C. Ochsenfeld,
 S. T. Brown, A. T. B. Gilbert, L. V. Slipchenko,S. V. Levchenko,
 D. P. O'Neill, R. A. DiStasio Jr., R. C. Lochan, T. Wang,
 G. J. O. Beran, N. A. Besley, J. M. Herbert, C. Y. Lin,
 T. Van Voorhis, S. H. Chien, A. Sodt, R. P. Steele, 
 V. A. Rassolov, P. E. Maslen, P. P. Korambath, R. D. Adamson,
 B. Austin, J. Baker, E. F. C. Byrd, H. Dachsel, R. J. Doerksen,
 A. Dreuw, B. D. Dunietz, A. D. Dutoi, T. R. Furlani,
 S. R. Gwaltney, A. Heyden, S. Hirata, C.-P. Hsu, G. Kedziora,
 R. Z. Khaliullin, P. Klunzinger, A. M. Lee, M. S. Lee, W. Liang,
 I. Lotan, N. Nair, B. Peters, E. I. Proynov, P. A. Pieniazek, 
 Y. M. Rhee, J. Ritchie, E. Rosta, C. D. Sherrill, 
 A. C. Simmonett, J. E. Subotnik, H. L. Woodcock III,
 W. Zhang, A. T. Bell, A. K. Chakraborty, D. M. Chipman,
 F. J. Keil, A. Warshel, W. J. Hehre, H. F. Schaefer III,
 J. Kong, A. I. Krylov, P. M. W. Gill, M. Head-Gordon,
 Q-Chem, Version 3.1, Q-Chem, Inc., Pittsburgh, PA (2007).

 Additional authors for Version 3.1: 
 Z. Gan, Y. Zhao, N. E. Schultz, D. Truhlar, E. Epifanovsky and M. Oana.

 Additional authors for Version 3.2: 
 R. Baer, B. R. Brooks, D. Casanova, J.-D. Chai, C.-L. Cheng, 
 C. Cramer, D. Crittenden, A. Ghysels, G. Hawkins, E. G. Hohenstein, 
 C. Kelley, W. Kurlancheek, D. Liotard, E. Livshits, P. Manohar, 
 A. Marenich, D. Neuhauser, R. Olson, M. A. Rohrdanz, K. S. Thanthiriwatte, 
 A. J. W. Thom, V. Vanovschi, C. F. Williams, Q. Wu and Z.-Q. You. 


 Intel X86 Linux Version

 Q-chem begins on Mon Apr 11 17:52:57 2011  

 Parallel job on  1  processors
Processing $rem in /usr/local/qchem/config/preferences.

theFileMan(): MAXOPENFILES=974 MAX_SUB_FILE_NUM=16
Maximum size of a physical file is 2.0 GB, maximum size of a tmp-file is 32.0 GB


--------------------------------------------------------------
User input:
--------------------------------------------------------------

$molecule
-1,2
N
N,1,r1
X,2,1.,1,90.
O,2,r2,3,90.,1,180.,0

 r1=1.13435115
 r2=1.1923951

$end

$comment
negative
$end

$xc_functional
   X HF 1.0
   X BNL 1.0
   C LYP 1.0
$end

$rem
SYMMETRY_DECOMPOSITION	0
exchange 		general
BASIS                   g3large
omega			900
separate_jk		true
mem_static              760
max_scf_cycles          200
scf_final_print         1
sym_ignore              true
$end

--------------------------------------------------------------
 Writing REM_CC_EA            3
 ----------------------------------------------------
       Standard Nuclear Orientation (Angstroms)
    I     Atom         X            Y            Z
 ----------------------------------------------------
    1      N       0.000000     0.000000     0.000000
    2      N       0.000000     0.000000     1.134351
    3      O       0.000000     0.000000     2.326746
 ----------------------------------------------------
 Nuclear Repulsion Energy =    60.4472482221 hartrees
 There are       12 alpha and       11 beta electrons
 Requested basis set is G3large
 There are 30 shells and 126 basis functions

Total QAlloc Memory Limit   2000 MB
Mega-Array Size       743 MB
MEM_STATIC part       760 MB

                       Distance Matrix (Angstroms)
             N (  1)   N (  2)
   N (  2)  1.134351
   O (  3)  2.326746  1.192395
 
 A cutoff of  1.0D-08 yielded    432 shell pairs
 There are   7787 function pairs ( 10235 Cartesian)
Evaluating contribution to one-electron hamiltonian from nuclear
 Smallest overlap matrix eigenvalue = 5.07E-05

 Q-Chem warning in module mkSTV.C, line 194:

 Overlap eigenvalue is smaller than square root of threshold

 Multipole matrices computed through 2nd order

  Scale SEOQF with 1.000000e-01/1.000000e-01/1.000000e-01

 Standard Electronic Orientation quadrupole field applied
 Nucleus-field energy     =    -0.0000000056 hartrees
 Guess from superposition of atomic densities
 Warning:  Energy on first SCF cycle will be non-variational
 An unrestricted hybrid HF-DFT SCF calculation will be
 performed using Pulay DIIS extrapolation
 Exchange:     1.0000 Hartree-Fock + 1.0000 BNL
 Correlation:  1.0000 LYP
 Using SG-1 standard quadrature grid
 SCF converges when DIIS error is below 1.0E-05
 Warning!  Inaccurate integrated density:
   Number of electrons =    23
   Numerical integral  =    22.000002379935
   Relative error      =    -4.3478157394 %
 ---------------------------------------
  Cycle       Energy         DIIS Error
 ---------------------------------------
    1    -183.8804656614      4.78E-02
    2    -183.1114040282      6.40E-03
    3    -183.1510246894      5.08E-03
    4    -183.1846994571      6.26E-04
    5    -183.1860524944      3.42E-04
    6    -183.1863934543      1.46E-04
    7    -183.1865055129      5.71E-05
    8    -183.1865375452      2.23E-05
    9    -183.1865534715      1.13E-05
   10    -183.1865598888      5.97E-06 Convergence criterion met
 ---------------------------------------
 One-Electron    Energy =  -377.4040649156
 Total Coulomb   Energy =   154.9080033259
 Alpha Exchange  Energy =    -4.4477394810
 Beta  Exchange  Energy =    -4.0740930140
 DFT   Exchange  Energy =   -11.7996299796
 DFT Correlation Energy =    -0.8162840410
 Nuclear Repu.   Energy =    60.4472482165
 Nuclear Attr.   Energy =  -560.2319577325
 Kinetic         Energy =   182.8278928168
 <S^2> = 0.7571
 SCF time:  CPU 30.67 s  wall 40.11 s
 Final Alpha MO Eigenvalues
            1           2           3           4           5           6
    1 -18.8211914 -14.1908952 -14.0852523  -1.2198259  -1.0293776  -0.5273326
            7           8           9          10          11          12
    1  -0.5035644  -0.4579890  -0.3853036  -0.2638230  -0.2064619   0.0202054
           13          14          15          16          17
    1   0.2508716   0.2989627   0.3232345   0.3488733   0.3696039
 Final Beta MO Eigenvalues
            1           2           3           4           5           6
    1 -18.8181088 -14.1739625 -14.0772659  -1.1982103  -1.0156574  -0.5047554
            7           8           9          10          11          12
    1  -0.4463795  -0.4201952  -0.3563784  -0.2027210  -0.1835521   0.2496077
           13          14          15          16
    1   0.2953489   0.3238822   0.3300830   0.3691100
 Analysis of SCF Wavefunction
 
 --------------------------------------------------------------
                    Orbital Energies (a.u.)
 --------------------------------------------------------------
 
 Alpha MOs
 -- Occupied --
-18.821 -14.191 -14.085  -1.220  -1.029  -0.527  -0.504  -0.458
 -0.385  -0.264  -0.206   0.020
 -- Virtual --
  0.251   0.299   0.323   0.349   0.370   0.390   0.401   0.433
  0.478   0.501   0.515   0.521   0.594   0.713   0.951   1.096
  1.098   1.182   1.194   1.226   1.227   1.246   1.303   1.405
  1.475   1.479   1.528   1.549   1.564   1.599   1.600   1.619
  2.071   2.071   2.089   2.159   2.163   2.425   2.830   2.830
  3.025   3.199   3.771   3.771   3.805   3.805   3.931   4.073
  4.075   4.160   4.166   4.267   4.267   4.424   4.428   4.709
  4.869   4.869   4.954   4.957   5.108   5.150   5.159   5.159
  5.312   5.313   5.359   5.361   5.579   5.579   5.614   5.619
  5.900   6.138   6.138   6.269   6.439   6.441   7.301   7.301
  7.538   7.740   7.743   7.925   7.931   8.237   9.180  36.194
 36.789  37.892  37.896  38.269  38.272  39.011  39.877  40.828
 40.942  40.963  41.059  41.059  41.077  41.189  41.320  41.321
 42.077  44.146  44.225  44.351  44.352  44.575  46.352  46.353
 47.271  51.136
 
 Beta MOs
 -- Occupied --
-18.818 -14.174 -14.077  -1.198  -1.016  -0.505  -0.446  -0.420
 -0.356  -0.203  -0.184
 -- Virtual --
  0.250   0.295   0.324   0.330   0.369   0.373   0.400   0.440
  0.456   0.477   0.518   0.522   0.530   0.598   0.736   0.954
  1.103   1.121   1.198   1.216   1.239   1.240   1.254   1.308
  1.412   1.481   1.490   1.536   1.567   1.587   1.619   1.619
  1.628   2.084   2.085   2.094   2.166   2.183   2.434   2.833
  2.849   3.032   3.211   3.782   3.783   3.824   3.824   3.942
  4.091   4.123   4.167   4.192   4.289   4.289   4.430   4.449
  4.724   4.883   4.884   4.962   4.982   5.119   5.160   5.203
  5.205   5.346   5.347   5.363   5.381   5.586   5.586   5.618
  5.634   5.906   6.147   6.147   6.276   6.448   6.472   7.312
  7.312   7.549   7.742   7.753   7.931   7.949   8.245   9.187
 36.209  36.804  37.900  37.916  38.277  38.293  39.017  39.888
 40.861  40.959  40.996  41.070  41.087  41.094  41.203  41.328
 41.343  42.087  44.154  44.234  44.353  44.359  44.579  46.354
 46.360  47.273  51.139
 --------------------------------------------------------------
 
          Ground-State Mulliken Net Atomic Charges

     Atom                 Charge (a.u.)    Spin (a.u.)
  --------------------------------------------------------
      1 N                    -0.830256       0.597530
      2 N                     0.448387       0.289845
      3 O                    -0.618132       0.112624
  --------------------------------------------------------
  Sum of atomic charges =    -1.000000
  Sum of spin   charges =     1.000000

 -----------------------------------------------------------------
                    Cartesian Multipole Moments
 -----------------------------------------------------------------
    Charge (ESU x 10^10)
                -4.8032
    Dipole Moment (Debye)
         X       0.0106      Y       0.0129      Z      -4.4645
       Tot       4.4645
    Quadrupole Moments (Debye-Ang)
        XX     -18.8010     XY      -0.9464     YY     -19.2017
        XZ       0.0050     YZ       0.0064     ZZ     -34.3620
    Octapole Moments (Debye-Ang^2)
       XXX       0.0478    XXY       0.0196    XYY       0.0159
       YYY       0.0589    XXZ     -19.6273    XYZ      -0.1033
       YYZ     -19.6710    XZZ       0.0401    YZZ       0.0500
       ZZZ    -100.6071
    Hexadecapole Moments (Debye-Ang^3)
      XXXX     -21.0835   XXXY      -1.6805   XXYY      -7.2651
      XYYY      -1.6806   YYYY     -22.5071   XXXZ       0.0270
      XXYZ       0.0113   XYYZ       0.0090   YYYZ       0.0339
      XXZZ     -49.3232   XYZZ      -1.7530   YYZZ     -50.0654
      XZZZ       0.1001   YZZZ       0.1253   ZZZZ    -365.0843
 -----------------------------------------------------------------
 Total job time:  41.34s(wall), 30.80s(cpu) 
 Mon Apr 11 17:53:38 2011

        *************************************************************
        *                                                           *
        *  Thank you very much for using Q-Chem.  Have a nice day.  *
        *                                                           *
        *************************************************************


0 sent ACK to 0 
now end server 0 ... 
 
**********************************************************************
Job 2 of 3 
**********************************************************************
 
Process 0 of 1 is on cl234.stfx.acenet.ca - thread support 1
initial socket setup ...start
initial socket setup ...done 
now start server 0 ... 

cmd = /usr/bin/ssh clhead /usr/local/qchem/bin/get_hostid 664570747 > /globalscratch/itamblyn/bnl/g297_b3lyp_neut_g03Large/g2g71065/omega900/qchem13528/lic.dat
                  Welcome to Q-Chem
     A Quantum Leap Into The Future Of Chemistry

 Y. Shao, L. Fusti-Molnar, Y. Jung, J. Kussmann, C. Ochsenfeld,
 S. T. Brown, A. T. B. Gilbert, L. V. Slipchenko,S. V. Levchenko,
 D. P. O'Neill, R. A. DiStasio Jr., R. C. Lochan, T. Wang,
 G. J. O. Beran, N. A. Besley, J. M. Herbert, C. Y. Lin,
 T. Van Voorhis, S. H. Chien, A. Sodt, R. P. Steele, 
 V. A. Rassolov, P. E. Maslen, P. P. Korambath, R. D. Adamson,
 B. Austin, J. Baker, E. F. C. Byrd, H. Dachsel, R. J. Doerksen,
 A. Dreuw, B. D. Dunietz, A. D. Dutoi, T. R. Furlani,
 S. R. Gwaltney, A. Heyden, S. Hirata, C.-P. Hsu, G. Kedziora,
 R. Z. Khaliullin, P. Klunzinger, A. M. Lee, M. S. Lee, W. Liang,
 I. Lotan, N. Nair, B. Peters, E. I. Proynov, P. A. Pieniazek, 
 Y. M. Rhee, J. Ritchie, E. Rosta, C. D. Sherrill, 
 A. C. Simmonett, J. E. Subotnik, H. L. Woodcock III,
 W. Zhang, A. T. Bell, A. K. Chakraborty, D. M. Chipman,
 F. J. Keil, A. Warshel, W. J. Hehre, H. F. Schaefer III,
 J. Kong, A. I. Krylov, P. M. W. Gill, M. Head-Gordon,
 Q-Chem, Version 3.1, Q-Chem, Inc., Pittsburgh, PA (2007).

 Additional authors for Version 3.1: 
 Z. Gan, Y. Zhao, N. E. Schultz, D. Truhlar, E. Epifanovsky and M. Oana.

 Additional authors for Version 3.2: 
 R. Baer, B. R. Brooks, D. Casanova, J.-D. Chai, C.-L. Cheng, 
 C. Cramer, D. Crittenden, A. Ghysels, G. Hawkins, E. G. Hohenstein, 
 C. Kelley, W. Kurlancheek, D. Liotard, E. Livshits, P. Manohar, 
 A. Marenich, D. Neuhauser, R. Olson, M. A. Rohrdanz, K. S. Thanthiriwatte, 
 A. J. W. Thom, V. Vanovschi, C. F. Williams, Q. Wu and Z.-Q. You. 


 Intel X86 Linux Version

 Q-chem begins on Mon Apr 11 17:53:46 2011  

 Parallel job on  1  processors
Processing $rem in /usr/local/qchem/config/preferences.

theFileMan(): MAXOPENFILES=974 MAX_SUB_FILE_NUM=16
Maximum size of a physical file is 2.0 GB, maximum size of a tmp-file is 32.0 GB


--------------------------------------------------------------
User input:
--------------------------------------------------------------

$molecule
0,1
N
N,1,r1
X,2,1.,1,90.
O,2,r2,3,90.,1,180.,0

 r1=1.13435115
 r2=1.1923951

$end

$comment
neutral
$end

$xc_functional
   X HF 1.0
   X BNL 1.0
   C LYP 1.0
$end

$rem
SYMMETRY_DECOMPOSITION	0
exchange 		general
BASIS                   g3large
omega			900
separate_jk		true
mem_static              760
max_scf_cycles          200
scf_final_print         1
sym_ignore              true
$end

--------------------------------------------------------------
 Writing REM_CC_EA            3
 ----------------------------------------------------
       Standard Nuclear Orientation (Angstroms)
    I     Atom         X            Y            Z
 ----------------------------------------------------
    1      N       0.000000     0.000000     0.000000
    2      N       0.000000     0.000000     1.134351
    3      O       0.000000     0.000000     2.326746
 ----------------------------------------------------
 Nuclear Repulsion Energy =    60.4472482221 hartrees
 There are       11 alpha and       11 beta electrons
 Requested basis set is G3large
 There are 30 shells and 126 basis functions

Total QAlloc Memory Limit   2000 MB
Mega-Array Size       743 MB
MEM_STATIC part       760 MB

                       Distance Matrix (Angstroms)
             N (  1)   N (  2)
   N (  2)  1.134351
   O (  3)  2.326746  1.192395
 
 A cutoff of  1.0D-08 yielded    432 shell pairs
 There are   7787 function pairs ( 10235 Cartesian)
Evaluating contribution to one-electron hamiltonian from nuclear
 Smallest overlap matrix eigenvalue = 5.07E-05

 Q-Chem warning in module mkSTV.C, line 194:

 Overlap eigenvalue is smaller than square root of threshold

 Multipole matrices computed through 2nd order

  Scale SEOQF with 1.000000e-01/1.000000e-01/1.000000e-01

 Standard Electronic Orientation quadrupole field applied
 Nucleus-field energy     =    -0.0000000056 hartrees
 Guess from superposition of atomic densities
 Warning:  Energy on first SCF cycle will be non-variational
 A restricted hybrid HF-DFT SCF calculation will be
 performed using Pulay DIIS extrapolation
 Exchange:     1.0000 Hartree-Fock + 1.0000 BNL
 Correlation:  1.0000 LYP
 Using SG-1 standard quadrature grid
 SCF converges when DIIS error is below 1.0E-05
 ---------------------------------------
  Cycle       Energy         DIIS Error
 ---------------------------------------
    1    -183.8804656614      4.78E-02
    2    -183.1380698754      8.19E-03
    3    -183.1640019936      7.74E-03
    4    -183.2374994902      7.29E-04
    5    -183.2385133113      4.38E-04
    6    -183.2388240793      2.27E-04
    7    -183.2389414987      5.58E-05
    8    -183.2389576851      1.73E-05
    9    -183.2389599574      6.72E-06 Convergence criterion met
 ---------------------------------------
 One-Electron    Energy =  -370.1640926627
 Total Coulomb   Energy =   147.2009234769
 Alpha Exchange  Energy =    -4.1204145240
 Beta  Exchange  Energy =    -4.1204145240
 DFT   Exchange  Energy =   -11.6950436061
 DFT Correlation Energy =    -0.7871663340
 Nuclear Repu.   Energy =    60.4472482165
 Nuclear Attr.   Energy =  -552.2933706270
 Kinetic         Energy =   182.1292779644
 SCF time:  CPU 23.11 s  wall 39.52 s
 Final Alpha MO Eigenvalues
            1           2           3           4           5           6
    1 -19.1432705 -14.5974704 -14.4517334  -1.5470114  -1.3710084  -0.8207008
            7           8           9          10          11          12
    1  -0.7850854  -0.7850579  -0.7017305  -0.5162492  -0.5162241   0.0679905
           13          14          15          16
    1   0.0792030   0.0792138   0.1274821   0.1512220
 Analysis of SCF Wavefunction
 
 --------------------------------------------------------------
                    Orbital Energies (a.u.)
 --------------------------------------------------------------
 
 Alpha MOs
 -- Occupied --
-19.143 -14.597 -14.452  -1.547  -1.371  -0.821  -0.785  -0.785
 -0.702  -0.516  -0.516
 -- Virtual --
  0.068   0.079   0.079   0.127   0.151   0.151   0.201   0.211
  0.211   0.284   0.301   0.321   0.321   0.384   0.457   0.694
  0.818   0.818   0.918   0.918   0.918   0.918   0.946   1.019
  1.149   1.217   1.217   1.234   1.260   1.260   1.304   1.304
  1.343   1.787   1.787   1.815   1.865   1.865   2.120   2.536
  2.536   2.742   2.884   3.440   3.440   3.474   3.474   3.600
  3.733   3.733   3.829   3.829   3.939   3.939   4.096   4.096
  4.373   4.544   4.544   4.627   4.627   4.779   4.817   4.817
  4.824   4.975   4.975   5.038   5.038   5.282   5.282   5.304
  5.304   5.582   5.827   5.827   5.943   6.101   6.101   6.996
  6.997   7.209   7.437   7.437   7.600   7.600   7.916   8.846
 35.813  36.406  37.507  37.507  37.887  37.887  38.645  39.485
 40.431  40.566  40.577  40.669  40.669  40.712  40.802  40.948
 40.948  41.699  43.827  43.906  44.031  44.031  44.252  46.032
 46.032  46.948  50.814
 --------------------------------------------------------------
 
          Ground-State Mulliken Net Atomic Charges

     Atom                 Charge (a.u.)
  ----------------------------------------
      1 N                    -0.111550
      2 N                     0.389017
      3 O                    -0.277467
  ----------------------------------------
  Sum of atomic charges =     0.000000

 -----------------------------------------------------------------
                    Cartesian Multipole Moments
 -----------------------------------------------------------------
    Charge (ESU x 10^10)
                 0.0000
    Dipole Moment (Debye)
         X       0.0000      Y       0.0000      Z      -0.6101
       Tot       0.6101
    Quadrupole Moments (Debye-Ang)
        XX     -15.3624     XY       0.0003     YY     -15.3623
        XZ      -0.0001     YZ       0.0000     ZZ     -20.9445
    Octapole Moments (Debye-Ang^2)
       XXX       0.0000    XXY       0.0000    XYY       0.0000
       YYY       0.0000    XXZ     -17.7469    XYZ      -0.0012
       YYZ     -17.7473    XZZ      -0.0001    YZZ      -0.0001
       ZZZ     -69.2970
    Hexadecapole Moments (Debye-Ang^3)
      XXXX     -12.3538   XXXY       0.0004   XXYY      -4.1179
      XYYY       0.0004   YYYY     -12.3535   XXXZ       0.0000
      XXYZ       0.0000   XYYZ       0.0000   YYYZ       0.0000
      XXZZ     -40.2477   XYZZ      -0.0023   YYZZ     -40.2484
      XZZZ      -0.0004   YZZZ      -0.0002   ZZZZ    -264.1390
 -----------------------------------------------------------------
 Total job time:  43.17s(wall), 23.24s(cpu) 
 Mon Apr 11 17:54:29 2011

        *************************************************************
        *                                                           *
        *  Thank you very much for using Q-Chem.  Have a nice day.  *
        *                                                           *
        *************************************************************


0 sent ACK to 0 
now end server 0 ... 
 
**********************************************************************
Job 3 of 3 
**********************************************************************
 
Process 0 of 1 is on cl234.stfx.acenet.ca - thread support 1
initial socket setup ...start
initial socket setup ...done 
now start server 0 ... 

cmd = /usr/bin/ssh clhead /usr/local/qchem/bin/get_hostid 324517369 > /globalscratch/itamblyn/bnl/g297_b3lyp_neut_g03Large/g2g71065/omega900/qchem13528/lic.dat
                  Welcome to Q-Chem
     A Quantum Leap Into The Future Of Chemistry

 Y. Shao, L. Fusti-Molnar, Y. Jung, J. Kussmann, C. Ochsenfeld,
 S. T. Brown, A. T. B. Gilbert, L. V. Slipchenko,S. V. Levchenko,
 D. P. O'Neill, R. A. DiStasio Jr., R. C. Lochan, T. Wang,
 G. J. O. Beran, N. A. Besley, J. M. Herbert, C. Y. Lin,
 T. Van Voorhis, S. H. Chien, A. Sodt, R. P. Steele, 
 V. A. Rassolov, P. E. Maslen, P. P. Korambath, R. D. Adamson,
 B. Austin, J. Baker, E. F. C. Byrd, H. Dachsel, R. J. Doerksen,
 A. Dreuw, B. D. Dunietz, A. D. Dutoi, T. R. Furlani,
 S. R. Gwaltney, A. Heyden, S. Hirata, C.-P. Hsu, G. Kedziora,
 R. Z. Khaliullin, P. Klunzinger, A. M. Lee, M. S. Lee, W. Liang,
 I. Lotan, N. Nair, B. Peters, E. I. Proynov, P. A. Pieniazek, 
 Y. M. Rhee, J. Ritchie, E. Rosta, C. D. Sherrill, 
 A. C. Simmonett, J. E. Subotnik, H. L. Woodcock III,
 W. Zhang, A. T. Bell, A. K. Chakraborty, D. M. Chipman,
 F. J. Keil, A. Warshel, W. J. Hehre, H. F. Schaefer III,
 J. Kong, A. I. Krylov, P. M. W. Gill, M. Head-Gordon,
 Q-Chem, Version 3.1, Q-Chem, Inc., Pittsburgh, PA (2007).

 Additional authors for Version 3.1: 
 Z. Gan, Y. Zhao, N. E. Schultz, D. Truhlar, E. Epifanovsky and M. Oana.

 Additional authors for Version 3.2: 
 R. Baer, B. R. Brooks, D. Casanova, J.-D. Chai, C.-L. Cheng, 
 C. Cramer, D. Crittenden, A. Ghysels, G. Hawkins, E. G. Hohenstein, 
 C. Kelley, W. Kurlancheek, D. Liotard, E. Livshits, P. Manohar, 
 A. Marenich, D. Neuhauser, R. Olson, M. A. Rohrdanz, K. S. Thanthiriwatte, 
 A. J. W. Thom, V. Vanovschi, C. F. Williams, Q. Wu and Z.-Q. You. 


 Intel X86 Linux Version

 Q-chem begins on Mon Apr 11 17:54:32 2011  

 Parallel job on  1  processors
Processing $rem in /usr/local/qchem/config/preferences.

theFileMan(): MAXOPENFILES=974 MAX_SUB_FILE_NUM=16
Maximum size of a physical file is 2.0 GB, maximum size of a tmp-file is 32.0 GB


--------------------------------------------------------------
User input:
--------------------------------------------------------------

$molecule
1,2
N
N,1,r1
X,2,1.,1,90.
O,2,r2,3,90.,1,180.,0

 r1=1.13435115
 r2=1.1923951

$end

$comment
positive
$end

$xc_functional
   X HF 1.0
   X BNL 1.0
   C LYP 1.0
$end

$rem
SYMMETRY_DECOMPOSITION	0
exchange 		general
BASIS                   g3large
omega			900
separate_jk		true
mem_static              760
max_scf_cycles          200
scf_final_print         1
sym_ignore              true
$end

--------------------------------------------------------------
 Writing REM_CC_EA            3
 ----------------------------------------------------
       Standard Nuclear Orientation (Angstroms)
    I     Atom         X            Y            Z
 ----------------------------------------------------
    1      N       0.000000     0.000000     0.000000
    2      N       0.000000     0.000000     1.134351
    3      O       0.000000     0.000000     2.326746
 ----------------------------------------------------
 Nuclear Repulsion Energy =    60.4472482221 hartrees
 There are       11 alpha and       10 beta electrons
 Requested basis set is G3large
 There are 30 shells and 126 basis functions

Total QAlloc Memory Limit   2000 MB
Mega-Array Size       743 MB
MEM_STATIC part       760 MB

                       Distance Matrix (Angstroms)
             N (  1)   N (  2)
   N (  2)  1.134351
   O (  3)  2.326746  1.192395
 
 A cutoff of  1.0D-08 yielded    432 shell pairs
 There are   7787 function pairs ( 10235 Cartesian)
Evaluating contribution to one-electron hamiltonian from nuclear
 Smallest overlap matrix eigenvalue = 5.07E-05

 Q-Chem warning in module mkSTV.C, line 194:

 Overlap eigenvalue is smaller than square root of threshold

 Multipole matrices computed through 2nd order

  Scale SEOQF with 1.000000e-01/1.000000e-01/1.000000e-01

 Standard Electronic Orientation quadrupole field applied
 Nucleus-field energy     =    -0.0000000056 hartrees
 Guess from superposition of atomic densities
 Warning:  Energy on first SCF cycle will be non-variational
 An unrestricted hybrid HF-DFT SCF calculation will be
 performed using Pulay DIIS extrapolation
 Exchange:     1.0000 Hartree-Fock + 1.0000 BNL
 Correlation:  1.0000 LYP
 Using SG-1 standard quadrature grid
 SCF converges when DIIS error is below 1.0E-05
 Warning!  Inaccurate integrated density:
   Number of electrons =    21
   Numerical integral  =    22.000002379935
   Relative error      =     4.7619160949 %
 ---------------------------------------
  Cycle       Energy         DIIS Error
 ---------------------------------------
    1    -183.8804656614      4.78E-02
    2    -182.5855786435      9.19E-03
    3    -182.6922572527      7.07E-03
    4    -182.7557829102      1.47E-03
    5    -182.7615902954      4.65E-04
    6    -182.7639046817      2.92E-04
    7    -182.7646598327      1.25E-04
    8    -182.7652740496      5.82E-05
    9    -182.7653991519      2.40E-05
   10    -182.7654113294      8.82E-06 Convergence criterion met
 ---------------------------------------
 One-Electron    Energy =  -361.9547423374
 Total Coulomb   Energy =   139.0995797325
 Alpha Exchange  Energy =    -4.1899041247
 Beta  Exchange  Energy =    -3.8002952107
 DFT   Exchange  Energy =   -11.6214965840
 DFT Correlation Energy =    -0.7458010216
 Nuclear Repu.   Energy =    60.4472482165
 Nuclear Attr.   Energy =  -543.7687803152
 Kinetic         Energy =   181.8140379779
 <S^2> = 0.8265
 SCF time:  CPU 30.89 s  wall 56.91 s
 Final Alpha MO Eigenvalues
            1           2           3           4           5           6
    1 -19.6024367 -14.9272711 -14.8529126  -1.9362831  -1.7567753  -1.2138859
            7           8           9          10          11          12
    1  -1.1707155  -1.1408783  -1.0493355  -0.9532195  -0.9051132  -0.2560420
           13          14          15          16
    1  -0.2419605  -0.1591783  -0.0645227  -0.0596594
 Final Beta MO Eigenvalues
            1           2           3           4           5           6
    1 -19.5783070 -14.9362798 -14.8408953  -1.9063436  -1.7120253  -1.1768605
            7           8           9          10          11          12
    1  -1.1380144  -1.0824543  -1.0250358  -0.8779790  -0.4359330  -0.2401475
           13          14          15
    1  -0.1771747  -0.1564588  -0.0582422
 Analysis of SCF Wavefunction
 
 --------------------------------------------------------------
                    Orbital Energies (a.u.)
 --------------------------------------------------------------
 
 Alpha MOs
 -- Occupied --
-19.602 -14.927 -14.853  -1.936  -1.757  -1.214  -1.171  -1.141
 -1.049  -0.953  -0.905
 -- Virtual --
 -0.256  -0.242  -0.159  -0.065  -0.060  -0.046  -0.007   0.001
  0.019   0.022   0.088   0.119   0.123   0.184   0.207   0.438
  0.532   0.539   0.597   0.597   0.632   0.642   0.642   0.718
  0.861   0.870   0.895   0.915   0.919   0.939   0.973   0.974
  1.054   1.419   1.420   1.484   1.522   1.541   1.822   2.178
  2.200   2.404   2.526   3.089   3.089   3.136   3.136   3.259
  3.413   3.414   3.458   3.480   3.595   3.595   3.723   3.740
  4.020   4.186   4.186   4.263   4.278   4.425   4.468   4.478
  4.479   4.606   4.606   4.627   4.663   4.855   4.856   4.900
  4.934   5.187   5.431   5.434   5.576   5.726   5.742   6.537
  6.538   6.830   6.995   7.039   7.203   7.228   7.535   8.459
 35.448  36.044  37.141  37.146  37.519  37.523  38.256  39.133
 40.102  40.171  40.237  40.306  40.318  40.320  40.448  40.563
 40.570  41.329  43.350  43.428  43.552  43.585  43.796  45.554
 45.586  46.502  50.360
 
 Beta MOs
 -- Occupied --
-19.578 -14.936 -14.841  -1.906  -1.712  -1.177  -1.138  -1.082
 -1.025  -0.878
 -- Virtual --
 -0.436  -0.240  -0.177  -0.156  -0.058  -0.052  -0.045  -0.002
  0.002   0.023   0.025   0.089   0.124   0.127   0.185   0.209
  0.445   0.536   0.539   0.602   0.603   0.645   0.646   0.648
  0.724   0.864   0.902   0.914   0.924   0.943   0.948   0.993
  0.994   1.062   1.455   1.456   1.498   1.546   1.546   1.826
  2.202   2.204   2.415   2.537   3.099   3.099   3.138   3.138
  3.263   3.394   3.402   3.490   3.492   3.604   3.604   3.743
  3.746   4.024   4.197   4.197   4.273   4.279   4.438   4.471
  4.471   4.478   4.630   4.630   4.680   4.681   4.905   4.905
  4.943   4.948   5.213   5.459   5.459   5.588   5.740   5.745
  6.614   6.614   6.848   7.057   7.059   7.231   7.237   7.548
  8.474  35.451  36.045  37.145  37.147  37.522  37.523  38.262
 39.134  40.088  40.193  40.223  40.315  40.317  40.329  40.446
 40.574  40.574  41.331  43.407  43.487  43.607  43.609  43.830
 45.597  45.602  46.518  50.386
 --------------------------------------------------------------
 
          Ground-State Mulliken Net Atomic Charges

     Atom                 Charge (a.u.)    Spin (a.u.)
  --------------------------------------------------------
      1 N                     0.358823       0.500474
      2 N                     0.377527      -0.305503
      3 O                     0.263650       0.805029
  --------------------------------------------------------
  Sum of atomic charges =     1.000000
  Sum of spin   charges =     1.000000

 -----------------------------------------------------------------
                    Cartesian Multipole Moments
 -----------------------------------------------------------------
    Charge (ESU x 10^10)
                 4.8032
    Dipole Moment (Debye)
         X       0.0014      Y      -0.0010      Z       5.4738
       Tot       5.4738
    Quadrupole Moments (Debye-Ang)
        XX     -12.7867     XY      -0.4807     YY     -13.0986
        XZ       0.0003     YZ      -0.0001     ZZ      -4.5156
    Octapole Moments (Debye-Ang^2)
       XXX       0.0010    XXY      -0.0002    XYY       0.0003
       YYY      -0.0007    XXZ     -14.6005    XYZ      -0.7132
       YYZ     -15.0633    XZZ       0.0022    YZZ      -0.0014
       ZZZ     -28.6864
    Hexadecapole Moments (Debye-Ang^3)
      XXXX      -8.7319   XXXY      -0.2650   XXYY      -2.9681
      XYYY      -0.2652   YYYY      -9.0760   XXXZ       0.0001
      XXYZ       0.0000   XYYZ       0.0000   YYYZ      -0.0001
      XXZZ     -31.6598   XYZZ      -1.7879   YYZZ     -32.8202
      XZZZ       0.0053   YZZZ      -0.0035   ZZZZ    -152.1408
 -----------------------------------------------------------------
 Total job time:  59.82s(wall), 31.03s(cpu) 
 Mon Apr 11 17:55:32 2011

        *************************************************************
        *                                                           *
        *  Thank you very much for using Q-Chem.  Have a nice day.  *
        *                                                           *
        *************************************************************


0 sent ACK to 0 
now end server 0 ... 
