Process 0 of 1 is on cl263.stfx.acenet.ca - thread support 1
initial socket setup ...start
initial socket setup ...done 
now start server 0 ... 

cmd = /usr/bin/ssh clhead /usr/local/qchem/bin/get_hostid 2057277309 > /globalscratch/itamblyn/bnl/g297_b3lyp_neut_g03Large_worked/g2g71017/omega500/qchem25196/lic.dat
                  Welcome to Q-Chem
     A Quantum Leap Into The Future Of Chemistry

 Y. Shao, L. Fusti-Molnar, Y. Jung, J. Kussmann, C. Ochsenfeld,
 S. T. Brown, A. T. B. Gilbert, L. V. Slipchenko,S. V. Levchenko,
 D. P. O'Neill, R. A. DiStasio Jr., R. C. Lochan, T. Wang,
 G. J. O. Beran, N. A. Besley, J. M. Herbert, C. Y. Lin,
 T. Van Voorhis, S. H. Chien, A. Sodt, R. P. Steele, 
 V. A. Rassolov, P. E. Maslen, P. P. Korambath, R. D. Adamson,
 B. Austin, J. Baker, E. F. C. Byrd, H. Dachsel, R. J. Doerksen,
 A. Dreuw, B. D. Dunietz, A. D. Dutoi, T. R. Furlani,
 S. R. Gwaltney, A. Heyden, S. Hirata, C.-P. Hsu, G. Kedziora,
 R. Z. Khaliullin, P. Klunzinger, A. M. Lee, M. S. Lee, W. Liang,
 I. Lotan, N. Nair, B. Peters, E. I. Proynov, P. A. Pieniazek, 
 Y. M. Rhee, J. Ritchie, E. Rosta, C. D. Sherrill, 
 A. C. Simmonett, J. E. Subotnik, H. L. Woodcock III,
 W. Zhang, A. T. Bell, A. K. Chakraborty, D. M. Chipman,
 F. J. Keil, A. Warshel, W. J. Hehre, H. F. Schaefer III,
 J. Kong, A. I. Krylov, P. M. W. Gill, M. Head-Gordon,
 Q-Chem, Version 3.1, Q-Chem, Inc., Pittsburgh, PA (2007).

 Additional authors for Version 3.1: 
 Z. Gan, Y. Zhao, N. E. Schultz, D. Truhlar, E. Epifanovsky and M. Oana.

 Additional authors for Version 3.2: 
 R. Baer, B. R. Brooks, D. Casanova, J.-D. Chai, C.-L. Cheng, 
 C. Cramer, D. Crittenden, A. Ghysels, G. Hawkins, E. G. Hohenstein, 
 C. Kelley, W. Kurlancheek, D. Liotard, E. Livshits, P. Manohar, 
 A. Marenich, D. Neuhauser, R. Olson, M. A. Rohrdanz, K. S. Thanthiriwatte, 
 A. J. W. Thom, V. Vanovschi, C. F. Williams, Q. Wu and Z.-Q. You. 


 Intel X86 Linux Version

 Q-chem begins on Tue Apr 12 20:33:26 2011  

 Parallel job on  1  processors
Processing $rem in /usr/local/qchem/config/preferences.

theFileMan(): MAXOPENFILES=974 MAX_SUB_FILE_NUM=16
Maximum size of a physical file is 2.0 GB, maximum size of a tmp-file is 32.0 GB


--------------------------------------------------------------
User input:
--------------------------------------------------------------

$molecule
-1,1
P
X,1,1.
H,1,R,2,A
H,1,R,2,A,3,180.,0

 R=1.43044019
 A=45.80225056

$end

$comment
negative
$end

$xc_functional
   X HF 1.0
   X BNL 1.0
   C LYP 1.0
$end

$rem
SYMMETRY_DECOMPOSITION	0
exchange 		general
BASIS                   g3large
omega			500
separate_jk		true
mem_static              760
max_scf_cycles          200
scf_final_print         1
sym_ignore              true
$end

--------------------------------------------------------------
 Writing REM_CC_EA            3
 ----------------------------------------------------
       Standard Nuclear Orientation (Angstroms)
    I     Atom         X            Y            Z
 ----------------------------------------------------
    1      P       0.000000     0.000000     0.000000
    2      H       1.025537     0.000000     0.997213
    3      H      -1.025537     0.000000     0.997213
 ----------------------------------------------------
 Nuclear Repulsion Energy =    11.3562035794 hartrees
 There are        9 alpha and        9 beta electrons
 Requested basis set is G3large
 There are 31 shells and 86 basis functions

Total QAlloc Memory Limit   2000 MB
Mega-Array Size       743 MB
MEM_STATIC part       760 MB

                       Distance Matrix (Angstroms)
             P (  1)   H (  2)
   H (  2)  1.430440
   H (  3)  1.430440  2.051074
 
 A cutoff of  1.0D-08 yielded    496 shell pairs
 There are   3877 function pairs (  5178 Cartesian)
Evaluating contribution to one-electron hamiltonian from nuclear
 Smallest overlap matrix eigenvalue = 2.76E-03
 Multipole matrices computed through 2nd order

  Scale SEOQF with 1.000000e-01/1.000000e-01/1.000000e-01

 Standard Electronic Orientation quadrupole field applied
 Nucleus-field energy     =    -0.0000000001 hartrees
 Guess from superposition of atomic densities
 Warning:  Energy on first SCF cycle will be non-variational
 A restricted hybrid HF-DFT SCF calculation will be
 performed using Pulay DIIS extrapolation
 Exchange:     1.0000 Hartree-Fock + 1.0000 BNL
 Correlation:  1.0000 LYP
 Using SG-1 standard quadrature grid
 SCF converges when DIIS error is below 1.0E-05
 Warning!  Inaccurate integrated density:
   Number of electrons =    18
   Numerical integral  =    16.999992922830
   Relative error      =    -5.5555948732 %
 ---------------------------------------
  Cycle       Energy         DIIS Error
 ---------------------------------------
    1    -340.7374082161      3.09E-02
    2    -340.9402626145      4.62E-03
    3    -340.9734813362      3.20E-03
    4    -340.9811688795      4.64E-04
    5    -340.9815212744      1.51E-04
    6    -340.9816097862      3.20E-05
    7    -340.9816152513      6.02E-06 Convergence criterion met
 ---------------------------------------
 One-Electron    Energy =  -500.0891225034
 Total Coulomb   Energy =   170.2444871039
 Alpha Exchange  Energy =    -2.1467097668
 Beta  Exchange  Energy =    -2.1467097668
 DFT   Exchange  Energy =   -17.5272737917
 DFT Correlation Energy =    -0.6724901058
 Nuclear Repu.   Energy =    11.3562035793
 Nuclear Attr.   Energy =  -840.3250264339
 Kinetic         Energy =   340.2359039305
 SCF time:  CPU 9.95 s  wall 11.85 s
 Final Alpha MO Eigenvalues
            1           2           3           4           5           6
    1 -75.9544790  -6.2587732  -4.4975978  -4.4942807  -4.4903700  -0.5239836
            7           8           9          10          11          12
    1  -0.2562725  -0.1662940  -0.0612725   0.1810669   0.2136793   0.2271947
           13          14
    1   0.2275657   0.2402100
 Analysis of SCF Wavefunction
 
 --------------------------------------------------------------
                    Orbital Energies (a.u.)
 --------------------------------------------------------------
 
 Alpha MOs
 -- Occupied --
-75.954  -6.259  -4.498  -4.494  -4.490  -0.524  -0.256  -0.166
 -0.061
 -- Virtual --
  0.181   0.214   0.227   0.228   0.240   0.288   0.369   0.393
  0.488   0.507   0.511   0.552   0.558   0.619   0.639   0.652
  0.806   0.844   0.986   1.011   1.027   1.040   1.045   1.062
  1.157   1.180   1.197   1.231   1.237   1.305   1.313   1.409
  1.475   1.507   1.621   1.773   1.815   1.827   1.894   1.968
  3.103   3.213   3.263   3.271   3.279   3.287   3.306   3.322
  3.337   4.322   4.325   4.329   4.340   4.458   4.466   4.466
  4.468   4.538   4.817   5.375   7.266  13.284  13.351  13.354
 21.691  21.809  21.838  21.839  22.127  28.611  28.614  28.614
 28.623  28.626  28.643  28.645 164.169
 --------------------------------------------------------------
 
          Ground-State Mulliken Net Atomic Charges

     Atom                 Charge (a.u.)
  ----------------------------------------
      1 P                    -0.882060
      2 H                    -0.058969
      3 H                    -0.058971
  ----------------------------------------
  Sum of atomic charges =    -1.000000

 -----------------------------------------------------------------
                    Cartesian Multipole Moments
 -----------------------------------------------------------------
    Charge (ESU x 10^10)
                -4.8032
    Dipole Moment (Debye)
         X      -0.0001      Y       0.0000      Z       0.0495
       Tot       0.0495
    Quadrupole Moments (Debye-Ang)
        XX     -19.9958     XY       0.0000     YY     -26.7014
        XZ       0.0000     YZ       0.0000     ZZ     -21.8214
    Octapole Moments (Debye-Ang^2)
       XXX      -0.0002    XXY       0.0001    XYY       0.0000
       YYY       0.0002    XXZ      -3.0868    XYZ       0.0000
       YYZ      -1.7428    XZZ      -0.0001    YZZ       0.0001
       ZZZ      -6.4778
    Hexadecapole Moments (Debye-Ang^3)
      XXXX     -54.5825   XXXY      -0.0001   XXYY     -23.5783
      XYYY      -0.0001   YYYY     -86.3548   XXXZ      -0.0001
      XXYZ       0.0000   XYYZ       0.0000   YYYZ       0.0000
      XXZZ     -19.8533   XYZZ       0.0000   YYZZ     -24.8581
      XZZZ      -0.0001   YZZZ       0.0000   ZZZZ     -63.0164
 -----------------------------------------------------------------
 Total job time:  12.53s(wall), 10.06s(cpu) 
 Tue Apr 12 20:33:39 2011

        *************************************************************
        *                                                           *
        *  Thank you very much for using Q-Chem.  Have a nice day.  *
        *                                                           *
        *************************************************************


0 sent ACK to 0 
now end server 0 ... 
 
**********************************************************************
Job 2 of 3 
**********************************************************************
 
Process 0 of 1 is on cl263.stfx.acenet.ca - thread support 1
initial socket setup ...start
initial socket setup ...done 
now start server 0 ... 

cmd = /usr/bin/ssh clhead /usr/local/qchem/bin/get_hostid 709299417 > /globalscratch/itamblyn/bnl/g297_b3lyp_neut_g03Large_worked/g2g71017/omega500/qchem25196/lic.dat
                  Welcome to Q-Chem
     A Quantum Leap Into The Future Of Chemistry

 Y. Shao, L. Fusti-Molnar, Y. Jung, J. Kussmann, C. Ochsenfeld,
 S. T. Brown, A. T. B. Gilbert, L. V. Slipchenko,S. V. Levchenko,
 D. P. O'Neill, R. A. DiStasio Jr., R. C. Lochan, T. Wang,
 G. J. O. Beran, N. A. Besley, J. M. Herbert, C. Y. Lin,
 T. Van Voorhis, S. H. Chien, A. Sodt, R. P. Steele, 
 V. A. Rassolov, P. E. Maslen, P. P. Korambath, R. D. Adamson,
 B. Austin, J. Baker, E. F. C. Byrd, H. Dachsel, R. J. Doerksen,
 A. Dreuw, B. D. Dunietz, A. D. Dutoi, T. R. Furlani,
 S. R. Gwaltney, A. Heyden, S. Hirata, C.-P. Hsu, G. Kedziora,
 R. Z. Khaliullin, P. Klunzinger, A. M. Lee, M. S. Lee, W. Liang,
 I. Lotan, N. Nair, B. Peters, E. I. Proynov, P. A. Pieniazek, 
 Y. M. Rhee, J. Ritchie, E. Rosta, C. D. Sherrill, 
 A. C. Simmonett, J. E. Subotnik, H. L. Woodcock III,
 W. Zhang, A. T. Bell, A. K. Chakraborty, D. M. Chipman,
 F. J. Keil, A. Warshel, W. J. Hehre, H. F. Schaefer III,
 J. Kong, A. I. Krylov, P. M. W. Gill, M. Head-Gordon,
 Q-Chem, Version 3.1, Q-Chem, Inc., Pittsburgh, PA (2007).

 Additional authors for Version 3.1: 
 Z. Gan, Y. Zhao, N. E. Schultz, D. Truhlar, E. Epifanovsky and M. Oana.

 Additional authors for Version 3.2: 
 R. Baer, B. R. Brooks, D. Casanova, J.-D. Chai, C.-L. Cheng, 
 C. Cramer, D. Crittenden, A. Ghysels, G. Hawkins, E. G. Hohenstein, 
 C. Kelley, W. Kurlancheek, D. Liotard, E. Livshits, P. Manohar, 
 A. Marenich, D. Neuhauser, R. Olson, M. A. Rohrdanz, K. S. Thanthiriwatte, 
 A. J. W. Thom, V. Vanovschi, C. F. Williams, Q. Wu and Z.-Q. You. 


 Intel X86 Linux Version

 Q-chem begins on Tue Apr 12 20:33:42 2011  

 Parallel job on  1  processors
Processing $rem in /usr/local/qchem/config/preferences.

theFileMan(): MAXOPENFILES=974 MAX_SUB_FILE_NUM=16
Maximum size of a physical file is 2.0 GB, maximum size of a tmp-file is 32.0 GB


--------------------------------------------------------------
User input:
--------------------------------------------------------------

$molecule
0,2
P
X,1,1.
H,1,R,2,A
H,1,R,2,A,3,180.,0

 R=1.43044019
 A=45.80225056

$end

$comment
neutral
$end

$xc_functional
   X HF 1.0
   X BNL 1.0
   C LYP 1.0
$end

$rem
SYMMETRY_DECOMPOSITION	0
exchange 		general
BASIS                   g3large
omega			500
separate_jk		true
mem_static              760
max_scf_cycles          200
scf_final_print         1
sym_ignore              true
$end

--------------------------------------------------------------
 Writing REM_CC_EA            3
 ----------------------------------------------------
       Standard Nuclear Orientation (Angstroms)
    I     Atom         X            Y            Z
 ----------------------------------------------------
    1      P       0.000000     0.000000     0.000000
    2      H       1.025537     0.000000     0.997213
    3      H      -1.025537     0.000000     0.997213
 ----------------------------------------------------
 Nuclear Repulsion Energy =    11.3562035794 hartrees
 There are        9 alpha and        8 beta electrons
 Requested basis set is G3large
 There are 31 shells and 86 basis functions

Total QAlloc Memory Limit   2000 MB
Mega-Array Size       743 MB
MEM_STATIC part       760 MB

                       Distance Matrix (Angstroms)
             P (  1)   H (  2)
   H (  2)  1.430440
   H (  3)  1.430440  2.051074
 
 A cutoff of  1.0D-08 yielded    496 shell pairs
 There are   3877 function pairs (  5178 Cartesian)
Evaluating contribution to one-electron hamiltonian from nuclear
 Smallest overlap matrix eigenvalue = 2.76E-03
 Multipole matrices computed through 2nd order

  Scale SEOQF with 1.000000e-01/1.000000e-01/1.000000e-01

 Standard Electronic Orientation quadrupole field applied
 Nucleus-field energy     =    -0.0000000001 hartrees
 Guess from superposition of atomic densities
 Warning:  Energy on first SCF cycle will be non-variational
 An unrestricted hybrid HF-DFT SCF calculation will be
 performed using Pulay DIIS extrapolation
 Exchange:     1.0000 Hartree-Fock + 1.0000 BNL
 Correlation:  1.0000 LYP
 Using SG-1 standard quadrature grid
 SCF converges when DIIS error is below 1.0E-05
 ---------------------------------------
  Cycle       Energy         DIIS Error
 ---------------------------------------
    1    -340.7374082161      3.09E-02
    2    -340.9322455815      2.06E-03
    3    -340.9394460730      7.60E-04
    4    -340.9401614125      1.90E-04
    5    -340.9403593604      4.97E-05
    6    -340.9403789670      1.66E-05
    7    -340.9403821800      4.35E-06 Convergence criterion met
 ---------------------------------------
 One-Electron    Energy =  -495.3569592341
 Total Coulomb   Energy =   165.3626109662
 Alpha Exchange  Energy =    -2.1821201879
 Beta  Exchange  Energy =    -1.9794001942
 DFT   Exchange  Energy =   -17.4982793961
 DFT Correlation Energy =    -0.6424377132
 Nuclear Repu.   Energy =    11.3562035793
 Nuclear Attr.   Energy =  -835.5327269918
 Kinetic         Energy =   340.1757677576
 <S^2> = 0.7564
 SCF time:  CPU 11.28 s  wall 13.64 s
 Final Alpha MO Eigenvalues
            1           2           3           4           5           6
    1 -76.2456141  -6.5489398  -4.7896377  -4.7845596  -4.7807330  -0.8084639
            7           8           9          10          11          12
    1  -0.5130635  -0.4314748  -0.3700621   0.0384223   0.0757743   0.0763322
           13          14
    1   0.0836712   0.0874627
 Final Beta MO Eigenvalues
            1           2           3           4           5           6
    1 -76.2411652  -6.5441702  -4.7813341  -4.7782164  -4.7776985  -0.7667861
            7           8           9          10          11          12
    1  -0.5070112  -0.4153589  -0.0314406   0.0382933   0.0738621   0.0770836
           13
    1   0.0832136
 Analysis of SCF Wavefunction
 
 --------------------------------------------------------------
                    Orbital Energies (a.u.)
 --------------------------------------------------------------
 
 Alpha MOs
 -- Occupied --
-76.246  -6.549  -4.790  -4.785  -4.781  -0.808  -0.513  -0.431
 -0.370
 -- Virtual --
  0.038   0.076   0.076   0.084   0.087   0.123   0.164   0.184
  0.257   0.258   0.263   0.330   0.356   0.406   0.406   0.444
  0.574   0.615   0.746   0.763   0.778   0.781   0.795   0.812
  0.921   0.923   0.936   0.951   0.959   1.062   1.063   1.176
  1.223   1.258   1.383   1.525   1.530   1.574   1.641   1.720
  2.849   2.951   2.974   2.981   2.987   2.998   3.014   3.052
  3.064   4.058   4.063   4.079   4.086   4.187   4.191   4.196
  4.202   4.272   4.536   5.106   6.981  12.984  13.066  13.069
 21.406  21.512  21.543  21.545  21.842  28.320  28.322  28.325
 28.334  28.337  28.356  28.357 163.878
 
 Beta MOs
 -- Occupied --
-76.241  -6.544  -4.781  -4.778  -4.778  -0.767  -0.507  -0.415
 -- Virtual --
 -0.031   0.038   0.074   0.077   0.083   0.097   0.123   0.166
  0.196   0.258   0.285   0.290   0.352   0.357   0.408   0.427
  0.443   0.577   0.617   0.753   0.771   0.785   0.791   0.802
  0.820   0.922   0.930   0.950   0.973   0.980   1.067   1.072
  1.177   1.231   1.264   1.385   1.531   1.554   1.580   1.646
  1.723   2.852   2.957   2.996   3.005   3.015   3.015   3.037
  3.062   3.077   4.063   4.069   4.078   4.086   4.195   4.199
  4.199   4.203   4.277   4.548   5.111   6.989  13.000  13.069
 13.072  21.409  21.523  21.552  21.554  21.845  28.325  28.325
 28.328  28.337  28.340  28.358  28.360 163.883
 --------------------------------------------------------------
 
          Ground-State Mulliken Net Atomic Charges

     Atom                 Charge (a.u.)    Spin (a.u.)
  --------------------------------------------------------
      1 P                    -0.066744       1.031807
      2 H                     0.033372      -0.015902
      3 H                     0.033372      -0.015905
  --------------------------------------------------------
  Sum of atomic charges =     0.000000
  Sum of spin   charges =     1.000000

 -----------------------------------------------------------------
                    Cartesian Multipole Moments
 -----------------------------------------------------------------
    Charge (ESU x 10^10)
                 0.0000
    Dipole Moment (Debye)
         X       0.0000      Y       0.0000      Z       0.6593
       Tot       0.6593
    Quadrupole Moments (Debye-Ang)
        XX     -14.0525     XY       0.0000     YY     -15.3329
        XZ       0.0000     YZ       0.0000     ZZ     -15.4426
    Octapole Moments (Debye-Ang^2)
       XXX       0.0000    XXY       0.0000    XYY       0.0000
       YYY       0.0000    XXZ      -1.3283    XYZ       0.0000
       YYZ      -1.5101    XZZ       0.0000    YZZ       0.0000
       ZZZ      -4.5491
    Hexadecapole Moments (Debye-Ang^3)
      XXXX     -31.3936   XXXY       0.0000   XXYY      -9.5269
      XYYY       0.0000   YYYY     -24.0475   XXXZ       0.0000
      XXYZ       0.0000   XYYZ       0.0000   YYYZ       0.0000
      XXZZ     -10.1820   XYZZ       0.0000   YYZZ     -10.1687
      XZZZ       0.0001   YZZZ       0.0000   ZZZZ     -35.7807
 -----------------------------------------------------------------
 Total job time:  14.53s(wall), 11.39s(cpu) 
 Tue Apr 12 20:33:56 2011

        *************************************************************
        *                                                           *
        *  Thank you very much for using Q-Chem.  Have a nice day.  *
        *                                                           *
        *************************************************************


0 sent ACK to 0 
now end server 0 ... 
 
**********************************************************************
Job 3 of 3 
**********************************************************************
 
Process 0 of 1 is on cl263.stfx.acenet.ca - thread support 1
initial socket setup ...start
initial socket setup ...done 
now start server 0 ... 

cmd = /usr/bin/ssh clhead /usr/local/qchem/bin/get_hostid 1668647331 > /globalscratch/itamblyn/bnl/g297_b3lyp_neut_g03Large_worked/g2g71017/omega500/qchem25196/lic.dat
                  Welcome to Q-Chem
     A Quantum Leap Into The Future Of Chemistry

 Y. Shao, L. Fusti-Molnar, Y. Jung, J. Kussmann, C. Ochsenfeld,
 S. T. Brown, A. T. B. Gilbert, L. V. Slipchenko,S. V. Levchenko,
 D. P. O'Neill, R. A. DiStasio Jr., R. C. Lochan, T. Wang,
 G. J. O. Beran, N. A. Besley, J. M. Herbert, C. Y. Lin,
 T. Van Voorhis, S. H. Chien, A. Sodt, R. P. Steele, 
 V. A. Rassolov, P. E. Maslen, P. P. Korambath, R. D. Adamson,
 B. Austin, J. Baker, E. F. C. Byrd, H. Dachsel, R. J. Doerksen,
 A. Dreuw, B. D. Dunietz, A. D. Dutoi, T. R. Furlani,
 S. R. Gwaltney, A. Heyden, S. Hirata, C.-P. Hsu, G. Kedziora,
 R. Z. Khaliullin, P. Klunzinger, A. M. Lee, M. S. Lee, W. Liang,
 I. Lotan, N. Nair, B. Peters, E. I. Proynov, P. A. Pieniazek, 
 Y. M. Rhee, J. Ritchie, E. Rosta, C. D. Sherrill, 
 A. C. Simmonett, J. E. Subotnik, H. L. Woodcock III,
 W. Zhang, A. T. Bell, A. K. Chakraborty, D. M. Chipman,
 F. J. Keil, A. Warshel, W. J. Hehre, H. F. Schaefer III,
 J. Kong, A. I. Krylov, P. M. W. Gill, M. Head-Gordon,
 Q-Chem, Version 3.1, Q-Chem, Inc., Pittsburgh, PA (2007).

 Additional authors for Version 3.1: 
 Z. Gan, Y. Zhao, N. E. Schultz, D. Truhlar, E. Epifanovsky and M. Oana.

 Additional authors for Version 3.2: 
 R. Baer, B. R. Brooks, D. Casanova, J.-D. Chai, C.-L. Cheng, 
 C. Cramer, D. Crittenden, A. Ghysels, G. Hawkins, E. G. Hohenstein, 
 C. Kelley, W. Kurlancheek, D. Liotard, E. Livshits, P. Manohar, 
 A. Marenich, D. Neuhauser, R. Olson, M. A. Rohrdanz, K. S. Thanthiriwatte, 
 A. J. W. Thom, V. Vanovschi, C. F. Williams, Q. Wu and Z.-Q. You. 


 Intel X86 Linux Version

 Q-chem begins on Tue Apr 12 20:33:59 2011  

 Parallel job on  1  processors
Processing $rem in /usr/local/qchem/config/preferences.

theFileMan(): MAXOPENFILES=974 MAX_SUB_FILE_NUM=16
Maximum size of a physical file is 2.0 GB, maximum size of a tmp-file is 32.0 GB


--------------------------------------------------------------
User input:
--------------------------------------------------------------

$molecule
1,1
P
X,1,1.
H,1,R,2,A
H,1,R,2,A,3,180.,0

 R=1.43044019
 A=45.80225056

$end

$comment
positive
$end

$xc_functional
   X HF 1.0
   X BNL 1.0
   C LYP 1.0
$end

$rem
SYMMETRY_DECOMPOSITION	0
exchange 		general
BASIS                   g3large
omega			500
separate_jk		true
mem_static              760
max_scf_cycles          200
scf_final_print         1
sym_ignore              true
$end

--------------------------------------------------------------
 Writing REM_CC_EA            3
 ----------------------------------------------------
       Standard Nuclear Orientation (Angstroms)
    I     Atom         X            Y            Z
 ----------------------------------------------------
    1      P       0.000000     0.000000     0.000000
    2      H       1.025537     0.000000     0.997213
    3      H      -1.025537     0.000000     0.997213
 ----------------------------------------------------
 Nuclear Repulsion Energy =    11.3562035794 hartrees
 There are        8 alpha and        8 beta electrons
 Requested basis set is G3large
 There are 31 shells and 86 basis functions

Total QAlloc Memory Limit   2000 MB
Mega-Array Size       743 MB
MEM_STATIC part       760 MB

                       Distance Matrix (Angstroms)
             P (  1)   H (  2)
   H (  2)  1.430440
   H (  3)  1.430440  2.051074
 
 A cutoff of  1.0D-08 yielded    496 shell pairs
 There are   3877 function pairs (  5178 Cartesian)
Evaluating contribution to one-electron hamiltonian from nuclear
 Smallest overlap matrix eigenvalue = 2.76E-03
 Multipole matrices computed through 2nd order

  Scale SEOQF with 1.000000e-01/1.000000e-01/1.000000e-01

 Standard Electronic Orientation quadrupole field applied
 Nucleus-field energy     =    -0.0000000001 hartrees
 Guess from superposition of atomic densities
 Warning:  Energy on first SCF cycle will be non-variational
 A restricted hybrid HF-DFT SCF calculation will be
 performed using Pulay DIIS extrapolation
 Exchange:     1.0000 Hartree-Fock + 1.0000 BNL
 Correlation:  1.0000 LYP
 Using SG-1 standard quadrature grid
 SCF converges when DIIS error is below 1.0E-05
 Warning!  Inaccurate integrated density:
   Number of electrons =    16
   Numerical integral  =    16.999992922830
   Relative error      =     6.2499557677 %
 ---------------------------------------
  Cycle       Energy         DIIS Error
 ---------------------------------------
    1    -340.7374082161      3.09E-02
    2    -340.5344740247      5.43E-03
    3    -340.5727761397      2.37E-03
    4    -340.5747890930      3.72E-04
    5    -340.5749091712      7.63E-05
    6    -340.5749219715      1.55E-05
    7    -340.5749227635      3.66E-06 Convergence criterion met
 ---------------------------------------
 One-Electron    Energy =  -489.4206356466
 Total Coulomb   Energy =   159.5017335855
 Alpha Exchange  Energy =    -1.9910403609
 Beta  Exchange  Energy =    -1.9910403609
 DFT   Exchange  Energy =   -17.4087396334
 DFT Correlation Energy =    -0.6214039263
 Nuclear Repu.   Energy =    11.3562035793
 Nuclear Attr.   Energy =  -829.2573236481
 Kinetic         Energy =   339.8366880015
 SCF time:  CPU 9.91 s  wall 12.77 s
 Final Alpha MO Eigenvalues
            1           2           3           4           5           6
    1 -76.6248787  -6.9207181  -5.1689148  -5.1530074  -5.1489649  -1.1057778
            7           8           9          10          11          12
    1  -0.8144083  -0.7327492  -0.3623852  -0.1545326  -0.1431967  -0.0827712
           13
    1  -0.0803296
 Analysis of SCF Wavefunction
 
 --------------------------------------------------------------
                    Orbital Energies (a.u.)
 --------------------------------------------------------------
 
 Alpha MOs
 -- Occupied --
-76.625  -6.921  -5.169  -5.153  -5.149  -1.106  -0.814  -0.733
 -- Virtual --
 -0.362  -0.155  -0.143  -0.083  -0.080  -0.072  -0.071  -0.012
 -0.009  -0.002   0.000   0.005   0.111   0.143   0.178   0.182
  0.223   0.319   0.363   0.482   0.490   0.500   0.503   0.520
  0.536   0.628   0.641   0.644   0.648   0.651   0.789   0.794
  0.915   0.947   0.984   1.114   1.220   1.240   1.282   1.351
  1.431   2.549   2.638   2.641   2.642   2.655   2.667   2.679
  2.751   2.754   3.730   3.732   3.772   3.786   3.865   3.871
  3.872   3.895   3.949   4.209   4.781   6.627  12.613  12.702
 12.704  21.040  21.136  21.170  21.172  21.477  27.941  27.948
 27.951  27.961  27.964  27.987  27.989 163.501
 --------------------------------------------------------------
 
          Ground-State Mulliken Net Atomic Charges

     Atom                 Charge (a.u.)
  ----------------------------------------
      1 P                     0.709822
      2 H                     0.145089
      3 H                     0.145089
  ----------------------------------------
  Sum of atomic charges =     1.000000

 -----------------------------------------------------------------
                    Cartesian Multipole Moments
 -----------------------------------------------------------------
    Charge (ESU x 10^10)
                 4.8032
    Dipole Moment (Debye)
         X       0.0000      Y       0.0000      Z       1.5217
       Tot       1.5217
    Quadrupole Moments (Debye-Ang)
        XX      -9.9885     XY       0.0000     YY      -9.2829
        XZ       0.0000     YZ       0.0000     ZZ     -11.1162
    Octapole Moments (Debye-Ang^2)
       XXX       0.0000    XXY       0.0000    XYY       0.0000
       YYY       0.0000    XXZ       0.5719    XYZ       0.0000
       YYZ      -1.1322    XZZ       0.0000    YZZ       0.0000
       ZZZ      -2.3264
    Hexadecapole Moments (Debye-Ang^3)
      XXXX     -20.1734   XXXY       0.0000   XXYY      -5.4138
      XYYY       0.0000   YYYY      -8.6743   XXXZ       0.0000
      XXYZ       0.0000   XYYZ       0.0000   YYYZ       0.0000
      XXZZ      -5.0280   XYZZ       0.0000   YYZZ      -5.7708
      XZZZ       0.0000   YZZZ       0.0000   ZZZZ     -22.9145
 -----------------------------------------------------------------
 Total job time:  13.62s(wall), 10.01s(cpu) 
 Tue Apr 12 20:34:13 2011

        *************************************************************
        *                                                           *
        *  Thank you very much for using Q-Chem.  Have a nice day.  *
        *                                                           *
        *************************************************************


0 sent ACK to 0 
now end server 0 ... 
