Process 0 of 1 is on cl205.stfx.acenet.ca - thread support 1
initial socket setup ...start
initial socket setup ...done 
now start server 0 ... 

cmd = /usr/bin/ssh clhead /usr/local/qchem/bin/get_hostid 2115412405 > /scratch/tmp/5998401.1.medium.q/qchem6655/lic.dat
                  Welcome to Q-Chem
     A Quantum Leap Into The Future Of Chemistry

 Y. Shao, L. Fusti-Molnar, Y. Jung, J. Kussmann, C. Ochsenfeld,
 S. T. Brown, A. T. B. Gilbert, L. V. Slipchenko,S. V. Levchenko,
 D. P. O'Neill, R. A. DiStasio Jr., R. C. Lochan, T. Wang,
 G. J. O. Beran, N. A. Besley, J. M. Herbert, C. Y. Lin,
 T. Van Voorhis, S. H. Chien, A. Sodt, R. P. Steele, 
 V. A. Rassolov, P. E. Maslen, P. P. Korambath, R. D. Adamson,
 B. Austin, J. Baker, E. F. C. Byrd, H. Dachsel, R. J. Doerksen,
 A. Dreuw, B. D. Dunietz, A. D. Dutoi, T. R. Furlani,
 S. R. Gwaltney, A. Heyden, S. Hirata, C.-P. Hsu, G. Kedziora,
 R. Z. Khaliullin, P. Klunzinger, A. M. Lee, M. S. Lee, W. Liang,
 I. Lotan, N. Nair, B. Peters, E. I. Proynov, P. A. Pieniazek, 
 Y. M. Rhee, J. Ritchie, E. Rosta, C. D. Sherrill, 
 A. C. Simmonett, J. E. Subotnik, H. L. Woodcock III,
 W. Zhang, A. T. Bell, A. K. Chakraborty, D. M. Chipman,
 F. J. Keil, A. Warshel, W. J. Hehre, H. F. Schaefer III,
 J. Kong, A. I. Krylov, P. M. W. Gill, M. Head-Gordon,
 Q-Chem, Version 3.1, Q-Chem, Inc., Pittsburgh, PA (2007).

 Additional authors for Version 3.1: 
 Z. Gan, Y. Zhao, N. E. Schultz, D. Truhlar, E. Epifanovsky and M. Oana.

 Additional authors for Version 3.2: 
 R. Baer, B. R. Brooks, D. Casanova, J.-D. Chai, C.-L. Cheng, 
 C. Cramer, D. Crittenden, A. Ghysels, G. Hawkins, E. G. Hohenstein, 
 C. Kelley, W. Kurlancheek, D. Liotard, E. Livshits, P. Manohar, 
 A. Marenich, D. Neuhauser, R. Olson, M. A. Rohrdanz, K. S. Thanthiriwatte, 
 A. J. W. Thom, V. Vanovschi, C. F. Williams, Q. Wu and Z.-Q. You. 


 Intel X86 Linux Version

 Q-chem begins on Wed May 22 11:32:37 2013  

 Parallel job on  1  processors
Processing $rem in /usr/local/qchem/config/preferences.

theFileMan(): MAXOPENFILES=974 MAX_SUB_FILE_NUM=16
Maximum size of a physical file is 2.0 GB, maximum size of a tmp-file is 32.0 GB


--------------------------------------------------------------
User input:
--------------------------------------------------------------

$molecule
-1,2
C          0.00460        0.00000        0.00873
O          0.00048        0.00000        1.40945
C          1.29795        0.00000        1.93778
H         -1.03199        0.00000       -0.32612
H          0.50793        0.89058       -0.39015
H          0.50793       -0.89058       -0.39015
H          1.21429        0.00000        3.02388
H          1.85811       -0.89052        1.62353
H          1.85811        0.89052        1.62353
$end

$comment
negative
$end

$xc_functional
C PBE   1.00
X wPBE  1.00
$end

$rem
SYMMETRY_DECOMPOSITION	0
exchange 		general
LRC_DFT                 true
BASIS                   g3large
omega			400
mem_static              760
max_scf_cycles          200
scf_final_print         1
sym_ignore              true
$end

--------------------------------------------------------------
 Writing REM_CC_EA            9
 ----------------------------------------------------
       Standard Nuclear Orientation (Angstroms)
    I     Atom         X            Y            Z
 ----------------------------------------------------
    1      C       0.004600     0.000000     0.008730
    2      O       0.000480     0.000000     1.409450
    3      C       1.297950     0.000000     1.937780
    4      H      -1.031990     0.000000    -0.326120
    5      H       0.507930     0.890580    -0.390150
    6      H       0.507930    -0.890580    -0.390150
    7      H       1.214290     0.000000     3.023880
    8      H       1.858110    -0.890520     1.623530
    9      H       1.858110     0.890520     1.623530
 ----------------------------------------------------
 Nuclear Repulsion Energy =    84.3356665048 hartrees
 There are       14 alpha and       13 beta electrons
 Requested basis set is G3large
 There are 66 shells and 186 basis functions

Total QAlloc Memory Limit   2000 MB
Mega-Array Size       743 MB
MEM_STATIC part       760 MB

                       Distance Matrix (Angstroms)
             C (  1)   O (  2)   C (  3)   H (  4)   H (  5)   H (  6)
   O (  2)  1.400726
   C (  3)  2.322496  1.400914
   H (  4)  1.089332  2.019455  3.248671
   H (  5)  1.097989  2.071038  2.614674  1.780052
   H (  6)  1.097989  2.071038  2.614674  1.780052  1.781160
   H (  7)  3.248766  2.019831  1.089317  4.033395  3.598288  3.598288
   H (  8)  2.614594  2.071146  1.097979  3.598172  3.008357  2.424437
   H (  9)  2.614594  2.071146  1.097979  3.598172  2.424437  3.008357
             H (  7)   H (  8)
   H (  8)  1.780031
   H (  9)  1.780031  1.781040
 
 A cutoff of  1.0D-08 yielded   2116 shell pairs
 There are  16946 function pairs ( 20471 Cartesian)
Evaluating contribution to one-electron hamiltonian from nuclear
 Smallest overlap matrix eigenvalue = 2.89E-04
 Multipole matrices computed through 2nd order

  Scale SEOQF with 1.000000e-01/1.000000e-01/1.000000e-01

 Standard Electronic Orientation quadrupole field applied
 Nucleus-field energy     =    -0.0000000048 hartrees
 Guess from superposition of atomic densities
 Warning:  Energy on first SCF cycle will be non-variational
 Long-range K will be added via erf
 Coulomb attenuation parameter = 0.4 bohr**(-1)
 An unrestricted Kohn-Sham SCF calculation will be
 performed using Pulay DIIS extrapolation
 Exchange:  wPBE + LR-HF      Correlation:  PBE
 Using SG-1 standard quadrature grid
 SCF converges when DIIS error is below 1.0E-05
 Requested basis set is G3large
 There are 66 shells and 186 basis functions
 A cutoff of  1.0D-08 yielded   2116 shell pairs
 There are  16946 function pairs ( 20471 Cartesian)
 Warning!  Inaccurate integrated density:
   Number of electrons =    27
   Numerical integral  =    25.999902102068
   Relative error      =    -3.7040662886 %
 ---------------------------------------
  Cycle       Energy         DIIS Error
 ---------------------------------------
    1    -155.5217558682      3.22E-02
    2    -154.8592849658      3.59E-03
    3    -154.9052004008      3.14E-03
    4    -154.9370536273      6.00E-04
    5    -154.9407812421      2.16E-04
    6    -154.9422503569      9.03E-05
    7    -154.9429013978      4.34E-05
    8    -154.9431767556      2.08E-05
    9    -154.9432684978      1.16E-05
   10    -154.9432949952      7.05E-06 Convergence criterion met
 ---------------------------------------
 One-Electron    Energy =  -380.1729399276
 Total Coulomb   Energy =   162.5708914423
 Alpha Exchange  Energy =    -2.6570734514
 Beta  Exchange  Energy =    -2.5947398858
 DFT   Exchange  Energy =   -15.5763353825
 DFT Correlation Energy =    -0.8487642902
 Nuclear Repu.   Energy =    84.3356665000
 Nuclear Attr.   Energy =  -534.5853009226
 Kinetic         Energy =   154.4123609951
 <S^2> = 0.7502
 SCF time:  CPU 115.33 s  wall 150.74 s
 Final Alpha MO Eigenvalues
            1           2           3           4           5           6
    1 -18.8304960 -10.0034468 -10.0033469  -1.0440136  -0.7353996  -0.6436496
            7           8           9          10          11          12
    1  -0.4734932  -0.4722044  -0.4703601  -0.3810798  -0.3636590  -0.3093296
           13          14          15          16          17          18
    1  -0.2432897   0.0300740   0.1284523   0.1500673   0.1505802   0.1755521
           19
    1   0.1879803
 Final Beta MO Eigenvalues
            1           2           3           4           5           6
    1 -18.8303854 -10.0030888 -10.0029910  -1.0438258  -0.7346313  -0.6420955
            7           8           9          10          11          12
    1  -0.4730139  -0.4717745  -0.4693863  -0.3808380  -0.3631678  -0.3081850
           13          14          15          16          17          18
    1  -0.2430114   0.1333540   0.1420113   0.1615554   0.1671196   0.1775346
 Analysis of SCF Wavefunction
 
 --------------------------------------------------------------
                    Orbital Energies (a.u.)
 --------------------------------------------------------------
 
 Alpha MOs
 -- Occupied --
-18.830 -10.003 -10.003  -1.044  -0.735  -0.644  -0.473  -0.472
 -0.470  -0.381  -0.364  -0.309  -0.243   0.030
 -- Virtual --
  0.128   0.150   0.151   0.176   0.188   0.209   0.242   0.259
  0.272   0.280   0.288   0.299   0.315   0.362   0.382   0.385
  0.413   0.414   0.415   0.466   0.468   0.479   0.507   0.514
  0.557   0.634   0.637   0.660   0.734   0.750   0.769   0.776
  0.785   0.794   0.800   0.810   0.846   0.863   0.868   0.939
  1.036   1.051   1.074   1.094   1.147   1.171   1.247   1.268
  1.276   1.324   1.337   1.355   1.407   1.408   1.411   1.439
  1.464   1.493   1.528   1.534   1.575   1.625   1.648   1.660
  1.668   1.686   1.691   1.750   1.811   1.893   1.895   2.204
  2.226   2.279   2.419   2.551   2.622   2.668   2.703   2.757
  2.860   2.935   3.148   3.187   3.236   3.240   3.253   3.284
  3.293   3.340   3.385   3.465   3.478   3.481   3.489   3.571
  3.582   3.607   3.684   3.731   3.801   3.803   3.810   3.897
  3.913   4.057   4.071   4.073   4.125   4.137   4.210   4.280
  4.353   4.400   4.461   4.465   4.477   4.528   4.532   4.603
  4.616   4.668   4.689   4.759   5.128   5.239   5.267   5.416
  5.440   5.659   5.737   5.777   5.810   5.911   5.917   6.064
  6.071   6.501   6.661   6.822   7.404   7.427   7.514   7.879
  7.973  24.458  24.469  28.081  28.158  28.170  28.192  28.240
 28.340  41.074  41.079  41.120  41.142  41.270  41.303  41.322
 41.368  41.368  41.371  43.953  44.010  44.036  44.120  44.164
 45.834  46.117  46.546  50.016
 
 Beta MOs
 -- Occupied --
-18.830 -10.003 -10.003  -1.044  -0.735  -0.642  -0.473  -0.472
 -0.469  -0.381  -0.363  -0.308  -0.243
 -- Virtual --
  0.133   0.142   0.162   0.167   0.178   0.188   0.208   0.240
  0.252   0.268   0.283   0.284   0.296   0.309   0.363   0.383
  0.384   0.412   0.413   0.414   0.464   0.464   0.477   0.506
  0.511   0.555   0.631   0.636   0.659   0.732   0.750   0.767
  0.774   0.784   0.791   0.798   0.808   0.844   0.863   0.865
  0.939   1.036   1.051   1.075   1.094   1.148   1.170   1.248
  1.268   1.277   1.325   1.337   1.355   1.406   1.408   1.411
  1.439   1.465   1.494   1.529   1.534   1.575   1.624   1.648
  1.661   1.669   1.686   1.690   1.750   1.810   1.893   1.895
  2.204   2.227   2.279   2.419   2.551   2.622   2.668   2.703
  2.757   2.860   2.935   3.148   3.187   3.236   3.241   3.253
  3.284   3.294   3.341   3.386   3.465   3.478   3.482   3.489
  3.571   3.583   3.607   3.684   3.733   3.801   3.803   3.811
  3.898   3.914   4.057   4.071   4.073   4.125   4.137   4.210
  4.280   4.353   4.401   4.461   4.465   4.477   4.528   4.532
  4.603   4.616   4.668   4.689   4.759   5.128   5.239   5.267
  5.417   5.440   5.659   5.737   5.778   5.810   5.911   5.917
  6.065   6.071   6.502   6.661   6.823   7.404   7.428   7.514
  7.879   7.974  24.459  24.469  28.081  28.159  28.170  28.192
 28.241  28.340  41.074  41.080  41.120  41.143  41.270  41.303
 41.322  41.368  41.368  41.371  43.953  44.010  44.036  44.120
 44.165  45.835  46.117  46.546  50.016
 --------------------------------------------------------------
 
          Ground-State Mulliken Net Atomic Charges

     Atom                 Charge (a.u.)    Spin (a.u.)
  --------------------------------------------------------
      1 C                     1.604190      -1.757647
      2 O                    -0.358046       0.197559
      3 C                     1.618988      -1.772622
      4 H                    -0.480378       0.556726
      5 H                    -0.727088       0.806063
      6 H                    -0.716008       0.794284
      7 H                    -0.485900       0.562429
      8 H                    -0.722252       0.800643
      9 H                    -0.733507       0.812565
  --------------------------------------------------------
  Sum of atomic charges =    -1.000000
  Sum of spin   charges =     1.000000

 -----------------------------------------------------------------
                    Cartesian Multipole Moments
 -----------------------------------------------------------------
    Charge (ESU x 10^10)
                -4.8032
    Dipole Moment (Debye)
         X      -5.9907      Y      -0.0776      Z      -2.8137
       Tot       6.6190
    Quadrupole Moments (Debye-Ang)
        XX     -54.5192     XY      -0.1396     YY     -49.4861
        XZ      -5.2564     YZ      -0.0171     ZZ     -50.1602
    Octapole Moments (Debye-Ang^2)
       XXX    -133.0366    XXY      -0.4922    XYY     -51.3012
       YYY      -0.9133    XXZ     -43.5554    XYZ      -0.0938
       YYZ     -35.6527    XZZ     -48.2268    YZZ      -0.2970
       ZZZ    -123.7962
    Hexadecapole Moments (Debye-Ang^3)
      XXXX    -676.7562   XXXY      -1.6076   XXYY    -194.9090
      XYYY      -1.4323   YYYY    -403.8841   XXXZ    -179.6631
      XXYZ      -0.3217   XYYZ     -63.0695   YYYZ      -0.3390
      XXZZ    -243.7710   XYZZ      -0.5248   YYZZ    -188.8243
      XZZZ    -189.5928   YZZZ      -0.3258   ZZZZ    -779.7051
 -----------------------------------------------------------------
 Total job time:  150.97s(wall), 115.53s(cpu) 
 Wed May 22 11:35:08 2013

        *************************************************************
        *                                                           *
        *  Thank you very much for using Q-Chem.  Have a nice day.  *
        *                                                           *
        *************************************************************


0 sent ACK to 0 
now end server 0 ... 
 
**********************************************************************
Job 2 of 3 
**********************************************************************
 
Process 0 of 1 is on cl205.stfx.acenet.ca - thread support 1
initial socket setup ...start
initial socket setup ...done 
now start server 0 ... 

cmd = /usr/bin/ssh clhead /usr/local/qchem/bin/get_hostid 1149810321 > /scratch/tmp/5998401.1.medium.q/qchem6655/lic.dat
                  Welcome to Q-Chem
     A Quantum Leap Into The Future Of Chemistry

 Y. Shao, L. Fusti-Molnar, Y. Jung, J. Kussmann, C. Ochsenfeld,
 S. T. Brown, A. T. B. Gilbert, L. V. Slipchenko,S. V. Levchenko,
 D. P. O'Neill, R. A. DiStasio Jr., R. C. Lochan, T. Wang,
 G. J. O. Beran, N. A. Besley, J. M. Herbert, C. Y. Lin,
 T. Van Voorhis, S. H. Chien, A. Sodt, R. P. Steele, 
 V. A. Rassolov, P. E. Maslen, P. P. Korambath, R. D. Adamson,
 B. Austin, J. Baker, E. F. C. Byrd, H. Dachsel, R. J. Doerksen,
 A. Dreuw, B. D. Dunietz, A. D. Dutoi, T. R. Furlani,
 S. R. Gwaltney, A. Heyden, S. Hirata, C.-P. Hsu, G. Kedziora,
 R. Z. Khaliullin, P. Klunzinger, A. M. Lee, M. S. Lee, W. Liang,
 I. Lotan, N. Nair, B. Peters, E. I. Proynov, P. A. Pieniazek, 
 Y. M. Rhee, J. Ritchie, E. Rosta, C. D. Sherrill, 
 A. C. Simmonett, J. E. Subotnik, H. L. Woodcock III,
 W. Zhang, A. T. Bell, A. K. Chakraborty, D. M. Chipman,
 F. J. Keil, A. Warshel, W. J. Hehre, H. F. Schaefer III,
 J. Kong, A. I. Krylov, P. M. W. Gill, M. Head-Gordon,
 Q-Chem, Version 3.1, Q-Chem, Inc., Pittsburgh, PA (2007).

 Additional authors for Version 3.1: 
 Z. Gan, Y. Zhao, N. E. Schultz, D. Truhlar, E. Epifanovsky and M. Oana.

 Additional authors for Version 3.2: 
 R. Baer, B. R. Brooks, D. Casanova, J.-D. Chai, C.-L. Cheng, 
 C. Cramer, D. Crittenden, A. Ghysels, G. Hawkins, E. G. Hohenstein, 
 C. Kelley, W. Kurlancheek, D. Liotard, E. Livshits, P. Manohar, 
 A. Marenich, D. Neuhauser, R. Olson, M. A. Rohrdanz, K. S. Thanthiriwatte, 
 A. J. W. Thom, V. Vanovschi, C. F. Williams, Q. Wu and Z.-Q. You. 


 Intel X86 Linux Version

 Q-chem begins on Wed May 22 11:35:11 2013  

 Parallel job on  1  processors
Processing $rem in /usr/local/qchem/config/preferences.

theFileMan(): MAXOPENFILES=974 MAX_SUB_FILE_NUM=16
Maximum size of a physical file is 2.0 GB, maximum size of a tmp-file is 32.0 GB


--------------------------------------------------------------
User input:
--------------------------------------------------------------

$molecule
0,1
C          0.00460        0.00000        0.00873
O          0.00048        0.00000        1.40945
C          1.29795        0.00000        1.93778
H         -1.03199        0.00000       -0.32612
H          0.50793        0.89058       -0.39015
H          0.50793       -0.89058       -0.39015
H          1.21429        0.00000        3.02388
H          1.85811       -0.89052        1.62353
H          1.85811        0.89052        1.62353
$end

$comment
neutral
$end

$xc_functional
C PBE   1.00
X wPBE  1.00
$end


$rem
SYMMETRY_DECOMPOSITION	0
LRC_DFT                 true
exchange 		general
BASIS                   g3large
omega			400
mem_static              760
max_scf_cycles          200
scf_final_print         1
sym_ignore              true
$end

--------------------------------------------------------------
 Writing REM_CC_EA            9
 ----------------------------------------------------
       Standard Nuclear Orientation (Angstroms)
    I     Atom         X            Y            Z
 ----------------------------------------------------
    1      C       0.004600     0.000000     0.008730
    2      O       0.000480     0.000000     1.409450
    3      C       1.297950     0.000000     1.937780
    4      H      -1.031990     0.000000    -0.326120
    5      H       0.507930     0.890580    -0.390150
    6      H       0.507930    -0.890580    -0.390150
    7      H       1.214290     0.000000     3.023880
    8      H       1.858110    -0.890520     1.623530
    9      H       1.858110     0.890520     1.623530
 ----------------------------------------------------
 Nuclear Repulsion Energy =    84.3356665048 hartrees
 There are       13 alpha and       13 beta electrons
 Requested basis set is G3large
 There are 66 shells and 186 basis functions

Total QAlloc Memory Limit   2000 MB
Mega-Array Size       743 MB
MEM_STATIC part       760 MB

                       Distance Matrix (Angstroms)
             C (  1)   O (  2)   C (  3)   H (  4)   H (  5)   H (  6)
   O (  2)  1.400726
   C (  3)  2.322496  1.400914
   H (  4)  1.089332  2.019455  3.248671
   H (  5)  1.097989  2.071038  2.614674  1.780052
   H (  6)  1.097989  2.071038  2.614674  1.780052  1.781160
   H (  7)  3.248766  2.019831  1.089317  4.033395  3.598288  3.598288
   H (  8)  2.614594  2.071146  1.097979  3.598172  3.008357  2.424437
   H (  9)  2.614594  2.071146  1.097979  3.598172  2.424437  3.008357
             H (  7)   H (  8)
   H (  8)  1.780031
   H (  9)  1.780031  1.781040
 
 A cutoff of  1.0D-08 yielded   2116 shell pairs
 There are  16946 function pairs ( 20471 Cartesian)
Evaluating contribution to one-electron hamiltonian from nuclear
 Smallest overlap matrix eigenvalue = 2.89E-04
 Multipole matrices computed through 2nd order

  Scale SEOQF with 1.000000e-01/1.000000e-01/1.000000e-01

 Standard Electronic Orientation quadrupole field applied
 Nucleus-field energy     =    -0.0000000048 hartrees
 Guess from superposition of atomic densities
 Warning:  Energy on first SCF cycle will be non-variational
 Long-range K will be added via erf
 Coulomb attenuation parameter = 0.4 bohr**(-1)
 A restricted Kohn-Sham SCF calculation will be
 performed using Pulay DIIS extrapolation
 Exchange:  wPBE + LR-HF      Correlation:  PBE
 Using SG-1 standard quadrature grid
 SCF converges when DIIS error is below 1.0E-05
 Requested basis set is G3large
 There are 66 shells and 186 basis functions
 A cutoff of  1.0D-08 yielded   2116 shell pairs
 There are  16946 function pairs ( 20471 Cartesian)
 ---------------------------------------
  Cycle       Energy         DIIS Error
 ---------------------------------------
    1    -155.5217558682      3.22E-02
    2    -154.9306822804      3.35E-03
    3    -154.9549346347      2.76E-03
    4    -154.9756039924      5.79E-04
    5    -154.9766663461      1.15E-04
    6    -154.9767418338      3.60E-05
    7    -154.9767471919      8.97E-06 Convergence criterion met
 ---------------------------------------
 One-Electron    Energy =  -376.7217153889
 Total Coulomb   Energy =   159.0121543128
 Alpha Exchange  Energy =    -2.5957572474
 Beta  Exchange  Energy =    -2.5957572474
 DFT   Exchange  Energy =   -15.5695410497
 DFT Correlation Energy =    -0.8417970714
 Nuclear Repu.   Energy =    84.3356665000
 Nuclear Attr.   Energy =  -531.0657420889
 Kinetic         Energy =   154.3440266999
 SCF time:  CPU 63.34 s  wall 84.21 s
 Final Alpha MO Eigenvalues
            1           2           3           4           5           6
    1 -18.9626966 -10.1401899 -10.1400335  -1.1766276  -0.8692099  -0.7786846
            7           8           9          10          11          12
    1  -0.6072807  -0.6058148  -0.6048690  -0.5181113  -0.4968748  -0.4408997
           13          14          15          16          17          18
    1  -0.3767159   0.0389794   0.0536843   0.0689646   0.0701376   0.0881592
 Analysis of SCF Wavefunction
 
 --------------------------------------------------------------
                    Orbital Energies (a.u.)
 --------------------------------------------------------------
 
 Alpha MOs
 -- Occupied --
-18.963 -10.140 -10.140  -1.177  -0.869  -0.779  -0.607  -0.606
 -0.605  -0.518  -0.497  -0.441  -0.377
 -- Virtual --
  0.039   0.054   0.069   0.070   0.088   0.095   0.105   0.140
  0.158   0.158   0.173   0.183   0.192   0.201   0.242   0.253
  0.265   0.283   0.293   0.294   0.341   0.348   0.360   0.387
  0.392   0.437   0.507   0.509   0.532   0.604   0.615   0.637
  0.650   0.657   0.665   0.670   0.681   0.716   0.733   0.738
  0.804   0.909   0.921   0.939   0.961   1.011   1.041   1.117
  1.134   1.140   1.189   1.207   1.225   1.274   1.275   1.280
  1.311   1.331   1.357   1.397   1.403   1.442   1.493   1.518
  1.526   1.531   1.553   1.557   1.617   1.678   1.760   1.764
  2.072   2.095   2.146   2.286   2.420   2.485   2.532   2.572
  2.625   2.725   2.799   3.013   3.051   3.100   3.106   3.119
  3.150   3.158   3.204   3.249   3.332   3.342   3.347   3.354
  3.436   3.448   3.472   3.549   3.596   3.666   3.668   3.676
  3.763   3.779   3.923   3.936   3.938   3.991   4.002   4.075
  4.143   4.218   4.264   4.327   4.328   4.341   4.392   4.395
  4.467   4.481   4.531   4.555   4.622   4.993   5.104   5.136
  5.285   5.307   5.527   5.604   5.641   5.675   5.775   5.783
  5.931   5.939   6.369   6.529   6.690   7.272   7.296   7.382
  7.747   7.842  24.322  24.332  27.945  28.022  28.033  28.055
 28.104  28.204  40.937  40.943  40.983  41.006  41.133  41.166
 41.185  41.231  41.232  41.234  43.821  43.878  43.904  43.988
 44.032  45.702  45.985  46.413  49.884
 --------------------------------------------------------------
 
          Ground-State Mulliken Net Atomic Charges

     Atom                 Charge (a.u.)
  ----------------------------------------
      1 C                    -0.158745
      2 O                    -0.153184
      3 C                    -0.158517
      4 H                     0.093476
      5 H                     0.070951
      6 H                     0.070828
      7 H                     0.093462
      8 H                     0.070789
      9 H                     0.070941
  ----------------------------------------
  Sum of atomic charges =     0.000000

 -----------------------------------------------------------------
                    Cartesian Multipole Moments
 -----------------------------------------------------------------
    Charge (ESU x 10^10)
                 0.0000
    Dipole Moment (Debye)
         X       1.1481      Y       0.0005      Z      -0.7687
       Tot       1.3817
    Quadrupole Moments (Debye-Ang)
        XX     -18.9450     XY       0.0011     YY     -20.0963
        XZ       2.7423     YZ      -0.0001     ZZ     -20.1910
    Octapole Moments (Debye-Ang^2)
       XXX     -31.6044    XXY       0.0013    XYY      -9.2832
       YYY       0.0023    XXZ     -19.8686    XYZ       0.0002
       YYZ     -22.1100    XZZ      -5.0254    YZZ       0.0003
       ZZZ     -59.4412
    Hexadecapole Moments (Debye-Ang^3)
      XXXX    -117.8699   XXXY       0.0035   XXYY     -24.2868
      XYYY       0.0049   YYYY     -34.5743   XXXZ     -58.3532
      XXYZ      -0.0003   XYYZ     -19.8264   YYYZ       0.0007
      XXZZ     -61.3042   XYZZ       0.0004   YYZZ     -52.2144
      XZZZ     -48.0316   YZZZ      -0.0020   ZZZZ    -243.4173
 -----------------------------------------------------------------
 Total job time:  84.43s(wall), 63.54s(cpu) 
 Wed May 22 11:36:36 2013

        *************************************************************
        *                                                           *
        *  Thank you very much for using Q-Chem.  Have a nice day.  *
        *                                                           *
        *************************************************************


0 sent ACK to 0 
now end server 0 ... 
 
**********************************************************************
Job 3 of 3 
**********************************************************************
 
Process 0 of 1 is on cl205.stfx.acenet.ca - thread support 1
initial socket setup ...start
initial socket setup ...done 
now start server 0 ... 

cmd = /usr/bin/ssh clhead /usr/local/qchem/bin/get_hostid 1535347525 > /scratch/tmp/5998401.1.medium.q/qchem6655/lic.dat
                  Welcome to Q-Chem
     A Quantum Leap Into The Future Of Chemistry

 Y. Shao, L. Fusti-Molnar, Y. Jung, J. Kussmann, C. Ochsenfeld,
 S. T. Brown, A. T. B. Gilbert, L. V. Slipchenko,S. V. Levchenko,
 D. P. O'Neill, R. A. DiStasio Jr., R. C. Lochan, T. Wang,
 G. J. O. Beran, N. A. Besley, J. M. Herbert, C. Y. Lin,
 T. Van Voorhis, S. H. Chien, A. Sodt, R. P. Steele, 
 V. A. Rassolov, P. E. Maslen, P. P. Korambath, R. D. Adamson,
 B. Austin, J. Baker, E. F. C. Byrd, H. Dachsel, R. J. Doerksen,
 A. Dreuw, B. D. Dunietz, A. D. Dutoi, T. R. Furlani,
 S. R. Gwaltney, A. Heyden, S. Hirata, C.-P. Hsu, G. Kedziora,
 R. Z. Khaliullin, P. Klunzinger, A. M. Lee, M. S. Lee, W. Liang,
 I. Lotan, N. Nair, B. Peters, E. I. Proynov, P. A. Pieniazek, 
 Y. M. Rhee, J. Ritchie, E. Rosta, C. D. Sherrill, 
 A. C. Simmonett, J. E. Subotnik, H. L. Woodcock III,
 W. Zhang, A. T. Bell, A. K. Chakraborty, D. M. Chipman,
 F. J. Keil, A. Warshel, W. J. Hehre, H. F. Schaefer III,
 J. Kong, A. I. Krylov, P. M. W. Gill, M. Head-Gordon,
 Q-Chem, Version 3.1, Q-Chem, Inc., Pittsburgh, PA (2007).

 Additional authors for Version 3.1: 
 Z. Gan, Y. Zhao, N. E. Schultz, D. Truhlar, E. Epifanovsky and M. Oana.

 Additional authors for Version 3.2: 
 R. Baer, B. R. Brooks, D. Casanova, J.-D. Chai, C.-L. Cheng, 
 C. Cramer, D. Crittenden, A. Ghysels, G. Hawkins, E. G. Hohenstein, 
 C. Kelley, W. Kurlancheek, D. Liotard, E. Livshits, P. Manohar, 
 A. Marenich, D. Neuhauser, R. Olson, M. A. Rohrdanz, K. S. Thanthiriwatte, 
 A. J. W. Thom, V. Vanovschi, C. F. Williams, Q. Wu and Z.-Q. You. 


 Intel X86 Linux Version

 Q-chem begins on Wed May 22 11:36:39 2013  

 Parallel job on  1  processors
Processing $rem in /usr/local/qchem/config/preferences.

theFileMan(): MAXOPENFILES=974 MAX_SUB_FILE_NUM=16
Maximum size of a physical file is 2.0 GB, maximum size of a tmp-file is 32.0 GB


--------------------------------------------------------------
User input:
--------------------------------------------------------------

$molecule
1,2
C          0.00460        0.00000        0.00873
O          0.00048        0.00000        1.40945
C          1.29795        0.00000        1.93778
H         -1.03199        0.00000       -0.32612
H          0.50793        0.89058       -0.39015
H          0.50793       -0.89058       -0.39015
H          1.21429        0.00000        3.02388
H          1.85811       -0.89052        1.62353
H          1.85811        0.89052        1.62353
$end

$comment
positive
$end

$xc_functional
C PBE   1.00
X wPBE  1.00
$end

$rem
SYMMETRY_DECOMPOSITION	0
LRC_DFT                 true
exchange 		general
BASIS                   g3large
omega			400
mem_static              760
max_scf_cycles          200
scf_final_print         1
sym_ignore              true
$end

--------------------------------------------------------------
 Writing REM_CC_EA            9
 ----------------------------------------------------
       Standard Nuclear Orientation (Angstroms)
    I     Atom         X            Y            Z
 ----------------------------------------------------
    1      C       0.004600     0.000000     0.008730
    2      O       0.000480     0.000000     1.409450
    3      C       1.297950     0.000000     1.937780
    4      H      -1.031990     0.000000    -0.326120
    5      H       0.507930     0.890580    -0.390150
    6      H       0.507930    -0.890580    -0.390150
    7      H       1.214290     0.000000     3.023880
    8      H       1.858110    -0.890520     1.623530
    9      H       1.858110     0.890520     1.623530
 ----------------------------------------------------
 Nuclear Repulsion Energy =    84.3356665048 hartrees
 There are       13 alpha and       12 beta electrons
 Requested basis set is G3large
 There are 66 shells and 186 basis functions

Total QAlloc Memory Limit   2000 MB
Mega-Array Size       743 MB
MEM_STATIC part       760 MB

                       Distance Matrix (Angstroms)
             C (  1)   O (  2)   C (  3)   H (  4)   H (  5)   H (  6)
   O (  2)  1.400726
   C (  3)  2.322496  1.400914
   H (  4)  1.089332  2.019455  3.248671
   H (  5)  1.097989  2.071038  2.614674  1.780052
   H (  6)  1.097989  2.071038  2.614674  1.780052  1.781160
   H (  7)  3.248766  2.019831  1.089317  4.033395  3.598288  3.598288
   H (  8)  2.614594  2.071146  1.097979  3.598172  3.008357  2.424437
   H (  9)  2.614594  2.071146  1.097979  3.598172  2.424437  3.008357
             H (  7)   H (  8)
   H (  8)  1.780031
   H (  9)  1.780031  1.781040
 
 A cutoff of  1.0D-08 yielded   2116 shell pairs
 There are  16946 function pairs ( 20471 Cartesian)
Evaluating contribution to one-electron hamiltonian from nuclear
 Smallest overlap matrix eigenvalue = 2.89E-04
 Multipole matrices computed through 2nd order

  Scale SEOQF with 1.000000e-01/1.000000e-01/1.000000e-01

 Standard Electronic Orientation quadrupole field applied
 Nucleus-field energy     =    -0.0000000048 hartrees
 Guess from superposition of atomic densities
 Warning:  Energy on first SCF cycle will be non-variational
 Long-range K will be added via erf
 Coulomb attenuation parameter = 0.4 bohr**(-1)
 An unrestricted Kohn-Sham SCF calculation will be
 performed using Pulay DIIS extrapolation
 Exchange:  wPBE + LR-HF      Correlation:  PBE
 Using SG-1 standard quadrature grid
 SCF converges when DIIS error is below 1.0E-05
 Requested basis set is G3large
 There are 66 shells and 186 basis functions
 A cutoff of  1.0D-08 yielded   2116 shell pairs
 There are  16946 function pairs ( 20471 Cartesian)
 Warning!  Inaccurate integrated density:
   Number of electrons =    25
   Numerical integral  =    25.999902102068
   Relative error      =     3.9996084083 %
 ---------------------------------------
  Cycle       Energy         DIIS Error
 ---------------------------------------
    1    -155.5217558682      3.22E-02
    2    -154.5416618993      3.16E-03
    3    -154.5860764449      1.88E-03
    4    -154.5984063184      7.73E-04
    5    -154.6012604294      2.12E-04
    6    -154.6022530122      1.29E-04
    7    -154.6028297375      7.32E-05
    8    -154.6032793671      3.78E-05
    9    -154.6034546249      2.58E-05
   10    -154.6035268283      1.56E-05
   11    -154.6035636511      4.66E-06 Convergence criterion met
 ---------------------------------------
 One-Electron    Energy =  -369.0178388747
 Total Coulomb   Energy =   151.3199894466
 Alpha Exchange  Energy =    -2.6168761531
 Beta  Exchange  Energy =    -2.3931951526
 DFT   Exchange  Energy =   -15.4265009100
 DFT Correlation Energy =    -0.8048085072
 Nuclear Repu.   Energy =    84.3356665000
 Nuclear Attr.   Energy =  -523.0637123561
 Kinetic         Energy =   154.0458734814
 <S^2> = 0.7550
 SCF time:  CPU 125.67 s  wall 150.19 s
 Final Alpha MO Eigenvalues
            1           2           3           4           5           6
    1 -19.3806071 -10.4044006 -10.4043792  -1.5425606  -1.1590687  -1.0590310
            7           8           9          10          11          12
    1  -0.9420064  -0.9094243  -0.8986618  -0.7872353  -0.7534302  -0.7475288
           13          14          15          16          17          18
    1  -0.7320843  -0.1117160  -0.0875818  -0.0794754  -0.0738477  -0.0627026
 Final Beta MO Eigenvalues
            1           2           3           4           5           6
    1 -19.3610930 -10.4045495 -10.4045200  -1.5025373  -1.1520350  -1.0386517
            7           8           9          10          11          12
    1  -0.8951594  -0.8898087  -0.8633992  -0.7592741  -0.7510776  -0.7351846
           13          14          15          16          17
    1  -0.3688470  -0.1102559  -0.0836834  -0.0786136  -0.0720525
 Analysis of SCF Wavefunction
 
 --------------------------------------------------------------
                    Orbital Energies (a.u.)
 --------------------------------------------------------------
 
 Alpha MOs
 -- Occupied --
-19.381 -10.404 -10.404  -1.543  -1.159  -1.059  -0.942  -0.909
 -0.899  -0.787  -0.753  -0.748  -0.732
 -- Virtual --
 -0.112  -0.088  -0.079  -0.074  -0.063  -0.042  -0.034  -0.025
 -0.024   0.006   0.019   0.019   0.033   0.043   0.051   0.057
  0.057   0.085   0.089   0.096   0.112   0.148   0.157   0.176
  0.195   0.216   0.293   0.298   0.312   0.358   0.392   0.423
  0.437   0.447   0.449   0.454   0.463   0.495   0.499   0.521
  0.551   0.680   0.680   0.711   0.724   0.776   0.779   0.878
  0.880   0.896   0.932   0.952   0.984   1.013   1.040   1.045
  1.060   1.094   1.098   1.145   1.147   1.202   1.262   1.279
  1.294   1.295   1.319   1.320   1.380   1.452   1.467   1.513
  1.762   1.785   1.824   1.982   2.122   2.220   2.260   2.324
  2.368   2.470   2.537   2.753   2.792   2.823   2.851   2.853
  2.876   2.883   2.939   2.982   3.067   3.073   3.081   3.091
  3.157   3.183   3.211   3.271   3.326   3.390   3.404   3.405
  3.484   3.504   3.646   3.664   3.671   3.728   3.734   3.804
  3.881   3.959   4.005   4.062   4.069   4.077   4.125   4.130
  4.206   4.221   4.258   4.295   4.359   4.709   4.719   4.829
  4.900   4.942   5.148   5.263   5.339   5.409   5.483   5.522
  5.575   5.592   6.045   6.180   6.350   6.852   6.888   6.965
  7.371   7.478  24.056  24.067  27.680  27.757  27.768  27.790
 27.840  27.940  40.673  40.677  40.719  40.740  40.868  40.901
 40.921  40.966  40.967  40.970  43.376  43.442  43.468  43.585
 43.631  45.261  45.578  46.006  49.470
 
 Beta MOs
 -- Occupied --
-19.361 -10.405 -10.405  -1.503  -1.152  -1.039  -0.895  -0.890
 -0.863  -0.759  -0.751  -0.735
 -- Virtual --
 -0.369  -0.110  -0.084  -0.079  -0.072  -0.062  -0.041  -0.033
 -0.022  -0.021   0.008   0.021   0.021   0.035   0.047   0.051
  0.059   0.063   0.089   0.092   0.098   0.116   0.160   0.161
  0.180   0.196   0.221   0.295   0.303   0.318   0.374   0.395
  0.424   0.441   0.448   0.451   0.457   0.464   0.497   0.505
  0.527   0.560   0.680   0.681   0.716   0.725   0.783   0.788
  0.881   0.900   0.904   0.953   0.958   0.988   1.029   1.045
  1.048   1.066   1.102   1.104   1.151   1.157   1.206   1.266
  1.286   1.297   1.297   1.323   1.325   1.388   1.455   1.493
  1.515   1.790   1.803   1.854   2.002   2.128   2.229   2.275
  2.326   2.374   2.476   2.543   2.758   2.797   2.832   2.851
  2.855   2.875   2.888   2.946   2.989   3.073   3.076   3.086
  3.095   3.165   3.186   3.214   3.282   3.330   3.396   3.407
  3.408   3.488   3.507   3.649   3.671   3.676   3.733   3.740
  3.808   3.888   3.969   4.013   4.073   4.083   4.083   4.137
  4.140   4.214   4.230   4.272   4.299   4.369   4.729   4.807
  4.840   4.952   4.985   5.202   5.279   5.362   5.415   5.501
  5.528   5.619   5.622   6.052   6.205   6.361   6.932   6.961
  7.044   7.404   7.493  24.056  24.067  27.679  27.757  27.769
 27.791  27.840  27.940  40.674  40.678  40.718  40.739  40.868
 40.901  40.920  40.966  40.967  40.970  43.438  43.491  43.518
 43.593  43.637  45.319  45.590  46.019  49.490
 --------------------------------------------------------------
 
          Ground-State Mulliken Net Atomic Charges

     Atom                 Charge (a.u.)    Spin (a.u.)
  --------------------------------------------------------
      1 C                    -0.136122      -0.018569
      2 O                     0.270016       0.740341
      3 C                    -0.136118      -0.018701
      4 H                     0.157106      -0.000647
      5 H                     0.171972       0.074521
      6 H                     0.172009       0.074556
      7 H                     0.157141      -0.000637
      8 H                     0.172103       0.074911
      9 H                     0.171894       0.074225
  --------------------------------------------------------
  Sum of atomic charges =     1.000000
  Sum of spin   charges =     1.000000

 -----------------------------------------------------------------
                    Cartesian Multipole Moments
 -----------------------------------------------------------------
    Charge (ESU x 10^10)
                 4.8032
    Dipole Moment (Debye)
         X       3.7211      Y      -0.0007      Z       4.2776
       Tot       5.6696
    Quadrupole Moments (Debye-Ang)
        XX     -11.0219     XY      -0.0030     YY     -15.2587
        XZ       7.3388     YZ       0.0009     ZZ      -6.7907
    Octapole Moments (Debye-Ang^2)
       XXX     -18.2069    XXY      -0.0051    XYY      -5.3368
       YYY      -0.0015    XXZ      -8.3737    XYZ      -0.0037
       YYZ     -17.9355    XZZ       6.4245    YZZ       0.0019
       ZZZ     -31.1146
    Hexadecapole Moments (Debye-Ang^3)
      XXXX     -79.1738   XXXY      -0.0122   XXYY     -14.7734
      XYYY      -0.0036   YYYY     -23.5191   XXXZ     -33.3770
      XXYZ      -0.0064   XYYZ     -14.5436   YYYZ      -0.0003
      XXZZ     -33.2427   XYZZ      -0.0049   YYZZ     -40.7771
      XZZZ     -17.6131   YZZZ       0.0077   ZZZZ    -160.4132
 -----------------------------------------------------------------
 Total job time:  150.40s(wall), 125.86s(cpu) 
 Wed May 22 11:39:09 2013

        *************************************************************
        *                                                           *
        *  Thank you very much for using Q-Chem.  Have a nice day.  *
        *                                                           *
        *************************************************************


0 sent ACK to 0 
now end server 0 ... 
