Process 0 of 1 is on cl136 - thread support 1
initial socket setup ...start
initial socket setup ...done 
now start server 0 ... 

cmd = /usr/bin/ssh clhead /usr/local/qchem/bin/get_hostid 423770831 > /tmp/1603314.1.medium.q/qchem16128/lic.dat

cmd = /usr/bin/ssh clhead /usr/local/qchem/bin/get_hostid 423770831 > /tmp/1603314.1.medium.q/qchem16128/lic.dat

cmd = /usr/bin/ssh clhead /usr/local/qchem/bin/get_hostid 423770831 > /tmp/1603314.1.medium.q/qchem16128/lic.dat

cmd = /usr/bin/ssh clhead /usr/local/qchem/bin/get_hostid 423770831 > /tmp/1603314.1.medium.q/qchem16128/lic.dat

cmd = /usr/bin/ssh clhead /usr/local/qchem/bin/get_hostid 423770831 > /tmp/1603314.1.medium.q/qchem16128/lic.dat
                  Welcome to Q-Chem
     A Quantum Leap Into The Future Of Chemistry

 Y. Shao, L. Fusti-Molnar, Y. Jung, J. Kussmann, C. Ochsenfeld,
 S. T. Brown, A. T. B. Gilbert, L. V. Slipchenko,S. V. Levchenko,
 D. P. O'Neill, R. A. DiStasio Jr., R. C. Lochan, T. Wang,
 G. J. O. Beran, N. A. Besley, J. M. Herbert, C. Y. Lin,
 T. Van Voorhis, S. H. Chien, A. Sodt, R. P. Steele, 
 V. A. Rassolov, P. E. Maslen, P. P. Korambath, R. D. Adamson,
 B. Austin, J. Baker, E. F. C. Byrd, H. Dachsel, R. J. Doerksen,
 A. Dreuw, B. D. Dunietz, A. D. Dutoi, T. R. Furlani,
 S. R. Gwaltney, A. Heyden, S. Hirata, C.-P. Hsu, G. Kedziora,
 R. Z. Khaliullin, P. Klunzinger, A. M. Lee, M. S. Lee, W. Liang,
 I. Lotan, N. Nair, B. Peters, E. I. Proynov, P. A. Pieniazek, 
 Y. M. Rhee, J. Ritchie, E. Rosta, C. D. Sherrill, 
 A. C. Simmonett, J. E. Subotnik, H. L. Woodcock III,
 W. Zhang, A. T. Bell, A. K. Chakraborty, D. M. Chipman,
 F. J. Keil, A. Warshel, W. J. Hehre, H. F. Schaefer III,
 J. Kong, A. I. Krylov, P. M. W. Gill, M. Head-Gordon,
 Q-Chem, Version 3.1, Q-Chem, Inc., Pittsburgh, PA (2007).

 Additional authors for Version 3.1: 
 Z. Gan, Y. Zhao, N. E. Schultz, D. Truhlar, E. Epifanovsky and M. Oana.

 Additional authors for Version 3.2: 
 R. Baer, B. R. Brooks, D. Casanova, J.-D. Chai, C.-L. Cheng, 
 C. Cramer, D. Crittenden, A. Ghysels, G. Hawkins, E. G. Hohenstein, 
 C. Kelley, W. Kurlancheek, D. Liotard, E. Livshits, P. Manohar, 
 A. Marenich, D. Neuhauser, R. Olson, M. A. Rohrdanz, K. S. Thanthiriwatte, 
 A. J. W. Thom, V. Vanovschi, C. F. Williams, Q. Wu and Z.-Q. You. 


 Intel X86 Linux Version

 Q-chem begins on Wed Mar 26 11:08:56 2014  

 Parallel job on  1  processors
Processing $rem in /usr/local/qchem/config/preferences.

theFileMan(): MAXOPENFILES=974 MAX_SUB_FILE_NUM=16
Maximum size of a physical file is 2.0 GB, maximum size of a tmp-file is 32.0 GB


--------------------------------------------------------------
User input:
--------------------------------------------------------------

$molecule
-1,1
C         -0.00017        0.00000       -0.00233
C          0.00868        0.00000        1.30341
H          0.93029        0.00000       -0.58611
H         -0.92923        0.00000       -0.57859
H          0.72813        0.00000        2.11653
$end

$comment
negative
$end

$xc_functional
C PBE   1.00
X wPBE  1.00
$end

$rem
SYMMETRY_DECOMPOSITION	0
exchange 		general
LRC_DFT                 true
BASIS                   g3large
omega			230
mem_static              760
max_scf_cycles          200
scf_final_print         1
sym_ignore              true
$end

--------------------------------------------------------------
 Writing REM_CC_EA            5
 ----------------------------------------------------
       Standard Nuclear Orientation (Angstroms)
    I     Atom         X            Y            Z
 ----------------------------------------------------
    1      C      -0.000170     0.000000    -0.002330
    2      C       0.008680     0.000000     1.303410
    3      H       0.930290     0.000000    -0.586110
    4      H      -0.929230     0.000000    -0.578590
    5      H       0.728130     0.000000     2.116530
 ----------------------------------------------------
 Nuclear Repulsion Energy =    28.3929478384 hartrees
 There are        8 alpha and        8 beta electrons
 Requested basis set is G3large
 There are 38 shells and 114 basis functions

Total QAlloc Memory Limit   2000 MB
Mega-Array Size       743 MB
MEM_STATIC part       760 MB

                       Distance Matrix (Angstroms)
             C (  1)   C (  2)   H (  3)   H (  4)
   C (  2)  1.305770
   H (  3)  1.098433  2.102297
   H (  4)  1.093265  2.102760  1.859535
   H (  5)  2.240533  1.085713  2.710190  3.163940
 
 A cutoff of  1.0D-08 yielded    732 shell pairs
 There are   6640 function pairs (  8147 Cartesian)
Evaluating contribution to one-electron hamiltonian from nuclear
 Smallest overlap matrix eigenvalue = 1.16E-04
 Multipole matrices computed through 2nd order

  Scale SEOQF with 1.000000e-01/1.000000e-01/1.000000e-01

 Standard Electronic Orientation quadrupole field applied
 Nucleus-field energy     =    -0.0000000016 hartrees
 Guess from superposition of atomic densities
 Warning:  Energy on first SCF cycle will be non-variational
 Long-range K will be added via erf
 Coulomb attenuation parameter = 0.23 bohr**(-1)
 A restricted Kohn-Sham SCF calculation will be
 performed using Pulay DIIS extrapolation
 Exchange:  wPBE + LR-HF      Correlation:  PBE
 Using SG-1 standard quadrature grid
 SCF converges when DIIS error is below 1.0E-05
 Requested basis set is G3large
 There are 38 shells and 114 basis functions
 A cutoff of  1.0D-08 yielded    732 shell pairs
 There are   6640 function pairs (  8147 Cartesian)
 Warning!  Inaccurate integrated density:
   Number of electrons =    16
   Numerical integral  =    14.999949395692
   Relative error      =    -6.2503162769 %
 ---------------------------------------
  Cycle       Energy         DIIS Error
 ---------------------------------------
    1     -78.0487043099      3.64E-02
    2     -77.6715307304      8.96E-03
    3     -77.5567009110      1.15E-02
    4     -77.8373032131      1.78E-03
    5     -77.8429341168      1.00E-03
    6     -77.8450733502      1.63E-04
    7     -77.8454930968      8.00E-05
    8     -77.8456441621      3.50E-05
    9     -77.8456827739      1.30E-05
   10     -77.8456863472      5.25E-06 Convergence criterion met
 ---------------------------------------
 One-Electron    Energy =  -163.5838422859
 Total Coulomb   Energy =    69.3437290571
 Alpha Exchange  Energy =    -0.9679687799
 Beta  Exchange  Energy =    -0.9679687799
 DFT   Exchange  Energy =    -9.5767349610
 DFT Correlation Energy =    -0.4858484346
 Nuclear Repu.   Energy =    28.3929478369
 Nuclear Attr.   Energy =  -241.2138268997
 Kinetic         Energy =    77.6299846138
 SCF time:  CPU 28.81 s  wall 30.50 s
 Final Alpha MO Eigenvalues
            1           2           3           4           5           6
    1  -9.7739689  -9.7377450  -0.5653042  -0.3835690  -0.2791954  -0.2468836
            7           8           9          10          11          12
    1  -0.1150102   0.0049176   0.1743478   0.1809126   0.1857519   0.2580030
           13
    1   0.2761116
 Analysis of SCF Wavefunction
 
 --------------------------------------------------------------
                    Orbital Energies (a.u.)
 --------------------------------------------------------------
 
 Alpha MOs
 -- Occupied --
 -9.774  -9.738  -0.565  -0.384  -0.279  -0.247  -0.115   0.005
 -- Virtual --
  0.174   0.181   0.186   0.258   0.276   0.277   0.296   0.334
  0.337   0.353   0.365   0.366   0.402   0.424   0.518   0.623
  0.711   0.737   0.765   0.800   0.811   0.834   0.877   0.886
  0.892   0.924   0.946   0.956   1.032   1.038   1.079   1.186
  1.226   1.257   1.332   1.391   1.449   1.485   1.600   1.627
  1.665   1.696   1.746   1.773   1.808   1.986   2.690   2.736
  2.903   2.929   2.936   2.959   3.023   3.040   3.085   3.141
  3.153   3.222   3.332   3.349   3.394   3.409   3.456   3.491
  3.494   3.571   3.584   3.637   3.675   3.757   3.871   3.967
  3.967   4.023   4.174   4.372   4.388   4.437   4.567   4.681
  4.721   4.867   5.060   5.377   5.507   5.649   5.800   6.393
 23.899  24.876  27.387  27.585  27.741  28.282  28.434  28.561
 40.999  41.064  41.100  41.290  41.292  41.333  41.407  41.437
 41.482  41.501
 --------------------------------------------------------------
 
          Ground-State Mulliken Net Atomic Charges

     Atom                 Charge (a.u.)
  ----------------------------------------
      1 C                    -0.658980
      2 C                    -0.298227
      3 H                    -0.116164
      4 H                     0.044528
      5 H                     0.028843
  ----------------------------------------
  Sum of atomic charges =    -1.000000

 -----------------------------------------------------------------
                    Cartesian Multipole Moments
 -----------------------------------------------------------------
    Charge (ESU x 10^10)
                -4.8032
    Dipole Moment (Debye)
         X       1.8288      Y      -0.0003      Z      -5.3288
       Tot       5.6338
    Quadrupole Moments (Debye-Ang)
        XX     -21.5685     XY       0.0011     YY     -19.9704
        XZ       5.8087     YZ      -0.0016     ZZ     -28.6267
    Octapole Moments (Debye-Ang^2)
       XXX       3.0820    XXY       0.0003    XYY       1.4614
       YYY       0.0003    XXZ     -18.8651    XYZ       0.0011
       YYZ     -13.9713    XZZ      11.0107    YZZ      -0.0026
       ZZZ     -56.1136
    Hexadecapole Moments (Debye-Ang^3)
      XXXX     -68.3392   XXXY       0.0028   XXYY     -18.3123
      XYYY       0.0024   YYYY     -40.5166   XXXZ      15.4380
      XXYZ      -0.0016   XYYZ       5.2497   YYYZ      -0.0056
      XXZZ     -54.5764   XYZZ       0.0049   YYZZ     -38.2920
      XZZZ      35.3428   YZZZ      -0.0109   ZZZZ    -212.5182
 -----------------------------------------------------------------
 Total job time:  30.69s(wall), 28.92s(cpu) 
 Wed Mar 26 11:09:26 2014

        *************************************************************
        *                                                           *
        *  Thank you very much for using Q-Chem.  Have a nice day.  *
        *                                                           *
        *************************************************************


0 sent ACK to 0 
now end server 0 ... 
 
**********************************************************************
Job 2 of 3 
**********************************************************************
 
Process 0 of 1 is on cl136 - thread support 1
initial socket setup ...start
initial socket setup ...done 
now start server 0 ... 

cmd = /usr/bin/ssh clhead /usr/local/qchem/bin/get_hostid 1269101295 > /tmp/1603314.1.medium.q/qchem16128/lic.dat

cmd = /usr/bin/ssh clhead /usr/local/qchem/bin/get_hostid 1269101295 > /tmp/1603314.1.medium.q/qchem16128/lic.dat

cmd = /usr/bin/ssh clhead /usr/local/qchem/bin/get_hostid 1269101295 > /tmp/1603314.1.medium.q/qchem16128/lic.dat

cmd = /usr/bin/ssh clhead /usr/local/qchem/bin/get_hostid 1269101295 > /tmp/1603314.1.medium.q/qchem16128/lic.dat

cmd = /usr/bin/ssh clhead /usr/local/qchem/bin/get_hostid 1269101295 > /tmp/1603314.1.medium.q/qchem16128/lic.dat
                  Welcome to Q-Chem
     A Quantum Leap Into The Future Of Chemistry

 Y. Shao, L. Fusti-Molnar, Y. Jung, J. Kussmann, C. Ochsenfeld,
 S. T. Brown, A. T. B. Gilbert, L. V. Slipchenko,S. V. Levchenko,
 D. P. O'Neill, R. A. DiStasio Jr., R. C. Lochan, T. Wang,
 G. J. O. Beran, N. A. Besley, J. M. Herbert, C. Y. Lin,
 T. Van Voorhis, S. H. Chien, A. Sodt, R. P. Steele, 
 V. A. Rassolov, P. E. Maslen, P. P. Korambath, R. D. Adamson,
 B. Austin, J. Baker, E. F. C. Byrd, H. Dachsel, R. J. Doerksen,
 A. Dreuw, B. D. Dunietz, A. D. Dutoi, T. R. Furlani,
 S. R. Gwaltney, A. Heyden, S. Hirata, C.-P. Hsu, G. Kedziora,
 R. Z. Khaliullin, P. Klunzinger, A. M. Lee, M. S. Lee, W. Liang,
 I. Lotan, N. Nair, B. Peters, E. I. Proynov, P. A. Pieniazek, 
 Y. M. Rhee, J. Ritchie, E. Rosta, C. D. Sherrill, 
 A. C. Simmonett, J. E. Subotnik, H. L. Woodcock III,
 W. Zhang, A. T. Bell, A. K. Chakraborty, D. M. Chipman,
 F. J. Keil, A. Warshel, W. J. Hehre, H. F. Schaefer III,
 J. Kong, A. I. Krylov, P. M. W. Gill, M. Head-Gordon,
 Q-Chem, Version 3.1, Q-Chem, Inc., Pittsburgh, PA (2007).

 Additional authors for Version 3.1: 
 Z. Gan, Y. Zhao, N. E. Schultz, D. Truhlar, E. Epifanovsky and M. Oana.

 Additional authors for Version 3.2: 
 R. Baer, B. R. Brooks, D. Casanova, J.-D. Chai, C.-L. Cheng, 
 C. Cramer, D. Crittenden, A. Ghysels, G. Hawkins, E. G. Hohenstein, 
 C. Kelley, W. Kurlancheek, D. Liotard, E. Livshits, P. Manohar, 
 A. Marenich, D. Neuhauser, R. Olson, M. A. Rohrdanz, K. S. Thanthiriwatte, 
 A. J. W. Thom, V. Vanovschi, C. F. Williams, Q. Wu and Z.-Q. You. 


 Intel X86 Linux Version

 Q-chem begins on Wed Mar 26 11:09:30 2014  

 Parallel job on  1  processors
Processing $rem in /usr/local/qchem/config/preferences.

theFileMan(): MAXOPENFILES=974 MAX_SUB_FILE_NUM=16
Maximum size of a physical file is 2.0 GB, maximum size of a tmp-file is 32.0 GB


--------------------------------------------------------------
User input:
--------------------------------------------------------------

$molecule
0,2
C         -0.00017        0.00000       -0.00233
C          0.00868        0.00000        1.30341
H          0.93029        0.00000       -0.58611
H         -0.92923        0.00000       -0.57859
H          0.72813        0.00000        2.11653
$end

$comment
neutral
$end

$xc_functional
C PBE   1.00
X wPBE  1.00
$end


$rem
SYMMETRY_DECOMPOSITION	0
LRC_DFT                 true
exchange 		general
BASIS                   g3large
omega			230
mem_static              760
max_scf_cycles          200
scf_final_print         1
sym_ignore              true
$end

--------------------------------------------------------------
 Writing REM_CC_EA            5
 ----------------------------------------------------
       Standard Nuclear Orientation (Angstroms)
    I     Atom         X            Y            Z
 ----------------------------------------------------
    1      C      -0.000170     0.000000    -0.002330
    2      C       0.008680     0.000000     1.303410
    3      H       0.930290     0.000000    -0.586110
    4      H      -0.929230     0.000000    -0.578590
    5      H       0.728130     0.000000     2.116530
 ----------------------------------------------------
 Nuclear Repulsion Energy =    28.3929478384 hartrees
 There are        8 alpha and        7 beta electrons
 Requested basis set is G3large
 There are 38 shells and 114 basis functions

Total QAlloc Memory Limit   2000 MB
Mega-Array Size       743 MB
MEM_STATIC part       760 MB

                       Distance Matrix (Angstroms)
             C (  1)   C (  2)   H (  3)   H (  4)
   C (  2)  1.305770
   H (  3)  1.098433  2.102297
   H (  4)  1.093265  2.102760  1.859535
   H (  5)  2.240533  1.085713  2.710190  3.163940
 
 A cutoff of  1.0D-08 yielded    732 shell pairs
 There are   6640 function pairs (  8147 Cartesian)
Evaluating contribution to one-electron hamiltonian from nuclear
 Smallest overlap matrix eigenvalue = 1.16E-04
 Multipole matrices computed through 2nd order

  Scale SEOQF with 1.000000e-01/1.000000e-01/1.000000e-01

 Standard Electronic Orientation quadrupole field applied
 Nucleus-field energy     =    -0.0000000016 hartrees
 Guess from superposition of atomic densities
 Warning:  Energy on first SCF cycle will be non-variational
 Long-range K will be added via erf
 Coulomb attenuation parameter = 0.23 bohr**(-1)
 An unrestricted Kohn-Sham SCF calculation will be
 performed using Pulay DIIS extrapolation
 Exchange:  wPBE + LR-HF      Correlation:  PBE
 Using SG-1 standard quadrature grid
 SCF converges when DIIS error is below 1.0E-05
 Requested basis set is G3large
 There are 38 shells and 114 basis functions
 A cutoff of  1.0D-08 yielded    732 shell pairs
 There are   6640 function pairs (  8147 Cartesian)
 ---------------------------------------
  Cycle       Energy         DIIS Error
 ---------------------------------------
    1     -78.0487043099      3.64E-02
    2     -77.8022226345      4.19E-03
    3     -77.8247324222      3.03E-03
    4     -77.8406911819      4.35E-04
    5     -77.8419217097      3.25E-04
    6     -77.8425369860      8.56E-05
    7     -77.8428112982      2.60E-05
    8     -77.8428645284      1.05E-05
    9     -77.8428787123      5.41E-06 Convergence criterion met
 ---------------------------------------
 One-Electron    Energy =  -159.7011700972
 Total Coulomb   Energy =    65.2588816195
 Alpha Exchange  Energy =    -0.9799652906
 Beta  Exchange  Energy =    -0.8587032096
 DFT   Exchange  Energy =    -9.4996993930
 DFT Correlation Energy =    -0.4551701783
 Nuclear Repu.   Energy =    28.3929478369
 Nuclear Attr.   Energy =  -237.1989970369
 Kinetic         Energy =    77.4978269398
 <S^2> = 0.7598
 SCF time:  CPU 30.19 s  wall 31.89 s
 Final Alpha MO Eigenvalues
            1           2           3           4           5           6
    1 -10.0405111 -10.0188391  -0.8317890  -0.6464938  -0.5361175  -0.5038756
            7           8           9          10          11          12
    1  -0.3708778  -0.3120493   0.0413504   0.0529623   0.0539434   0.0621589
           13
    1   0.1155694
 Final Beta MO Eigenvalues
            1           2           3           4           5           6
    1 -10.0263502 -10.0202471  -0.8165013  -0.6259276  -0.5212691  -0.4896911
            7           8           9          10          11          12
    1  -0.3624048  -0.0116996   0.0430235   0.0550846   0.0629419   0.0637229
 Analysis of SCF Wavefunction
 
 --------------------------------------------------------------
                    Orbital Energies (a.u.)
 --------------------------------------------------------------
 
 Alpha MOs
 -- Occupied --
-10.041 -10.019  -0.832  -0.646  -0.536  -0.504  -0.371  -0.312
 -- Virtual --
  0.041   0.053   0.054   0.062   0.116   0.127   0.133   0.168
  0.170   0.176   0.195   0.204   0.214   0.227   0.330   0.407
  0.493   0.512   0.551   0.566   0.585   0.607   0.648   0.652
  0.673   0.698   0.708   0.722   0.783   0.795   0.838   0.967
  0.990   1.036   1.102   1.150   1.211   1.247   1.364   1.388
  1.422   1.466   1.511   1.537   1.577   1.729   2.439   2.492
  2.635   2.671   2.678   2.698   2.752   2.764   2.796   2.868
  2.887   2.943   3.078   3.080   3.141   3.144   3.182   3.193
  3.229   3.308   3.311   3.351   3.399   3.485   3.605   3.692
  3.706   3.757   3.916   4.122   4.136   4.191   4.301   4.423
  4.456   4.596   4.790   5.110   5.238   5.384   5.554   6.119
 23.621  24.608  27.115  27.315  27.425  28.037  28.187  28.264
 40.726  40.755  40.854  41.007  41.024  41.062  41.122  41.164
 41.207  41.233
 
 Beta MOs
 -- Occupied --
-10.026 -10.020  -0.817  -0.626  -0.521  -0.490  -0.362
 -- Virtual --
 -0.012   0.043   0.055   0.063   0.064   0.117   0.131   0.141
  0.172   0.172   0.179   0.196   0.208   0.220   0.237   0.340
  0.418   0.505   0.528   0.557   0.576   0.591   0.629   0.658
  0.675   0.686   0.710   0.716   0.741   0.807   0.814   0.861
  0.975   1.002   1.041   1.108   1.171   1.228   1.258   1.378
  1.400   1.449   1.477   1.520   1.550   1.589   1.757   2.449
  2.504   2.665   2.683   2.689   2.708   2.771   2.794   2.840
  2.893   2.899   2.982   3.086   3.096   3.150   3.167   3.214
  3.247   3.250   3.330   3.340   3.391   3.432   3.516   3.623
  3.714   3.719   3.778   3.935   4.139   4.148   4.200   4.320
  4.435   4.477   4.618   4.801   5.132   5.252   5.405   5.565
  6.139  23.631  24.614  27.120  27.318  27.461  28.036  28.187
 28.273  40.734  40.783  40.852  41.025  41.030  41.064  41.139
 41.167  41.216  41.238
 --------------------------------------------------------------
 
          Ground-State Mulliken Net Atomic Charges

     Atom                 Charge (a.u.)    Spin (a.u.)
  --------------------------------------------------------
      1 C                    -0.229459      -0.117042
      2 C                    -0.072110       0.974859
      3 H                     0.081474       0.083693
      4 H                     0.105451       0.037861
      5 H                     0.114644       0.020629
  --------------------------------------------------------
  Sum of atomic charges =     0.000000
  Sum of spin   charges =     1.000000

 -----------------------------------------------------------------
                    Cartesian Multipole Moments
 -----------------------------------------------------------------
    Charge (ESU x 10^10)
                 0.0000
    Dipole Moment (Debye)
         X       0.6439      Y       0.0002      Z      -0.3533
       Tot       0.7345
    Quadrupole Moments (Debye-Ang)
        XX     -12.4085     XY       0.0007     YY     -14.9226
        XZ       1.6195     YZ      -0.0004     ZZ     -11.8129
    Octapole Moments (Debye-Ang^2)
       XXX      -0.9341    XXY       0.0002    XYY      -0.4461
       YYY       0.0006    XXZ      -8.7044    XYZ       0.0000
       YYZ      -8.9992    XZZ       3.1832    YZZ      -0.0004
       ZZZ     -20.4945
    Hexadecapole Moments (Debye-Ang^3)
      XXXX     -24.3025   XXXY       0.0013   XXYY      -7.7041
      XYYY       0.0008   YYYY     -19.0604   XXXZ      -1.4775
      XXYZ      -0.0002   XYYZ      -0.8377   YYYZ      -0.0008
      XXZZ     -18.7883   XYZZ       0.0022   YYZZ     -20.2338
      XZZZ       5.7517   YZZZ      -0.0024   ZZZZ     -86.2627
 -----------------------------------------------------------------
 Total job time:  32.04s(wall), 30.29s(cpu) 
 Wed Mar 26 11:10:02 2014

        *************************************************************
        *                                                           *
        *  Thank you very much for using Q-Chem.  Have a nice day.  *
        *                                                           *
        *************************************************************


0 sent ACK to 0 
now end server 0 ... 
 
**********************************************************************
Job 3 of 3 
**********************************************************************
 
Process 0 of 1 is on cl136 - thread support 1
initial socket setup ...start
initial socket setup ...done 
now start server 0 ... 

cmd = /usr/bin/ssh clhead /usr/local/qchem/bin/get_hostid 1071434159 > /tmp/1603314.1.medium.q/qchem16128/lic.dat

cmd = /usr/bin/ssh clhead /usr/local/qchem/bin/get_hostid 1071434159 > /tmp/1603314.1.medium.q/qchem16128/lic.dat

cmd = /usr/bin/ssh clhead /usr/local/qchem/bin/get_hostid 1071434159 > /tmp/1603314.1.medium.q/qchem16128/lic.dat

cmd = /usr/bin/ssh clhead /usr/local/qchem/bin/get_hostid 1071434159 > /tmp/1603314.1.medium.q/qchem16128/lic.dat

cmd = /usr/bin/ssh clhead /usr/local/qchem/bin/get_hostid 1071434159 > /tmp/1603314.1.medium.q/qchem16128/lic.dat
                  Welcome to Q-Chem
     A Quantum Leap Into The Future Of Chemistry

 Y. Shao, L. Fusti-Molnar, Y. Jung, J. Kussmann, C. Ochsenfeld,
 S. T. Brown, A. T. B. Gilbert, L. V. Slipchenko,S. V. Levchenko,
 D. P. O'Neill, R. A. DiStasio Jr., R. C. Lochan, T. Wang,
 G. J. O. Beran, N. A. Besley, J. M. Herbert, C. Y. Lin,
 T. Van Voorhis, S. H. Chien, A. Sodt, R. P. Steele, 
 V. A. Rassolov, P. E. Maslen, P. P. Korambath, R. D. Adamson,
 B. Austin, J. Baker, E. F. C. Byrd, H. Dachsel, R. J. Doerksen,
 A. Dreuw, B. D. Dunietz, A. D. Dutoi, T. R. Furlani,
 S. R. Gwaltney, A. Heyden, S. Hirata, C.-P. Hsu, G. Kedziora,
 R. Z. Khaliullin, P. Klunzinger, A. M. Lee, M. S. Lee, W. Liang,
 I. Lotan, N. Nair, B. Peters, E. I. Proynov, P. A. Pieniazek, 
 Y. M. Rhee, J. Ritchie, E. Rosta, C. D. Sherrill, 
 A. C. Simmonett, J. E. Subotnik, H. L. Woodcock III,
 W. Zhang, A. T. Bell, A. K. Chakraborty, D. M. Chipman,
 F. J. Keil, A. Warshel, W. J. Hehre, H. F. Schaefer III,
 J. Kong, A. I. Krylov, P. M. W. Gill, M. Head-Gordon,
 Q-Chem, Version 3.1, Q-Chem, Inc., Pittsburgh, PA (2007).

 Additional authors for Version 3.1: 
 Z. Gan, Y. Zhao, N. E. Schultz, D. Truhlar, E. Epifanovsky and M. Oana.

 Additional authors for Version 3.2: 
 R. Baer, B. R. Brooks, D. Casanova, J.-D. Chai, C.-L. Cheng, 
 C. Cramer, D. Crittenden, A. Ghysels, G. Hawkins, E. G. Hohenstein, 
 C. Kelley, W. Kurlancheek, D. Liotard, E. Livshits, P. Manohar, 
 A. Marenich, D. Neuhauser, R. Olson, M. A. Rohrdanz, K. S. Thanthiriwatte, 
 A. J. W. Thom, V. Vanovschi, C. F. Williams, Q. Wu and Z.-Q. You. 


 Intel X86 Linux Version

 Q-chem begins on Wed Mar 26 11:10:07 2014  

 Parallel job on  1  processors
Processing $rem in /usr/local/qchem/config/preferences.

theFileMan(): MAXOPENFILES=974 MAX_SUB_FILE_NUM=16
Maximum size of a physical file is 2.0 GB, maximum size of a tmp-file is 32.0 GB


--------------------------------------------------------------
User input:
--------------------------------------------------------------

$molecule
1,1
C         -0.00017        0.00000       -0.00233
C          0.00868        0.00000        1.30341
H          0.93029        0.00000       -0.58611
H         -0.92923        0.00000       -0.57859
H          0.72813        0.00000        2.11653
$end

$comment
positive
$end

$xc_functional
C PBE   1.00
X wPBE  1.00
$end

$rem
SYMMETRY_DECOMPOSITION	0
LRC_DFT                 true
exchange 		general
BASIS                   g3large
omega			230
mem_static              760
max_scf_cycles          200
scf_final_print         1
sym_ignore              true
$end

--------------------------------------------------------------
 Writing REM_CC_EA            5
 ----------------------------------------------------
       Standard Nuclear Orientation (Angstroms)
    I     Atom         X            Y            Z
 ----------------------------------------------------
    1      C      -0.000170     0.000000    -0.002330
    2      C       0.008680     0.000000     1.303410
    3      H       0.930290     0.000000    -0.586110
    4      H      -0.929230     0.000000    -0.578590
    5      H       0.728130     0.000000     2.116530
 ----------------------------------------------------
 Nuclear Repulsion Energy =    28.3929478384 hartrees
 There are        7 alpha and        7 beta electrons
 Requested basis set is G3large
 There are 38 shells and 114 basis functions

Total QAlloc Memory Limit   2000 MB
Mega-Array Size       743 MB
MEM_STATIC part       760 MB

                       Distance Matrix (Angstroms)
             C (  1)   C (  2)   H (  3)   H (  4)
   C (  2)  1.305770
   H (  3)  1.098433  2.102297
   H (  4)  1.093265  2.102760  1.859535
   H (  5)  2.240533  1.085713  2.710190  3.163940
 
 A cutoff of  1.0D-08 yielded    732 shell pairs
 There are   6640 function pairs (  8147 Cartesian)
Evaluating contribution to one-electron hamiltonian from nuclear
 Smallest overlap matrix eigenvalue = 1.16E-04
 Multipole matrices computed through 2nd order

  Scale SEOQF with 1.000000e-01/1.000000e-01/1.000000e-01

 Standard Electronic Orientation quadrupole field applied
 Nucleus-field energy     =    -0.0000000016 hartrees
 Guess from superposition of atomic densities
 Warning:  Energy on first SCF cycle will be non-variational
 Long-range K will be added via erf
 Coulomb attenuation parameter = 0.23 bohr**(-1)
 A restricted Kohn-Sham SCF calculation will be
 performed using Pulay DIIS extrapolation
 Exchange:  wPBE + LR-HF      Correlation:  PBE
 Using SG-1 standard quadrature grid
 SCF converges when DIIS error is below 1.0E-05
 Requested basis set is G3large
 There are 38 shells and 114 basis functions
 A cutoff of  1.0D-08 yielded    732 shell pairs
 There are   6640 function pairs (  8147 Cartesian)
 Warning!  Inaccurate integrated density:
   Number of electrons =    14
   Numerical integral  =    14.999949395692
   Relative error      =     7.1424956835 %
 ---------------------------------------
  Cycle       Energy         DIIS Error
 ---------------------------------------
    1     -78.0487043099      3.64E-02
    2     -77.4462429010      4.43E-03
    3     -77.4278714652      6.10E-03
    4     -77.4863224142      5.11E-04
    5     -77.4877995416      1.83E-04
    6     -77.4883622546      1.17E-04
    7     -77.4887814627      4.90E-05
    8     -77.4888262233      1.40E-05
    9     -77.4888308525      2.78E-06 Convergence criterion met
 ---------------------------------------
 One-Electron    Energy =  -154.8930213291
 Total Coulomb   Energy =    60.4547401673
 Alpha Exchange  Energy =    -0.8608288190
 Beta  Exchange  Energy =    -0.8608288190
 DFT   Exchange  Energy =    -9.2949121052
 DFT Correlation Energy =    -0.4269277844
 Nuclear Repu.   Energy =    28.3929478369
 Nuclear Attr.   Energy =  -231.9749793648
 Kinetic         Energy =    77.0819580357
 SCF time:  CPU 25.88 s  wall 27.32 s
 Final Alpha MO Eigenvalues
            1           2           3           4           5           6
    1 -10.4228571 -10.3358742  -1.1481093  -0.9492075  -0.8422127  -0.8016591
            7           8           9          10          11          12
    1  -0.6777434  -0.3891842  -0.2297383  -0.1225352  -0.1061754  -0.0888314
 Analysis of SCF Wavefunction
 
 --------------------------------------------------------------
                    Orbital Energies (a.u.)
 --------------------------------------------------------------
 
 Alpha MOs
 -- Occupied --
-10.423 -10.336  -1.148  -0.949  -0.842  -0.802  -0.678
 -- Virtual --
 -0.389  -0.230  -0.123  -0.106  -0.089  -0.060  -0.046  -0.030
 -0.022  -0.005   0.000   0.014   0.026   0.030   0.044   0.127
  0.164   0.261   0.279   0.293   0.314   0.336   0.364   0.402
  0.410   0.430   0.440   0.452   0.483   0.515   0.538   0.588
  0.711   0.737   0.786   0.842   0.889   0.952   0.981   1.102
  1.123   1.158   1.211   1.244   1.275   1.318   1.460   2.147
  2.209   2.339   2.352   2.384   2.386   2.450   2.454   2.492
  2.560   2.577   2.640   2.765   2.778   2.837   2.843   2.880
  2.883   2.925   3.000   3.011   3.043   3.094   3.181   3.296
  3.377   3.399   3.452   3.618   3.831   3.836   3.901   3.993
  4.122   4.151   4.288   4.472   4.802   4.921   5.076   5.260
  5.803  23.269  24.268  26.758  26.977  27.051  27.721  27.869
 27.888  40.372  40.380  40.535  40.633  40.664  40.740  40.751
 40.825  40.865  40.904
 --------------------------------------------------------------
 
          Ground-State Mulliken Net Atomic Charges

     Atom                 Charge (a.u.)
  ----------------------------------------
      1 C                    -0.000679
      2 C                     0.341265
      3 H                     0.218750
      4 H                     0.200374
      5 H                     0.240290
  ----------------------------------------
  Sum of atomic charges =     1.000000

 -----------------------------------------------------------------
                    Cartesian Multipole Moments
 -----------------------------------------------------------------
    Charge (ESU x 10^10)
                 4.8032
    Dipole Moment (Debye)
         X       0.5693      Y       0.0000      Z       3.2055
       Tot       3.2557
    Quadrupole Moments (Debye-Ang)
        XX      -7.3026     XY       0.0000     YY     -12.3115
        XZ       1.1367     YZ       0.0001     ZZ      -0.9709
    Octapole Moments (Debye-Ang^2)
       XXX      -0.5628    XXY       0.0000    XYY      -0.5396
       YYY       0.0000    XXZ      -5.4414    XYZ      -0.0001
       YYZ      -7.4486    XZZ       3.1195    YZZ       0.0001
       ZZZ      -2.1838
    Hexadecapole Moments (Debye-Ang^3)
      XXXX     -12.7108   XXXY       0.0000   XXYY      -4.9516
      XYYY       0.0000   YYYY     -12.5693   XXXZ      -1.4041
      XXYZ       0.0000   XYYZ      -1.1357   YYYZ       0.0001
      XXZZ      -7.4109   XYZZ      -0.0001   YYZZ     -15.1335
      XZZZ       5.8807   YZZZ       0.0002   ZZZZ     -36.6380
 -----------------------------------------------------------------
 Total job time:  27.48s(wall), 25.99s(cpu) 
 Wed Mar 26 11:10:34 2014

        *************************************************************
        *                                                           *
        *  Thank you very much for using Q-Chem.  Have a nice day.  *
        *                                                           *
        *************************************************************


0 sent ACK to 0 
now end server 0 ... 
