Process 0 of 1 is on cl165.stfx.acenet.ca - thread support 1
initial socket setup ...start
initial socket setup ...done 
now start server 0 ... 

cmd = /usr/bin/ssh clhead /usr/local/qchem/bin/get_hostid 1088228828 > /globalscratch/itamblyn/bnl/g297_b3lyp_neut_g03Large_worked/g2g71004/omega530/qchem12280/lic.dat
                  Welcome to Q-Chem
     A Quantum Leap Into The Future Of Chemistry

 Y. Shao, L. Fusti-Molnar, Y. Jung, J. Kussmann, C. Ochsenfeld,
 S. T. Brown, A. T. B. Gilbert, L. V. Slipchenko,S. V. Levchenko,
 D. P. O'Neill, R. A. DiStasio Jr., R. C. Lochan, T. Wang,
 G. J. O. Beran, N. A. Besley, J. M. Herbert, C. Y. Lin,
 T. Van Voorhis, S. H. Chien, A. Sodt, R. P. Steele, 
 V. A. Rassolov, P. E. Maslen, P. P. Korambath, R. D. Adamson,
 B. Austin, J. Baker, E. F. C. Byrd, H. Dachsel, R. J. Doerksen,
 A. Dreuw, B. D. Dunietz, A. D. Dutoi, T. R. Furlani,
 S. R. Gwaltney, A. Heyden, S. Hirata, C.-P. Hsu, G. Kedziora,
 R. Z. Khaliullin, P. Klunzinger, A. M. Lee, M. S. Lee, W. Liang,
 I. Lotan, N. Nair, B. Peters, E. I. Proynov, P. A. Pieniazek, 
 Y. M. Rhee, J. Ritchie, E. Rosta, C. D. Sherrill, 
 A. C. Simmonett, J. E. Subotnik, H. L. Woodcock III,
 W. Zhang, A. T. Bell, A. K. Chakraborty, D. M. Chipman,
 F. J. Keil, A. Warshel, W. J. Hehre, H. F. Schaefer III,
 J. Kong, A. I. Krylov, P. M. W. Gill, M. Head-Gordon,
 Q-Chem, Version 3.1, Q-Chem, Inc., Pittsburgh, PA (2007).

 Additional authors for Version 3.1: 
 Z. Gan, Y. Zhao, N. E. Schultz, D. Truhlar, E. Epifanovsky and M. Oana.

 Additional authors for Version 3.2: 
 R. Baer, B. R. Brooks, D. Casanova, J.-D. Chai, C.-L. Cheng, 
 C. Cramer, D. Crittenden, A. Ghysels, G. Hawkins, E. G. Hohenstein, 
 C. Kelley, W. Kurlancheek, D. Liotard, E. Livshits, P. Manohar, 
 A. Marenich, D. Neuhauser, R. Olson, M. A. Rohrdanz, K. S. Thanthiriwatte, 
 A. J. W. Thom, V. Vanovschi, C. F. Williams, Q. Wu and Z.-Q. You. 


 Intel X86 Linux Version

 Q-chem begins on Fri Apr 15 15:21:03 2011  

 Parallel job on  1  processors
Processing $rem in /usr/local/qchem/config/preferences.

theFileMan(): MAXOPENFILES=974 MAX_SUB_FILE_NUM=16
Maximum size of a physical file is 2.0 GB, maximum size of a tmp-file is 32.0 GB


--------------------------------------------------------------
User input:
--------------------------------------------------------------

$molecule
-1,2
C
H,1,CH
H,1,CH,2,HCH

CH=1.11942218
HCH=100.2755497

$end

$comment
negative
$end

$xc_functional
   X HF 1.0
   X BNL 1.0
   C LYP 1.0
$end

$rem
SYMMETRY_DECOMPOSITION	0
exchange 		general
BASIS                   g3large
omega			530
separate_jk		true
mem_static              760
max_scf_cycles          200
scf_final_print         1
sym_ignore              true
$end

--------------------------------------------------------------
 Writing REM_CC_EA            3
 ----------------------------------------------------
       Standard Nuclear Orientation (Angstroms)
    I     Atom         X            Y            Z
 ----------------------------------------------------
    1      C       0.000000     0.000000     0.000000
    2      H       0.000000     0.000000     1.119422
    3      H       1.101468     0.000000    -0.199685
 ----------------------------------------------------
 Nuclear Repulsion Energy =     5.9806103808 hartrees
 There are        5 alpha and        4 beta electrons
 Requested basis set is G3large
 There are 22 shells and 62 basis functions

Total QAlloc Memory Limit   2000 MB
Mega-Array Size       743 MB
MEM_STATIC part       760 MB

                       Distance Matrix (Angstroms)
             C (  1)   H (  2)
   H (  2)  1.119422
   H (  3)  1.119422  1.718510
 
 A cutoff of  1.0D-08 yielded    253 shell pairs
 There are   2043 function pairs (  2475 Cartesian)
Evaluating contribution to one-electron hamiltonian from nuclear
 Smallest overlap matrix eigenvalue = 3.40E-03
 Multipole matrices computed through 2nd order

  Scale SEOQF with 1.000000e-01/1.000000e-01/1.000000e-01

 Standard Electronic Orientation quadrupole field applied
 Guess from superposition of atomic densities
 Warning:  Energy on first SCF cycle will be non-variational
 An unrestricted hybrid HF-DFT SCF calculation will be
 performed using Pulay DIIS extrapolation
 Exchange:     1.0000 Hartree-Fock + 1.0000 BNL
 Correlation:  1.0000 LYP
 Using SG-1 standard quadrature grid
 SCF converges when DIIS error is below 1.0E-05
 Warning!  Inaccurate integrated density:
   Number of electrons =     9
   Numerical integral  =     7.999994824901
   Relative error      =   -11.1111686122 %
 ---------------------------------------
  Cycle       Energy         DIIS Error
 ---------------------------------------
    1     -38.5540946804      3.36E-02
    2     -38.6459663592      9.73E-03
    3     -38.7003742322      6.61E-03
    4     -38.7261939317      7.95E-04
    5     -38.7291013857      4.26E-04
    6     -38.7309472569      2.60E-04
    7     -38.7319407825      1.66E-04
    8     -38.7326424629      8.46E-05
    9     -38.7328179255      3.18E-05
   10     -38.7328379208      8.97E-06 Convergence criterion met
 ---------------------------------------
 One-Electron    Energy =   -66.0859708670
 Total Coulomb   Energy =    27.1420982141
 Alpha Exchange  Energy =    -1.1412808856
 Beta  Exchange  Energy =    -0.9260005779
 DFT   Exchange  Energy =    -3.4500848678
 DFT Correlation Energy =    -0.2522093174
 Nuclear Repu.   Energy =     5.9806103807
 Nuclear Attr.   Energy =  -104.5897942509
 Kinetic         Energy =    38.5038233840
 <S^2> = 0.7557
 SCF time:  CPU 8.23 s  wall 18.26 s
 Final Alpha MO Eigenvalues
            1           2           3           4           5           6
    1  -9.7724213  -0.5448623  -0.2423550  -0.0951104  -0.0667628   0.1803532
            7           8           9          10
    1   0.2046991   0.2954825   0.3020135   0.3170081
 Final Beta MO Eigenvalues
            1           2           3           4           5           6
    1  -9.7595415  -0.5007027  -0.2313933  -0.0680961   0.1793393   0.2035275
            7           8           9
    1   0.2370961   0.2988627   0.3150845
 Analysis of SCF Wavefunction
 
 --------------------------------------------------------------
                    Orbital Energies (a.u.)
 --------------------------------------------------------------
 
 Alpha MOs
 -- Occupied --
 -9.772  -0.545  -0.242  -0.095  -0.067
 -- Virtual --
  0.180   0.205   0.295   0.302   0.317   0.360   0.453   0.475
  0.755   0.842   0.887   0.916   0.931   0.947   0.950   0.993
  1.091   1.304   1.315   1.420   1.450   1.466   1.615   1.821
  1.832   2.790   2.791   3.074   3.276   3.298   3.309   3.356
  3.387   3.398   3.543   3.563   3.620   3.771   3.808   3.833
  4.135   4.194   4.501   4.566   4.581   4.669   5.434   5.923
 24.263  27.628  27.994  28.370  41.246  41.328  41.542  41.543
 41.573
 
 Beta MOs
 -- Occupied --
 -9.760  -0.501  -0.231  -0.068
 -- Virtual --
  0.179   0.204   0.237   0.299   0.315   0.361   0.387   0.456
  0.478   0.756   0.853   0.893   0.939   0.959   0.960   0.980
  1.026   1.110   1.305   1.335   1.435   1.462   1.471   1.620
  1.828   1.842   2.794   2.802   3.120   3.307   3.328   3.336
  3.394   3.405   3.421   3.552   3.582   3.661   3.817   3.852
  3.859   4.145   4.207   4.510   4.569   4.592   4.671   5.443
  5.932  24.281  27.651  28.003  28.379  41.272  41.337  41.563
 41.564  41.582
 --------------------------------------------------------------
 
          Ground-State Mulliken Net Atomic Charges

     Atom                 Charge (a.u.)    Spin (a.u.)
  --------------------------------------------------------
      1 C                    -1.002246       1.115929
      2 H                     0.001139      -0.057973
      3 H                     0.001107      -0.057956
  --------------------------------------------------------
  Sum of atomic charges =    -1.000000
  Sum of spin   charges =     1.000000

 -----------------------------------------------------------------
                    Cartesian Multipole Moments
 -----------------------------------------------------------------
    Charge (ESU x 10^10)
                -4.8032
    Dipole Moment (Debye)
         X       1.3212      Y      -0.0008      Z       1.1032
       Tot       1.7212
    Quadrupole Moments (Debye-Ang)
        XX     -13.8392     XY       0.0010     YY     -13.6219
        XZ      -1.3992     YZ      -0.0011     ZZ     -13.3318
    Octapole Moments (Debye-Ang^2)
       XXX      -0.6106    XXY      -0.0006    XYY       0.1173
       YYY      -0.0041    XXZ       0.0004    XYZ      -0.0002
       YYZ       0.0978    XZZ      -0.0923    YZZ      -0.0028
       ZZZ      -0.5877
    Hexadecapole Moments (Debye-Ang^3)
      XXXX     -41.2593   XXXY       0.0052   XXYY     -12.3811
      XYYY       0.0048   YYYY     -33.3725   XXXZ      -3.5368
      XXYZ      -0.0014   XYYZ      -1.1322   YYYZ      -0.0039
      XXZZ     -13.1707   XYZZ       0.0016   YYZZ     -11.9706
      XZZZ      -3.6211   YZZZ      -0.0047   ZZZZ     -38.6644
 -----------------------------------------------------------------
 Total job time:  33.13s(wall), 8.30s(cpu) 
 Fri Apr 15 15:21:37 2011

        *************************************************************
        *                                                           *
        *  Thank you very much for using Q-Chem.  Have a nice day.  *
        *                                                           *
        *************************************************************


0 sent ACK to 0 
now end server 0 ... 
 
**********************************************************************
Job 2 of 3 
**********************************************************************
 
Process 0 of 1 is on cl165.stfx.acenet.ca - thread support 1
initial socket setup ...start
initial socket setup ...done 
now start server 0 ... 

cmd = /usr/bin/ssh clhead /usr/local/qchem/bin/get_hostid 1806151877 > /globalscratch/itamblyn/bnl/g297_b3lyp_neut_g03Large_worked/g2g71004/omega530/qchem12280/lic.dat
                  Welcome to Q-Chem
     A Quantum Leap Into The Future Of Chemistry

 Y. Shao, L. Fusti-Molnar, Y. Jung, J. Kussmann, C. Ochsenfeld,
 S. T. Brown, A. T. B. Gilbert, L. V. Slipchenko,S. V. Levchenko,
 D. P. O'Neill, R. A. DiStasio Jr., R. C. Lochan, T. Wang,
 G. J. O. Beran, N. A. Besley, J. M. Herbert, C. Y. Lin,
 T. Van Voorhis, S. H. Chien, A. Sodt, R. P. Steele, 
 V. A. Rassolov, P. E. Maslen, P. P. Korambath, R. D. Adamson,
 B. Austin, J. Baker, E. F. C. Byrd, H. Dachsel, R. J. Doerksen,
 A. Dreuw, B. D. Dunietz, A. D. Dutoi, T. R. Furlani,
 S. R. Gwaltney, A. Heyden, S. Hirata, C.-P. Hsu, G. Kedziora,
 R. Z. Khaliullin, P. Klunzinger, A. M. Lee, M. S. Lee, W. Liang,
 I. Lotan, N. Nair, B. Peters, E. I. Proynov, P. A. Pieniazek, 
 Y. M. Rhee, J. Ritchie, E. Rosta, C. D. Sherrill, 
 A. C. Simmonett, J. E. Subotnik, H. L. Woodcock III,
 W. Zhang, A. T. Bell, A. K. Chakraborty, D. M. Chipman,
 F. J. Keil, A. Warshel, W. J. Hehre, H. F. Schaefer III,
 J. Kong, A. I. Krylov, P. M. W. Gill, M. Head-Gordon,
 Q-Chem, Version 3.1, Q-Chem, Inc., Pittsburgh, PA (2007).

 Additional authors for Version 3.1: 
 Z. Gan, Y. Zhao, N. E. Schultz, D. Truhlar, E. Epifanovsky and M. Oana.

 Additional authors for Version 3.2: 
 R. Baer, B. R. Brooks, D. Casanova, J.-D. Chai, C.-L. Cheng, 
 C. Cramer, D. Crittenden, A. Ghysels, G. Hawkins, E. G. Hohenstein, 
 C. Kelley, W. Kurlancheek, D. Liotard, E. Livshits, P. Manohar, 
 A. Marenich, D. Neuhauser, R. Olson, M. A. Rohrdanz, K. S. Thanthiriwatte, 
 A. J. W. Thom, V. Vanovschi, C. F. Williams, Q. Wu and Z.-Q. You. 


 Intel X86 Linux Version

 Q-chem begins on Fri Apr 15 15:21:44 2011  

 Parallel job on  1  processors
Processing $rem in /usr/local/qchem/config/preferences.

theFileMan(): MAXOPENFILES=974 MAX_SUB_FILE_NUM=16
Maximum size of a physical file is 2.0 GB, maximum size of a tmp-file is 32.0 GB


--------------------------------------------------------------
User input:
--------------------------------------------------------------

$molecule
0,1
C
H,1,CH
H,1,CH,2,HCH

CH=1.11942218
HCH=100.2755497

$end

$comment
neutral
$end

$xc_functional
   X HF 1.0
   X BNL 1.0
   C LYP 1.0
$end

$rem
SYMMETRY_DECOMPOSITION	0
exchange 		general
BASIS                   g3large
omega			530
separate_jk		true
mem_static              760
max_scf_cycles          200
scf_final_print         1
sym_ignore              true
$end

--------------------------------------------------------------
 Writing REM_CC_EA            3
 ----------------------------------------------------
       Standard Nuclear Orientation (Angstroms)
    I     Atom         X            Y            Z
 ----------------------------------------------------
    1      C       0.000000     0.000000     0.000000
    2      H       0.000000     0.000000     1.119422
    3      H       1.101468     0.000000    -0.199685
 ----------------------------------------------------
 Nuclear Repulsion Energy =     5.9806103808 hartrees
 There are        4 alpha and        4 beta electrons
 Requested basis set is G3large
 There are 22 shells and 62 basis functions

Total QAlloc Memory Limit   2000 MB
Mega-Array Size       743 MB
MEM_STATIC part       760 MB

                       Distance Matrix (Angstroms)
             C (  1)   H (  2)
   H (  2)  1.119422
   H (  3)  1.119422  1.718510
 
 A cutoff of  1.0D-08 yielded    253 shell pairs
 There are   2043 function pairs (  2475 Cartesian)
Evaluating contribution to one-electron hamiltonian from nuclear
 Smallest overlap matrix eigenvalue = 3.40E-03
 Multipole matrices computed through 2nd order

  Scale SEOQF with 1.000000e-01/1.000000e-01/1.000000e-01

 Standard Electronic Orientation quadrupole field applied
 Guess from superposition of atomic densities
 Warning:  Energy on first SCF cycle will be non-variational
 A restricted hybrid HF-DFT SCF calculation will be
 performed using Pulay DIIS extrapolation
 Exchange:     1.0000 Hartree-Fock + 1.0000 BNL
 Correlation:  1.0000 LYP
 Using SG-1 standard quadrature grid
 SCF converges when DIIS error is below 1.0E-05
 ---------------------------------------
  Cycle       Energy         DIIS Error
 ---------------------------------------
    1     -38.5540946804      3.36E-02
    2     -38.6510546330      4.09E-03
    3     -38.6716855831      1.73E-03
    4     -38.6784454164      1.13E-03
    5     -38.6847120978      7.25E-04
    6     -38.6882592110      3.80E-04
    7     -38.6891752673      1.82E-04
    8     -38.6894078833      6.75E-05
    9     -38.6894362578      1.22E-05
   10     -38.6894367094      2.85E-06 Convergence criterion met
 ---------------------------------------
 One-Electron    Energy =   -63.4916739100
 Total Coulomb   Energy =    24.3683677370
 Alpha Exchange  Energy =    -0.9579834782
 Beta  Exchange  Energy =    -0.9579834782
 DFT   Exchange  Energy =    -3.3980071405
 DFT Correlation Energy =    -0.2327668203
 Nuclear Repu.   Energy =     5.9806103807
 Nuclear Attr.   Energy =  -101.9164255995
 Kinetic         Energy =    38.4247516894
 SCF time:  CPU 7.33 s  wall 19.66 s
 Final Alpha MO Eigenvalues
            1           2           3           4           5           6
    1 -10.1240841  -0.8419158  -0.5484770  -0.3951321  -0.0286662   0.0334510
            7           8           9
    1   0.0659225   0.1210828   0.1297898
 Analysis of SCF Wavefunction
 
 --------------------------------------------------------------
                    Orbital Energies (a.u.)
 --------------------------------------------------------------
 
 Alpha MOs
 -- Occupied --
-10.124  -0.842  -0.548  -0.395
 -- Virtual --
 -0.029   0.033   0.066   0.121   0.130   0.147   0.170   0.233
  0.250   0.504   0.580   0.625   0.647   0.673   0.674   0.675
  0.718   0.821   1.036   1.039   1.142   1.170   1.191   1.341
  1.549   1.552   2.493   2.493   2.748   2.959   2.980   2.994
  3.038   3.078   3.088   3.239   3.254   3.306   3.452   3.491
  3.523   3.831   3.887   4.196   4.265   4.275   4.370   5.131
  5.615  23.916  27.273  27.647  28.021  40.891  40.979  41.188
 41.190  41.225
 --------------------------------------------------------------
 
          Ground-State Mulliken Net Atomic Charges

     Atom                 Charge (a.u.)
  ----------------------------------------
      1 C                    -0.203380
      2 H                     0.101692
      3 H                     0.101688
  ----------------------------------------
  Sum of atomic charges =     0.000000

 -----------------------------------------------------------------
                    Cartesian Multipole Moments
 -----------------------------------------------------------------
    Charge (ESU x 10^10)
                 0.0000
    Dipole Moment (Debye)
         X       1.5790      Y      -0.0001      Z       1.3184
       Tot       2.0571
    Quadrupole Moments (Debye-Ang)
        XX      -8.3020     XY       0.0001     YY      -6.6024
        XZ      -0.8334     YZ       0.0000     ZZ      -7.9998
    Octapole Moments (Debye-Ang^2)
       XXX      -0.1300    XXY       0.0000    XYY      -0.2554
       YYY      -0.0001    XXZ      -0.6106    XYZ       0.0000
       YYZ      -0.2132    XZZ      -0.4189    YZZ       0.0000
       ZZZ       0.1522
    Hexadecapole Moments (Debye-Ang^3)
      XXXX     -16.6810   XXXY       0.0001   XXYY      -4.1830
      XYYY       0.0001   YYYY      -6.6865   XXXZ      -0.9541
      XXYZ       0.0000   XYYZ      -0.1783   YYYZ       0.0001
      XXZZ      -6.0202   XYZZ       0.0000   YYZZ      -4.1183
      XZZZ      -0.6413   YZZZ       0.0001   ZZZZ     -16.1022
 -----------------------------------------------------------------
 Total job time:  25.29s(wall), 7.41s(cpu) 
 Fri Apr 15 15:22:09 2011

        *************************************************************
        *                                                           *
        *  Thank you very much for using Q-Chem.  Have a nice day.  *
        *                                                           *
        *************************************************************


0 sent ACK to 0 
now end server 0 ... 
 
**********************************************************************
Job 3 of 3 
**********************************************************************
 
Process 0 of 1 is on cl165.stfx.acenet.ca - thread support 1
initial socket setup ...start
initial socket setup ...done 
now start server 0 ... 

cmd = /usr/bin/ssh clhead /usr/local/qchem/bin/get_hostid 508122236 > /globalscratch/itamblyn/bnl/g297_b3lyp_neut_g03Large_worked/g2g71004/omega530/qchem12280/lic.dat
                  Welcome to Q-Chem
     A Quantum Leap Into The Future Of Chemistry

 Y. Shao, L. Fusti-Molnar, Y. Jung, J. Kussmann, C. Ochsenfeld,
 S. T. Brown, A. T. B. Gilbert, L. V. Slipchenko,S. V. Levchenko,
 D. P. O'Neill, R. A. DiStasio Jr., R. C. Lochan, T. Wang,
 G. J. O. Beran, N. A. Besley, J. M. Herbert, C. Y. Lin,
 T. Van Voorhis, S. H. Chien, A. Sodt, R. P. Steele, 
 V. A. Rassolov, P. E. Maslen, P. P. Korambath, R. D. Adamson,
 B. Austin, J. Baker, E. F. C. Byrd, H. Dachsel, R. J. Doerksen,
 A. Dreuw, B. D. Dunietz, A. D. Dutoi, T. R. Furlani,
 S. R. Gwaltney, A. Heyden, S. Hirata, C.-P. Hsu, G. Kedziora,
 R. Z. Khaliullin, P. Klunzinger, A. M. Lee, M. S. Lee, W. Liang,
 I. Lotan, N. Nair, B. Peters, E. I. Proynov, P. A. Pieniazek, 
 Y. M. Rhee, J. Ritchie, E. Rosta, C. D. Sherrill, 
 A. C. Simmonett, J. E. Subotnik, H. L. Woodcock III,
 W. Zhang, A. T. Bell, A. K. Chakraborty, D. M. Chipman,
 F. J. Keil, A. Warshel, W. J. Hehre, H. F. Schaefer III,
 J. Kong, A. I. Krylov, P. M. W. Gill, M. Head-Gordon,
 Q-Chem, Version 3.1, Q-Chem, Inc., Pittsburgh, PA (2007).

 Additional authors for Version 3.1: 
 Z. Gan, Y. Zhao, N. E. Schultz, D. Truhlar, E. Epifanovsky and M. Oana.

 Additional authors for Version 3.2: 
 R. Baer, B. R. Brooks, D. Casanova, J.-D. Chai, C.-L. Cheng, 
 C. Cramer, D. Crittenden, A. Ghysels, G. Hawkins, E. G. Hohenstein, 
 C. Kelley, W. Kurlancheek, D. Liotard, E. Livshits, P. Manohar, 
 A. Marenich, D. Neuhauser, R. Olson, M. A. Rohrdanz, K. S. Thanthiriwatte, 
 A. J. W. Thom, V. Vanovschi, C. F. Williams, Q. Wu and Z.-Q. You. 


 Intel X86 Linux Version

 Q-chem begins on Fri Apr 15 15:22:18 2011  

 Parallel job on  1  processors
Processing $rem in /usr/local/qchem/config/preferences.

theFileMan(): MAXOPENFILES=974 MAX_SUB_FILE_NUM=16
Maximum size of a physical file is 2.0 GB, maximum size of a tmp-file is 32.0 GB


--------------------------------------------------------------
User input:
--------------------------------------------------------------

$molecule
1,2
C
H,1,CH
H,1,CH,2,HCH

CH=1.11942218
HCH=100.2755497

$end

$comment
positive
$end

$xc_functional
   X HF 1.0
   X BNL 1.0
   C LYP 1.0
$end

$rem
SYMMETRY_DECOMPOSITION	0
exchange 		general
BASIS                   g3large
omega			530
separate_jk		true
mem_static              760
max_scf_cycles          200
scf_final_print         1
sym_ignore              true
$end

--------------------------------------------------------------
 Writing REM_CC_EA            3
 ----------------------------------------------------
       Standard Nuclear Orientation (Angstroms)
    I     Atom         X            Y            Z
 ----------------------------------------------------
    1      C       0.000000     0.000000     0.000000
    2      H       0.000000     0.000000     1.119422
    3      H       1.101468     0.000000    -0.199685
 ----------------------------------------------------
 Nuclear Repulsion Energy =     5.9806103808 hartrees
 There are        4 alpha and        3 beta electrons
 Requested basis set is G3large
 There are 22 shells and 62 basis functions

Total QAlloc Memory Limit   2000 MB
Mega-Array Size       743 MB
MEM_STATIC part       760 MB

                       Distance Matrix (Angstroms)
             C (  1)   H (  2)
   H (  2)  1.119422
   H (  3)  1.119422  1.718510
 
 A cutoff of  1.0D-08 yielded    253 shell pairs
 There are   2043 function pairs (  2475 Cartesian)
Evaluating contribution to one-electron hamiltonian from nuclear
 Smallest overlap matrix eigenvalue = 3.40E-03
 Multipole matrices computed through 2nd order

  Scale SEOQF with 1.000000e-01/1.000000e-01/1.000000e-01

 Standard Electronic Orientation quadrupole field applied
 Guess from superposition of atomic densities
 Warning:  Energy on first SCF cycle will be non-variational
 An unrestricted hybrid HF-DFT SCF calculation will be
 performed using Pulay DIIS extrapolation
 Exchange:     1.0000 Hartree-Fock + 1.0000 BNL
 Correlation:  1.0000 LYP
 Using SG-1 standard quadrature grid
 SCF converges when DIIS error is below 1.0E-05
 Warning!  Inaccurate integrated density:
   Number of electrons =     7
   Numerical integral  =     7.999994824901
   Relative error      =    14.2856403557 %
 ---------------------------------------
  Cycle       Energy         DIIS Error
 ---------------------------------------
    1     -38.5540946804      3.36E-02
    2     -38.2215316921      8.09E-03
    3     -38.2842946737      3.19E-03
    4     -38.2926948757      9.58E-04
    5     -38.2967978704      5.84E-04
    6     -38.2996415646      3.13E-04
    7     -38.3008374914      1.83E-04
    8     -38.3013450349      9.08E-05
    9     -38.3014810752      2.20E-05
   10     -38.3014858972      6.10E-06 Convergence criterion met
 ---------------------------------------
 One-Electron    Energy =   -60.3120050567
 Total Coulomb   Energy =    21.2832969019
 Alpha Exchange  Energy =    -0.9860179055
 Beta  Exchange  Energy =    -0.7465547665
 DFT   Exchange  Energy =    -3.3257191755
 DFT Correlation Energy =    -0.1950962756
 Nuclear Repu.   Energy =     5.9806103807
 Nuclear Attr.   Energy =   -98.3825642299
 Kinetic         Energy =    38.0705591732
 <S^2> = 0.7515
 SCF time:  CPU 8.27 s  wall 26.72 s
 Final Alpha MO Eigenvalues
            1           2           3           4           5           6
    1 -10.5870336  -1.2330202  -0.9280146  -0.8646293  -0.3935197  -0.1497932
            7           8           9
    1  -0.1054783  -0.0753698  -0.0707038
 Final Beta MO Eigenvalues
            1           2           3           4           5           6
    1 -10.5674752  -1.1860745  -0.9066249  -0.3890394  -0.3670175  -0.1488191
            7           8
    1  -0.0985576  -0.0698110
 Analysis of SCF Wavefunction
 
 --------------------------------------------------------------
                    Orbital Energies (a.u.)
 --------------------------------------------------------------
 
 Alpha MOs
 -- Occupied --
-10.587  -1.233  -0.928  -0.865
 -- Virtual --
 -0.394  -0.150  -0.105  -0.075  -0.071  -0.061  -0.015  -0.004
  0.013   0.230   0.275   0.319   0.330   0.349   0.350   0.375
  0.383   0.495   0.705   0.723   0.820   0.856   0.860   0.999
  1.224   1.233   2.141   2.142   2.341   2.539   2.575   2.615
  2.646   2.651   2.691   2.825   2.876   2.903   3.004   3.054
  3.072   3.411   3.483   3.838   3.900   3.916   3.993   4.753
  5.230  23.458  26.817  27.174  27.569  40.430  40.513  40.721
 40.734  40.760
 
 Beta MOs
 -- Occupied --
-10.567  -1.186  -0.907
 -- Virtual --
 -0.389  -0.367  -0.149  -0.099  -0.070  -0.068  -0.055  -0.015
  0.002   0.023   0.243   0.293   0.334   0.341   0.355   0.375
  0.392   0.396   0.514   0.715   0.730   0.828   0.863   0.877
  1.016   1.234   1.243   2.155   2.157   2.362   2.580   2.610
  2.632   2.673   2.698   2.719   2.874   2.893   2.930   3.066
  3.103   3.138   3.458   3.514   3.852   3.918   3.928   4.018
  4.773   5.255  23.483  26.830  27.205  27.584  40.448  40.540
 40.745  40.748  40.786
 --------------------------------------------------------------
 
          Ground-State Mulliken Net Atomic Charges

     Atom                 Charge (a.u.)    Spin (a.u.)
  --------------------------------------------------------
      1 C                     0.511123       0.935992
      2 H                     0.244372       0.031782
      3 H                     0.244505       0.032226
  --------------------------------------------------------
  Sum of atomic charges =     1.000000
  Sum of spin   charges =     1.000000

 -----------------------------------------------------------------
                    Cartesian Multipole Moments
 -----------------------------------------------------------------
    Charge (ESU x 10^10)
                 4.8032
    Dipole Moment (Debye)
         X       1.3037      Y       0.0000      Z       1.0886
       Tot       1.6984
    Quadrupole Moments (Debye-Ang)
        XX      -3.9176     XY      -0.0001     YY      -4.4831
        XZ      -0.0111     YZ      -0.0001     ZZ      -3.9158
    Octapole Moments (Debye-Ang^2)
       XXX       0.8189    XXY       0.0000    XYY      -0.6125
       YYY       0.0000    XXZ      -0.9232    XYZ       0.0000
       YYZ      -0.5114    XZZ      -0.4798    YZZ       0.0000
       ZZZ       1.2055
    Hexadecapole Moments (Debye-Ang^3)
      XXXX      -5.5942   XXXY       0.0000   XXYY      -2.0885
      XYYY       0.0000   YYYY      -3.2655   XXXZ      -0.0195
      XXYZ       0.0000   XYYZ       0.2033   YYYZ       0.0000
      XXZZ      -3.0631   XYZZ       0.0000   YYZZ      -2.1628
      XZZZ       0.6331   YZZZ      -0.0001   ZZZZ      -5.8212
 -----------------------------------------------------------------
 Total job time:  34.55s(wall), 8.37s(cpu) 
 Fri Apr 15 15:22:53 2011

        *************************************************************
        *                                                           *
        *  Thank you very much for using Q-Chem.  Have a nice day.  *
        *                                                           *
        *************************************************************


0 sent ACK to 0 
now end server 0 ... 
