Process 0 of 1 is on cl119.stfx.acenet.ca - thread support 1
initial socket setup ...start
initial socket setup ...done 
now start server 0 ... 

cmd = /usr/bin/ssh clhead /usr/local/qchem/bin/get_hostid 1355600770 > /scratch/tmp/5955781.1.short.q/qchem29164/lic.dat
                  Welcome to Q-Chem
     A Quantum Leap Into The Future Of Chemistry

 Y. Shao, L. Fusti-Molnar, Y. Jung, J. Kussmann, C. Ochsenfeld,
 S. T. Brown, A. T. B. Gilbert, L. V. Slipchenko,S. V. Levchenko,
 D. P. O'Neill, R. A. DiStasio Jr., R. C. Lochan, T. Wang,
 G. J. O. Beran, N. A. Besley, J. M. Herbert, C. Y. Lin,
 T. Van Voorhis, S. H. Chien, A. Sodt, R. P. Steele, 
 V. A. Rassolov, P. E. Maslen, P. P. Korambath, R. D. Adamson,
 B. Austin, J. Baker, E. F. C. Byrd, H. Dachsel, R. J. Doerksen,
 A. Dreuw, B. D. Dunietz, A. D. Dutoi, T. R. Furlani,
 S. R. Gwaltney, A. Heyden, S. Hirata, C.-P. Hsu, G. Kedziora,
 R. Z. Khaliullin, P. Klunzinger, A. M. Lee, M. S. Lee, W. Liang,
 I. Lotan, N. Nair, B. Peters, E. I. Proynov, P. A. Pieniazek, 
 Y. M. Rhee, J. Ritchie, E. Rosta, C. D. Sherrill, 
 A. C. Simmonett, J. E. Subotnik, H. L. Woodcock III,
 W. Zhang, A. T. Bell, A. K. Chakraborty, D. M. Chipman,
 F. J. Keil, A. Warshel, W. J. Hehre, H. F. Schaefer III,
 J. Kong, A. I. Krylov, P. M. W. Gill, M. Head-Gordon,
 Q-Chem, Version 3.1, Q-Chem, Inc., Pittsburgh, PA (2007).

 Additional authors for Version 3.1: 
 Z. Gan, Y. Zhao, N. E. Schultz, D. Truhlar, E. Epifanovsky and M. Oana.

 Additional authors for Version 3.2: 
 R. Baer, B. R. Brooks, D. Casanova, J.-D. Chai, C.-L. Cheng, 
 C. Cramer, D. Crittenden, A. Ghysels, G. Hawkins, E. G. Hohenstein, 
 C. Kelley, W. Kurlancheek, D. Liotard, E. Livshits, P. Manohar, 
 A. Marenich, D. Neuhauser, R. Olson, M. A. Rohrdanz, K. S. Thanthiriwatte, 
 A. J. W. Thom, V. Vanovschi, C. F. Williams, Q. Wu and Z.-Q. You. 


 Intel X86 Linux Version

 Q-chem begins on Tue Apr 30 21:21:49 2013  

 Parallel job on  1  processors
Processing $rem in /usr/local/qchem/config/preferences.

theFileMan(): MAXOPENFILES=974 MAX_SUB_FILE_NUM=16
Maximum size of a physical file is 2.0 GB, maximum size of a tmp-file is 32.0 GB


--------------------------------------------------------------
User input:
--------------------------------------------------------------

$molecule
-1,2
Si
O,1,sio

sio=1.52385166

$end

$comment
negative
$end

$xc_functional
C PBE   1.00
X wPBE  1.00
$end

$rem
SYMMETRY_DECOMPOSITION	0
exchange 		general
LRC_DFT                 true
BASIS                   g3large
omega			360
mem_static              760
max_scf_cycles          200
scf_final_print         1
sym_ignore              true
$end

--------------------------------------------------------------
 Writing REM_CC_EA            2
 ----------------------------------------------------
       Standard Nuclear Orientation (Angstroms)
    I     Atom         X            Y            Z
 ----------------------------------------------------
    1      Si      0.000000     0.000000     0.000000
    2      O       0.000000     0.000000     1.523852
 ----------------------------------------------------
 Nuclear Repulsion Energy =    38.8934495170 hartrees
 There are       12 alpha and       11 beta electrons
 Requested basis set is G3large
 There are 29 shells and 108 basis functions

Total QAlloc Memory Limit   2000 MB
Mega-Array Size       743 MB
MEM_STATIC part       760 MB

                       Distance Matrix (Angstroms)
             Si(  1)
   O (  2)  1.523852
 
 A cutoff of  1.0D-08 yielded    419 shell pairs
 There are   5935 function pairs (  8254 Cartesian)
Evaluating contribution to one-electron hamiltonian from nuclear
 Smallest overlap matrix eigenvalue = 5.61E-04
 Multipole matrices computed through 2nd order

  Scale SEOQF with 1.000000e-01/1.000000e-01/1.000000e-01

 Standard Electronic Orientation quadrupole field applied
 Nucleus-field energy     =    -0.0000000020 hartrees
 Guess from superposition of atomic densities
 Warning:  Energy on first SCF cycle will be non-variational
 Long-range K will be added via erf
 Coulomb attenuation parameter = 0.36 bohr**(-1)
 An unrestricted Kohn-Sham SCF calculation will be
 performed using Pulay DIIS extrapolation
 Exchange:  wPBE + LR-HF      Correlation:  PBE
 Using SG-1 standard quadrature grid
 SCF converges when DIIS error is below 1.0E-05
 Requested basis set is G3large
 There are 29 shells and 108 basis functions
 A cutoff of  1.0D-08 yielded    419 shell pairs
 There are   5935 function pairs (  8254 Cartesian)
 Warning!  Inaccurate integrated density:
   Number of electrons =    23
   Numerical integral  =    22.000000513883
   Relative error      =    -4.3478238527 %
 ---------------------------------------
  Cycle       Energy         DIIS Error
 ---------------------------------------
    1    -364.4638901234      3.15E-02
    2    -364.3604191392      1.27E-02
    3    -364.1517335619      1.89E-02
    4    -364.5838612993      8.57E-04
    5    -364.5861124987      3.52E-04
    6    -364.5865523736      1.12E-04
    7    -364.5866977209      4.50E-05
    8    -364.5867306800      1.50E-05
    9    -364.5867358198      4.00E-06 Convergence criterion met
 ---------------------------------------
 One-Electron    Energy =  -587.8744767566
 Total Coulomb   Energy =   213.8810474081
 Alpha Exchange  Energy =    -2.2002393542
 Beta  Exchange  Energy =    -2.0567514031
 DFT   Exchange  Energy =   -24.4305776513
 DFT Correlation Energy =    -0.7991875776
 Nuclear Repu.   Energy =    38.8934495150
 Nuclear Attr.   Energy =  -951.9257183392
 Kinetic         Energy =   364.0512415826
 <S^2> = 0.7589
 SCF time:  CPU 26.10 s  wall 28.25 s
 Final Alpha MO Eigenvalues
            1           2           3           4           5           6
    1 -65.3756840 -18.6798841  -5.0334337  -3.4418459  -3.4379277  -3.4331528
            7           8           9          10          11          12
    1  -0.8171038  -0.3253873  -0.2271538  -0.2165629  -0.1898794  -0.0106070
           13          14          15          16          17
    1   0.1817369   0.1868547   0.2158194   0.2269135   0.2537145
 Final Beta MO Eigenvalues
            1           2           3           4           5           6
    1 -65.3745708 -18.6761833  -5.0322633  -3.4410498  -3.4340803  -3.4329243
            7           8           9          10          11          12
    1  -0.8099349  -0.3077698  -0.2138458  -0.2000674  -0.1709628   0.1860293
           13          14          15          16
    1   0.1909258   0.1967443   0.2207554   0.2576255
 Analysis of SCF Wavefunction
 
 --------------------------------------------------------------
                    Orbital Energies (a.u.)
 --------------------------------------------------------------
 
 Alpha MOs
 -- Occupied --
-65.376 -18.680  -5.033  -3.442  -3.438  -3.433  -0.817  -0.325
 -0.227  -0.217  -0.190  -0.011
 -- Virtual --
  0.182   0.187   0.216   0.227   0.254   0.346   0.421   0.422
  0.433   0.448   0.450   0.450   0.539   0.544   0.546   0.552
  0.587   0.741   0.773   0.775   0.778   0.779   0.900   0.933
  0.935   0.967   1.081   1.082   1.123   1.125   1.308   1.422
  1.424   1.465   1.536   1.539   1.613   1.934   1.935   2.013
  2.108   2.110   2.420   2.420   2.437   2.438   2.708   2.795
  2.797   3.019   3.762   3.766   3.930   3.936   4.138   5.253
  5.254   5.359   5.359   5.365   5.423   5.424   5.767   5.770
  5.803   6.507   7.103   7.104   7.406   7.406   7.799  11.552
 11.555  12.440  17.649  17.788  17.865  17.867  17.923  22.391
 22.391  22.405  22.406  22.436  22.439  22.460  43.923  43.987
 44.084  44.085  44.141  45.859  45.860  46.360  50.025 141.019
 
 Beta MOs
 -- Occupied --
-65.375 -18.676  -5.032  -3.441  -3.434  -3.433  -0.810  -0.308
 -0.214  -0.200  -0.171
 -- Virtual --
  0.186   0.191   0.197   0.221   0.258   0.281   0.353   0.434
  0.447   0.449   0.451   0.457   0.458   0.547   0.553   0.564
  0.569   0.592   0.749   0.785   0.786   0.796   0.797   0.905
  0.936   0.952   0.976   1.099   1.099   1.123   1.139   1.311
  1.423   1.432   1.471   1.540   1.561   1.614   1.942   1.942
  2.017   2.109   2.123   2.442   2.442   2.449   2.449   2.715
  2.795   2.811   3.022   3.767   3.771   3.930   3.942   4.143
  5.257   5.270   5.369   5.369   5.370   5.430   5.431   5.769
  5.779   5.806   6.511   7.119   7.119   7.409   7.421   7.805
 11.553  11.562  12.440  17.652  17.791  17.865  17.870  17.924
 22.392  22.392  22.406  22.406  22.436  22.440  22.461  43.932
 43.996  44.086  44.094  44.145  45.862  45.870  46.362  50.029
141.020
 --------------------------------------------------------------
 
          Ground-State Mulliken Net Atomic Charges

     Atom                 Charge (a.u.)    Spin (a.u.)
  --------------------------------------------------------
      1 Si                   -0.376875       0.958443
      2 O                    -0.623125       0.041557
  --------------------------------------------------------
  Sum of atomic charges =    -1.000000
  Sum of spin   charges =     1.000000

 -----------------------------------------------------------------
                    Cartesian Multipole Moments
 -----------------------------------------------------------------
    Charge (ESU x 10^10)
                -4.8032
    Dipole Moment (Debye)
         X       0.0008      Y      -0.0003      Z      -2.7722
       Tot       2.7722
    Quadrupole Moments (Debye-Ang)
        XX     -26.1347     XY       4.0006     YY     -26.1538
        XZ       0.0001     YZ      -0.0005     ZZ     -32.3818
    Octapole Moments (Debye-Ang^2)
       XXX       0.0067    XXY      -0.0020    XYY       0.0019
       YYY      -0.0029    XXZ      -6.4288    XYZ      -1.4777
       YYZ      -6.4217    XZZ       0.0005    YZZ      -0.0004
       ZZZ     -37.3092
    Hexadecapole Moments (Debye-Ang^3)
      XXXX     -80.5831   XXXY      16.8653   XXYY     -26.9147
      XYYY      16.8655   YYYY     -80.7430   XXXZ       0.0008
      XXYZ      -0.0004   XYYZ       0.0004   YYYZ      -0.0022
      XXZZ     -37.3101   XYZZ       5.2758   YYZZ     -37.3351
      XZZZ       0.0002   YZZZ      -0.0016   ZZZZ    -166.1162
 -----------------------------------------------------------------
 Total job time:  28.41s(wall), 26.22s(cpu) 
 Tue Apr 30 21:22:17 2013

        *************************************************************
        *                                                           *
        *  Thank you very much for using Q-Chem.  Have a nice day.  *
        *                                                           *
        *************************************************************


0 sent ACK to 0 
now end server 0 ... 
 
**********************************************************************
Job 2 of 3 
**********************************************************************
 
Process 0 of 1 is on cl119.stfx.acenet.ca - thread support 1
initial socket setup ...start
initial socket setup ...done 
now start server 0 ... 

cmd = /usr/bin/ssh clhead /usr/local/qchem/bin/get_hostid 1588244369 > /scratch/tmp/5955781.1.short.q/qchem29164/lic.dat
                  Welcome to Q-Chem
     A Quantum Leap Into The Future Of Chemistry

 Y. Shao, L. Fusti-Molnar, Y. Jung, J. Kussmann, C. Ochsenfeld,
 S. T. Brown, A. T. B. Gilbert, L. V. Slipchenko,S. V. Levchenko,
 D. P. O'Neill, R. A. DiStasio Jr., R. C. Lochan, T. Wang,
 G. J. O. Beran, N. A. Besley, J. M. Herbert, C. Y. Lin,
 T. Van Voorhis, S. H. Chien, A. Sodt, R. P. Steele, 
 V. A. Rassolov, P. E. Maslen, P. P. Korambath, R. D. Adamson,
 B. Austin, J. Baker, E. F. C. Byrd, H. Dachsel, R. J. Doerksen,
 A. Dreuw, B. D. Dunietz, A. D. Dutoi, T. R. Furlani,
 S. R. Gwaltney, A. Heyden, S. Hirata, C.-P. Hsu, G. Kedziora,
 R. Z. Khaliullin, P. Klunzinger, A. M. Lee, M. S. Lee, W. Liang,
 I. Lotan, N. Nair, B. Peters, E. I. Proynov, P. A. Pieniazek, 
 Y. M. Rhee, J. Ritchie, E. Rosta, C. D. Sherrill, 
 A. C. Simmonett, J. E. Subotnik, H. L. Woodcock III,
 W. Zhang, A. T. Bell, A. K. Chakraborty, D. M. Chipman,
 F. J. Keil, A. Warshel, W. J. Hehre, H. F. Schaefer III,
 J. Kong, A. I. Krylov, P. M. W. Gill, M. Head-Gordon,
 Q-Chem, Version 3.1, Q-Chem, Inc., Pittsburgh, PA (2007).

 Additional authors for Version 3.1: 
 Z. Gan, Y. Zhao, N. E. Schultz, D. Truhlar, E. Epifanovsky and M. Oana.

 Additional authors for Version 3.2: 
 R. Baer, B. R. Brooks, D. Casanova, J.-D. Chai, C.-L. Cheng, 
 C. Cramer, D. Crittenden, A. Ghysels, G. Hawkins, E. G. Hohenstein, 
 C. Kelley, W. Kurlancheek, D. Liotard, E. Livshits, P. Manohar, 
 A. Marenich, D. Neuhauser, R. Olson, M. A. Rohrdanz, K. S. Thanthiriwatte, 
 A. J. W. Thom, V. Vanovschi, C. F. Williams, Q. Wu and Z.-Q. You. 


 Intel X86 Linux Version

 Q-chem begins on Tue Apr 30 21:22:20 2013  

 Parallel job on  1  processors
Processing $rem in /usr/local/qchem/config/preferences.

theFileMan(): MAXOPENFILES=974 MAX_SUB_FILE_NUM=16
Maximum size of a physical file is 2.0 GB, maximum size of a tmp-file is 32.0 GB


--------------------------------------------------------------
User input:
--------------------------------------------------------------

$molecule
0,1
Si
O,1,sio

sio=1.52385166

$end

$comment
neutral
$end

$xc_functional
C PBE   1.00
X wPBE  1.00
$end


$rem
SYMMETRY_DECOMPOSITION	0
LRC_DFT                 true
exchange 		general
BASIS                   g3large
omega			360
mem_static              760
max_scf_cycles          200
scf_final_print         1
sym_ignore              true
$end

--------------------------------------------------------------
 Writing REM_CC_EA            2
 ----------------------------------------------------
       Standard Nuclear Orientation (Angstroms)
    I     Atom         X            Y            Z
 ----------------------------------------------------
    1      Si      0.000000     0.000000     0.000000
    2      O       0.000000     0.000000     1.523852
 ----------------------------------------------------
 Nuclear Repulsion Energy =    38.8934495170 hartrees
 There are       11 alpha and       11 beta electrons
 Requested basis set is G3large
 There are 29 shells and 108 basis functions

Total QAlloc Memory Limit   2000 MB
Mega-Array Size       743 MB
MEM_STATIC part       760 MB

                       Distance Matrix (Angstroms)
             Si(  1)
   O (  2)  1.523852
 
 A cutoff of  1.0D-08 yielded    419 shell pairs
 There are   5935 function pairs (  8254 Cartesian)
Evaluating contribution to one-electron hamiltonian from nuclear
 Smallest overlap matrix eigenvalue = 5.61E-04
 Multipole matrices computed through 2nd order

  Scale SEOQF with 1.000000e-01/1.000000e-01/1.000000e-01

 Standard Electronic Orientation quadrupole field applied
 Nucleus-field energy     =    -0.0000000020 hartrees
 Guess from superposition of atomic densities
 Warning:  Energy on first SCF cycle will be non-variational
 Long-range K will be added via erf
 Coulomb attenuation parameter = 0.36 bohr**(-1)
 A restricted Kohn-Sham SCF calculation will be
 performed using Pulay DIIS extrapolation
 Exchange:  wPBE + LR-HF      Correlation:  PBE
 Using SG-1 standard quadrature grid
 SCF converges when DIIS error is below 1.0E-05
 Requested basis set is G3large
 There are 29 shells and 108 basis functions
 A cutoff of  1.0D-08 yielded    419 shell pairs
 There are   5935 function pairs (  8254 Cartesian)
 ---------------------------------------
  Cycle       Energy         DIIS Error
 ---------------------------------------
    1    -364.4638901234      3.15E-02
    2    -364.3998593416      1.19E-02
    3    -364.1187820290      2.00E-02
    4    -364.5782036181      5.57E-04
    5    -364.5792534054      2.40E-04
    6    -364.5794685330      8.54E-05
    7    -364.5795262595      3.48E-05
    8    -364.5795358854      7.40E-06 Convergence criterion met
 ---------------------------------------
 One-Electron    Energy =  -582.4409440334
 Total Coulomb   Energy =   208.2360803037
 Alpha Exchange  Energy =    -2.0646656836
 Beta  Exchange  Energy =    -2.0646656836
 DFT   Exchange  Energy =   -24.3615621189
 DFT Correlation Energy =    -0.7772281846
 Nuclear Repu.   Energy =    38.8934495150
 Nuclear Attr.   Energy =  -946.3486553082
 Kinetic         Energy =   363.9077112748
 SCF time:  CPU 20.36 s  wall 22.82 s
 Final Alpha MO Eigenvalues
            1           2           3           4           5           6
    1 -65.6376160 -18.9249657  -5.2951215  -3.7021505  -3.7021451  -3.6932810
            7           8           9          10          11          12
    1  -1.0515284  -0.5541488  -0.4457820  -0.4457740  -0.4184311  -0.0026151
           13          14          15          16
    1  -0.0026131   0.0514649   0.0657935   0.0895079
 Analysis of SCF Wavefunction
 
 --------------------------------------------------------------
                    Orbital Energies (a.u.)
 --------------------------------------------------------------
 
 Alpha MOs
 -- Occupied --
-65.638 -18.925  -5.295  -3.702  -3.702  -3.693  -1.052  -0.554
 -0.446  -0.446  -0.418
 -- Virtual --
 -0.003  -0.003   0.051   0.066   0.090   0.090   0.159   0.230
  0.230   0.271   0.280   0.280   0.282   0.350   0.350   0.359
  0.359   0.399   0.526   0.569   0.569   0.578   0.578   0.697
  0.729   0.729   0.763   0.842   0.842   0.888   0.888   1.093
  1.217   1.217   1.240   1.305   1.305   1.384   1.712   1.712
  1.790   1.874   1.874   2.171   2.171   2.188   2.188   2.461
  2.554   2.554   2.795   3.502   3.506   3.678   3.678   3.887
  5.023   5.023   5.128   5.129   5.129   5.192   5.193   5.535
  5.535   5.562   6.260   6.871   6.871   7.173   7.173   7.567
 11.294  11.294  12.183  17.387  17.526  17.605  17.605  17.662
 22.128  22.128  22.144  22.144  22.177  22.177  22.200  43.680
 43.744  43.842  43.842  43.898  45.616  45.616  46.115  49.781
140.758
 --------------------------------------------------------------
 
          Ground-State Mulliken Net Atomic Charges

     Atom                 Charge (a.u.)
  ----------------------------------------
      1 Si                    0.440809
      2 O                    -0.440809
  ----------------------------------------
  Sum of atomic charges =     0.000000

 -----------------------------------------------------------------
                    Cartesian Multipole Moments
 -----------------------------------------------------------------
    Charge (ESU x 10^10)
                 0.0000
    Dipole Moment (Debye)
         X       0.0000      Y       0.0000      Z      -3.2564
       Tot       3.2564
    Quadrupole Moments (Debye-Ang)
        XX     -16.2977     XY       0.0004     YY     -16.2977
        XZ      -0.0001     YZ      -0.0001     ZZ     -24.1223
    Octapole Moments (Debye-Ang^2)
       XXX       0.0002    XXY       0.0000    XYY       0.0001
       YYY       0.0000    XXZ      -8.8992    XYZ      -0.0001
       YYZ      -8.8992    XZZ      -0.0001    YZZ      -0.0001
       ZZZ     -35.0832
    Hexadecapole Moments (Debye-Ang^3)
      XXXX     -21.2615   XXXY       0.0008   XXYY      -7.0872
      XYYY       0.0008   YYYY     -21.2614   XXXZ      -0.0001
      XXYZ      -0.0001   XYYZ       0.0000   YYYZ      -0.0002
      XXZZ     -22.2160   XYZZ      -0.0001   YYZZ     -22.2160
      XZZZ      -0.0006   YZZZ      -0.0004   ZZZZ    -123.9687
 -----------------------------------------------------------------
 Total job time:  22.95s(wall), 20.48s(cpu) 
 Tue Apr 30 21:22:43 2013

        *************************************************************
        *                                                           *
        *  Thank you very much for using Q-Chem.  Have a nice day.  *
        *                                                           *
        *************************************************************


0 sent ACK to 0 
now end server 0 ... 
 
**********************************************************************
Job 3 of 3 
**********************************************************************
 
Process 0 of 1 is on cl119.stfx.acenet.ca - thread support 1
initial socket setup ...start
initial socket setup ...done 
now start server 0 ... 

cmd = /usr/bin/ssh clhead /usr/local/qchem/bin/get_hostid 425002919 > /scratch/tmp/5955781.1.short.q/qchem29164/lic.dat
                  Welcome to Q-Chem
     A Quantum Leap Into The Future Of Chemistry

 Y. Shao, L. Fusti-Molnar, Y. Jung, J. Kussmann, C. Ochsenfeld,
 S. T. Brown, A. T. B. Gilbert, L. V. Slipchenko,S. V. Levchenko,
 D. P. O'Neill, R. A. DiStasio Jr., R. C. Lochan, T. Wang,
 G. J. O. Beran, N. A. Besley, J. M. Herbert, C. Y. Lin,
 T. Van Voorhis, S. H. Chien, A. Sodt, R. P. Steele, 
 V. A. Rassolov, P. E. Maslen, P. P. Korambath, R. D. Adamson,
 B. Austin, J. Baker, E. F. C. Byrd, H. Dachsel, R. J. Doerksen,
 A. Dreuw, B. D. Dunietz, A. D. Dutoi, T. R. Furlani,
 S. R. Gwaltney, A. Heyden, S. Hirata, C.-P. Hsu, G. Kedziora,
 R. Z. Khaliullin, P. Klunzinger, A. M. Lee, M. S. Lee, W. Liang,
 I. Lotan, N. Nair, B. Peters, E. I. Proynov, P. A. Pieniazek, 
 Y. M. Rhee, J. Ritchie, E. Rosta, C. D. Sherrill, 
 A. C. Simmonett, J. E. Subotnik, H. L. Woodcock III,
 W. Zhang, A. T. Bell, A. K. Chakraborty, D. M. Chipman,
 F. J. Keil, A. Warshel, W. J. Hehre, H. F. Schaefer III,
 J. Kong, A. I. Krylov, P. M. W. Gill, M. Head-Gordon,
 Q-Chem, Version 3.1, Q-Chem, Inc., Pittsburgh, PA (2007).

 Additional authors for Version 3.1: 
 Z. Gan, Y. Zhao, N. E. Schultz, D. Truhlar, E. Epifanovsky and M. Oana.

 Additional authors for Version 3.2: 
 R. Baer, B. R. Brooks, D. Casanova, J.-D. Chai, C.-L. Cheng, 
 C. Cramer, D. Crittenden, A. Ghysels, G. Hawkins, E. G. Hohenstein, 
 C. Kelley, W. Kurlancheek, D. Liotard, E. Livshits, P. Manohar, 
 A. Marenich, D. Neuhauser, R. Olson, M. A. Rohrdanz, K. S. Thanthiriwatte, 
 A. J. W. Thom, V. Vanovschi, C. F. Williams, Q. Wu and Z.-Q. You. 


 Intel X86 Linux Version

 Q-chem begins on Tue Apr 30 21:22:46 2013  

 Parallel job on  1  processors
Processing $rem in /usr/local/qchem/config/preferences.

theFileMan(): MAXOPENFILES=974 MAX_SUB_FILE_NUM=16
Maximum size of a physical file is 2.0 GB, maximum size of a tmp-file is 32.0 GB


--------------------------------------------------------------
User input:
--------------------------------------------------------------

$molecule
1,2
Si
O,1,sio

sio=1.52385166

$end

$comment
positive
$end

$xc_functional
C PBE   1.00
X wPBE  1.00
$end

$rem
SYMMETRY_DECOMPOSITION	0
LRC_DFT                 true
exchange 		general
BASIS                   g3large
omega			360
mem_static              760
max_scf_cycles          200
scf_final_print         1
sym_ignore              true
$end

--------------------------------------------------------------
 Writing REM_CC_EA            2
 ----------------------------------------------------
       Standard Nuclear Orientation (Angstroms)
    I     Atom         X            Y            Z
 ----------------------------------------------------
    1      Si      0.000000     0.000000     0.000000
    2      O       0.000000     0.000000     1.523852
 ----------------------------------------------------
 Nuclear Repulsion Energy =    38.8934495170 hartrees
 There are       11 alpha and       10 beta electrons
 Requested basis set is G3large
 There are 29 shells and 108 basis functions

Total QAlloc Memory Limit   2000 MB
Mega-Array Size       743 MB
MEM_STATIC part       760 MB

                       Distance Matrix (Angstroms)
             Si(  1)
   O (  2)  1.523852
 
 A cutoff of  1.0D-08 yielded    419 shell pairs
 There are   5935 function pairs (  8254 Cartesian)
Evaluating contribution to one-electron hamiltonian from nuclear
 Smallest overlap matrix eigenvalue = 5.61E-04
 Multipole matrices computed through 2nd order

  Scale SEOQF with 1.000000e-01/1.000000e-01/1.000000e-01

 Standard Electronic Orientation quadrupole field applied
 Nucleus-field energy     =    -0.0000000020 hartrees
 Guess from superposition of atomic densities
 Warning:  Energy on first SCF cycle will be non-variational
 Long-range K will be added via erf
 Coulomb attenuation parameter = 0.36 bohr**(-1)
 An unrestricted Kohn-Sham SCF calculation will be
 performed using Pulay DIIS extrapolation
 Exchange:  wPBE + LR-HF      Correlation:  PBE
 Using SG-1 standard quadrature grid
 SCF converges when DIIS error is below 1.0E-05
 Requested basis set is G3large
 There are 29 shells and 108 basis functions
 A cutoff of  1.0D-08 yielded    419 shell pairs
 There are   5935 function pairs (  8254 Cartesian)
 Warning!  Inaccurate integrated density:
   Number of electrons =    21
   Numerical integral  =    22.000000513883
   Relative error      =     4.7619072090 %
 ---------------------------------------
  Cycle       Energy         DIIS Error
 ---------------------------------------
    1    -364.4638901234      3.15E-02
    2    -364.0107756632      8.87E-03
    3    -363.7566091075      1.76E-02
    4    -364.1485101573      7.62E-04
    5    -364.1505094433      3.36E-04
    6    -364.1511676985      1.40E-04
    7    -364.1514973439      6.98E-05
    8    -364.1516459410      4.59E-05
    9    -364.1517502898      3.70E-05
   10    -364.1518663694      2.53E-05
   11    -364.1519530566      2.23E-05
   12    -364.1519940922      2.22E-05
   13    -364.1520738108      1.21E-05
   14    -364.1521002161      1.28E-05
   15    -364.1521010776      4.51E-06 Convergence criterion met
 ---------------------------------------
 One-Electron    Energy =  -574.8193978673
 Total Coulomb   Energy =   200.7281684603
 Alpha Exchange  Energy =    -2.0822308667
 Beta  Exchange  Energy =    -1.8904705955
 DFT   Exchange  Energy =   -24.2410384095
 DFT Correlation Energy =    -0.7405813139
 Nuclear Repu.   Energy =    38.8934495150
 Nuclear Attr.   Energy =  -938.3704257978
 Kinetic         Energy =   363.5510279305
 <S^2> = 0.7642
 SCF time:  CPU 45.66 s  wall 49.10 s
 Final Alpha MO Eigenvalues
            1           2           3           4           5           6
    1 -66.0160557 -19.2791648  -5.6650578  -4.0705508  -4.0705465  -4.0690343
            7           8           9          10          11          12
    1  -1.3951186  -0.9006553  -0.7701209  -0.7636397  -0.7635909  -0.2832632
           13          14          15          16
    1  -0.2832407  -0.1630886  -0.1061687  -0.0646520
 Final Beta MO Eigenvalues
            1           2           3           4           5           6
    1 -66.0136950 -19.2664039  -5.6622525  -4.0688920  -4.0688896  -4.0619930
            7           8           9          10          11          12
    1  -1.3619577  -0.8141689  -0.7519608  -0.7519460  -0.4360506  -0.2575534
           13          14          15
    1  -0.2575346  -0.1350829  -0.1010603
 Analysis of SCF Wavefunction
 
 --------------------------------------------------------------
                    Orbital Energies (a.u.)
 --------------------------------------------------------------
 
 Alpha MOs
 -- Occupied --
-66.016 -19.279  -5.665  -4.071  -4.071  -4.069  -1.395  -0.901
 -0.770  -0.764  -0.764
 -- Virtual --
 -0.283  -0.283  -0.163  -0.106  -0.065  -0.065  -0.037  -0.012
 -0.012   0.057   0.057   0.077   0.090   0.127   0.127   0.146
  0.146   0.175   0.264   0.328   0.328   0.345   0.345   0.454
  0.479   0.479   0.517   0.538   0.538   0.582   0.582   0.781
  0.934   0.948   0.948   1.012   1.012   1.081   1.417   1.417
  1.493   1.544   1.544   1.850   1.850   1.856   1.856   2.114
  2.217   2.217   2.465   3.155   3.158   3.325   3.325   3.536
  4.700   4.700   4.780   4.818   4.818   4.856   4.857   5.180
  5.180   5.196   5.887   6.542   6.543   6.808   6.808   7.189
 10.931  10.931  11.814  17.020  17.159  17.233  17.233  17.289
 21.762  21.762  21.775  21.775  21.805  21.805  21.827  43.338
 43.402  43.474  43.474  43.522  45.268  45.268  45.743  49.427
140.381
 
 Beta MOs
 -- Occupied --
-66.014 -19.266  -5.662  -4.069  -4.069  -4.062  -1.362  -0.814
 -0.752  -0.752
 -- Virtual --
 -0.436  -0.258  -0.258  -0.135  -0.101  -0.063  -0.063  -0.025
 -0.006  -0.006   0.064   0.064   0.087   0.094   0.133   0.133
  0.153   0.153   0.182   0.278   0.334   0.334   0.349   0.349
  0.467   0.488   0.488   0.536   0.546   0.547   0.602   0.602
  0.807   0.958   0.958   0.966   1.021   1.021   1.104   1.423
  1.423   1.515   1.573   1.573   1.861   1.861   1.876   1.876
  2.149   2.247   2.247   2.501   3.158   3.161   3.332   3.332
  3.549   4.712   4.712   4.817   4.822   4.822   4.882   4.883
  5.222   5.222   5.235   5.929   6.553   6.554   6.864   6.864
  7.267  10.934  10.934  11.826  17.021  17.160  17.238  17.238
 17.296  21.762  21.762  21.776  21.777  21.808  21.808  21.831
 43.342  43.406  43.507  43.507  43.565  45.277  45.277  45.782
 49.442 140.384
 --------------------------------------------------------------
 
          Ground-State Mulliken Net Atomic Charges

     Atom                 Charge (a.u.)    Spin (a.u.)
  --------------------------------------------------------
      1 Si                    1.158754       0.465960
      2 O                    -0.158754       0.534040
  --------------------------------------------------------
  Sum of atomic charges =     1.000000
  Sum of spin   charges =     1.000000

 -----------------------------------------------------------------
                    Cartesian Multipole Moments
 -----------------------------------------------------------------
    Charge (ESU x 10^10)
                 4.8032
    Dipole Moment (Debye)
         X       0.0015      Y       0.0008      Z      -1.9548
       Tot       1.9548
    Quadrupole Moments (Debye-Ang)
        XX     -12.8203     XY       0.0000     YY     -12.8203
        XZ       0.0001     YZ      -0.0001     ZZ     -14.6756
    Octapole Moments (Debye-Ang^2)
       XXX       0.0023    XXY       0.0004    XYY       0.0007
       YYY       0.0012    XXZ      -8.5513    XYZ       0.0000
       YYZ      -8.5514    XZZ       0.0023    YZZ       0.0011
       ZZZ     -23.3392
    Hexadecapole Moments (Debye-Ang^3)
      XXXX     -12.7254   XXXY       0.0001   XXYY      -4.2419
      XYYY       0.0001   YYYY     -12.7257   XXXZ       0.0000
      XXYZ      -0.0001   XYYZ       0.0000   YYYZ      -0.0002
      XXZZ     -16.9000   XYZZ       0.0000   YYZZ     -16.8999
      XZZZ       0.0033   YZZZ       0.0012   ZZZZ     -80.3420
 -----------------------------------------------------------------
 Total job time:  49.24s(wall), 45.78s(cpu) 
 Tue Apr 30 21:23:35 2013

        *************************************************************
        *                                                           *
        *  Thank you very much for using Q-Chem.  Have a nice day.  *
        *                                                           *
        *************************************************************


0 sent ACK to 0 
now end server 0 ... 
