Process 0 of 1 is on cl123.stfx.acenet.ca - thread support 1
initial socket setup ...start
initial socket setup ...done 
now start server 0 ... 

cmd = /usr/bin/ssh clhead /usr/local/qchem/bin/get_hostid 484885534 > /scratch/tmp/6061474.1.short.q/qchem2798/lic.dat
                  Welcome to Q-Chem
     A Quantum Leap Into The Future Of Chemistry

 Y. Shao, L. Fusti-Molnar, Y. Jung, J. Kussmann, C. Ochsenfeld,
 S. T. Brown, A. T. B. Gilbert, L. V. Slipchenko,S. V. Levchenko,
 D. P. O'Neill, R. A. DiStasio Jr., R. C. Lochan, T. Wang,
 G. J. O. Beran, N. A. Besley, J. M. Herbert, C. Y. Lin,
 T. Van Voorhis, S. H. Chien, A. Sodt, R. P. Steele, 
 V. A. Rassolov, P. E. Maslen, P. P. Korambath, R. D. Adamson,
 B. Austin, J. Baker, E. F. C. Byrd, H. Dachsel, R. J. Doerksen,
 A. Dreuw, B. D. Dunietz, A. D. Dutoi, T. R. Furlani,
 S. R. Gwaltney, A. Heyden, S. Hirata, C.-P. Hsu, G. Kedziora,
 R. Z. Khaliullin, P. Klunzinger, A. M. Lee, M. S. Lee, W. Liang,
 I. Lotan, N. Nair, B. Peters, E. I. Proynov, P. A. Pieniazek, 
 Y. M. Rhee, J. Ritchie, E. Rosta, C. D. Sherrill, 
 A. C. Simmonett, J. E. Subotnik, H. L. Woodcock III,
 W. Zhang, A. T. Bell, A. K. Chakraborty, D. M. Chipman,
 F. J. Keil, A. Warshel, W. J. Hehre, H. F. Schaefer III,
 J. Kong, A. I. Krylov, P. M. W. Gill, M. Head-Gordon,
 Q-Chem, Version 3.1, Q-Chem, Inc., Pittsburgh, PA (2007).

 Additional authors for Version 3.1: 
 Z. Gan, Y. Zhao, N. E. Schultz, D. Truhlar, E. Epifanovsky and M. Oana.

 Additional authors for Version 3.2: 
 R. Baer, B. R. Brooks, D. Casanova, J.-D. Chai, C.-L. Cheng, 
 C. Cramer, D. Crittenden, A. Ghysels, G. Hawkins, E. G. Hohenstein, 
 C. Kelley, W. Kurlancheek, D. Liotard, E. Livshits, P. Manohar, 
 A. Marenich, D. Neuhauser, R. Olson, M. A. Rohrdanz, K. S. Thanthiriwatte, 
 A. J. W. Thom, V. Vanovschi, C. F. Williams, Q. Wu and Z.-Q. You. 


 Intel X86 Linux Version

 Q-chem begins on Thu Jul  4 19:05:04 2013  

 Parallel job on  1  processors
Processing $rem in /usr/local/qchem/config/preferences.

theFileMan(): MAXOPENFILES=974 MAX_SUB_FILE_NUM=16
Maximum size of a physical file is 2.0 GB, maximum size of a tmp-file is 32.0 GB


--------------------------------------------------------------
User input:
--------------------------------------------------------------

$molecule
-1,1
C
N,1,R

R=1.17392061

$end

$comment
negative
$end

$xc_functional
C PBE   1.00
X wPBE  1.00
$end

$rem
SYMMETRY_DECOMPOSITION	0
exchange 		general
LRC_DFT                 true
BASIS                   g3large
omega			1980
mem_static              760
max_scf_cycles          200
scf_final_print         1
sym_ignore              true
$end

--------------------------------------------------------------
 Writing REM_CC_EA            2
 ----------------------------------------------------
       Standard Nuclear Orientation (Angstroms)
    I     Atom         X            Y            Z
 ----------------------------------------------------
    1      C       0.000000     0.000000     0.000000
    2      N       0.000000     0.000000     1.173921
 ----------------------------------------------------
 Nuclear Repulsion Energy =    18.9326626215 hartrees
 There are        7 alpha and        7 beta electrons
 Requested basis set is G3large
 There are 20 shells and 84 basis functions

Total QAlloc Memory Limit   2000 MB
Mega-Array Size       743 MB
MEM_STATIC part       760 MB

                       Distance Matrix (Angstroms)
             C (  1)
   N (  2)  1.173921
 
 A cutoff of  1.0D-08 yielded    206 shell pairs
 There are   3662 function pairs (  4809 Cartesian)
Evaluating contribution to one-electron hamiltonian from nuclear
 Smallest overlap matrix eigenvalue = 1.01E-03
 Multipole matrices computed through 2nd order

  Scale SEOQF with 1.000000e-01/1.000000e-01/1.000000e-01

 Standard Electronic Orientation quadrupole field applied
 Nucleus-field energy     =    -0.0000000010 hartrees
 Guess from superposition of atomic densities
 Warning:  Energy on first SCF cycle will be non-variational
 Long-range K will be added via erf
 Coulomb attenuation parameter = 1.98 bohr**(-1)
 A restricted Kohn-Sham SCF calculation will be
 performed using Pulay DIIS extrapolation
 Exchange:  wPBE + LR-HF      Correlation:  PBE
 Using SG-1 standard quadrature grid
 SCF converges when DIIS error is below 1.0E-05
 Requested basis set is G3large
 There are 20 shells and 84 basis functions
 A cutoff of  1.0D-08 yielded    206 shell pairs
 There are   3662 function pairs (  4809 Cartesian)
 Warning!  Inaccurate integrated density:
   Number of electrons =    14
   Numerical integral  =    12.999997383438
   Relative error      =    -7.1428758326 %
 ---------------------------------------
  Cycle       Energy         DIIS Error
 ---------------------------------------
    1     -92.7103149412      4.64E-02
    2     -92.7100208233      7.06E-03
    3     -92.7510759990      4.91E-03
    4     -92.7687512363      1.04E-03
    5     -92.7708965161      4.96E-04
    6     -92.7717014013      2.34E-04
    7     -92.7720198545      6.72E-05
    8     -92.7720472827      1.03E-05
    9     -92.7720477550      2.62E-06 Convergence criterion met
 ---------------------------------------
 One-Electron    Energy =  -166.5629638367
 Total Coulomb   Energy =    67.1927435743
 Alpha Exchange  Energy =    -3.7283766622
 Beta  Exchange  Energy =    -3.7283766622
 DFT   Exchange  Energy =    -4.4403720108
 DFT Correlation Energy =    -0.4373647779
 Nuclear Repu.   Energy =    18.9326626205
 Nuclear Attr.   Energy =  -258.8220392888
 Kinetic         Energy =    92.2590754521
 SCF time:  CPU 8.89 s  wall 9.26 s
 Final Alpha MO Eigenvalues
            1           2           3           4           5           6
    1 -14.6553866 -10.5400156  -0.9520468  -0.3704772  -0.2294885  -0.2294825
            7           8           9          10          11          12
    1  -0.2211507   0.2434422   0.2686544   0.2686546   0.2745586   0.3863639
 Analysis of SCF Wavefunction
 
 --------------------------------------------------------------
                    Orbital Energies (a.u.)
 --------------------------------------------------------------
 
 Alpha MOs
 -- Occupied --
-14.655 -10.540  -0.952  -0.370  -0.229  -0.229  -0.221
 -- Virtual --
  0.243   0.269   0.269   0.275   0.386   0.386   0.392   0.493
  0.493   0.526   0.709   0.956   0.956   1.045   1.060   1.060
  1.165   1.212   1.212   1.286   1.356   1.356   1.583   1.625
  1.625   1.894   2.040   2.040   2.421   3.297   3.297   3.323
  3.331   3.331   3.402   3.402   3.638   3.638   3.847   3.847
  3.943   3.983   3.983   4.240   4.240   4.451   4.501   4.501
  4.709   4.870   4.870   5.461   5.461   5.664   5.664   6.152
  6.266   6.266   6.690  25.127  28.165  28.165  28.859  36.703
 38.388  38.388  39.135  41.425  41.509  41.534  41.591  41.591
 41.809  42.002  42.171  42.171  42.325
 --------------------------------------------------------------
 
          Ground-State Mulliken Net Atomic Charges

     Atom                 Charge (a.u.)
  ----------------------------------------
      1 C                    -0.497616
      2 N                    -0.502384
  ----------------------------------------
  Sum of atomic charges =    -1.000000

 -----------------------------------------------------------------
                    Cartesian Multipole Moments
 -----------------------------------------------------------------
    Charge (ESU x 10^10)
                -4.8032
    Dipole Moment (Debye)
         X       0.0000      Y       0.0000      Z      -2.6526
       Tot       2.6526
    Quadrupole Moments (Debye-Ang)
        XX     -14.4478     XY      -0.0001     YY     -14.4478
        XZ       0.0001     YZ      -0.0001     ZZ     -20.3550
    Octapole Moments (Debye-Ang^2)
       XXX       0.0000    XXY       0.0000    XYY       0.0000
       YYY       0.0000    XXZ      -7.8732    XYZ       0.0000
       YYZ      -7.8732    XZZ       0.0001    YZZ       0.0000
       ZZZ     -30.0023
    Hexadecapole Moments (Debye-Ang^3)
      XXXX     -19.7102   XXXY      -0.0002   XXYY      -6.5701
      XYYY      -0.0002   YYYY     -19.7102   XXXZ       0.0001
      XXYZ       0.0000   XYYZ       0.0000   YYYZ      -0.0001
      XXZZ     -16.8774   XYZZ      -0.0001   YYZZ     -16.8774
      XZZZ       0.0003   YZZZ      -0.0002   ZZZZ     -91.5298
 -----------------------------------------------------------------
 Total job time:  9.35s(wall), 8.98s(cpu) 
 Thu Jul  4 19:05:13 2013

        *************************************************************
        *                                                           *
        *  Thank you very much for using Q-Chem.  Have a nice day.  *
        *                                                           *
        *************************************************************


0 sent ACK to 0 
now end server 0 ... 
 
**********************************************************************
Job 2 of 3 
**********************************************************************
 
Process 0 of 1 is on cl123.stfx.acenet.ca - thread support 1
initial socket setup ...start
initial socket setup ...done 
now start server 0 ... 

cmd = /usr/bin/ssh clhead /usr/local/qchem/bin/get_hostid 66518433 > /scratch/tmp/6061474.1.short.q/qchem2798/lic.dat
                  Welcome to Q-Chem
     A Quantum Leap Into The Future Of Chemistry

 Y. Shao, L. Fusti-Molnar, Y. Jung, J. Kussmann, C. Ochsenfeld,
 S. T. Brown, A. T. B. Gilbert, L. V. Slipchenko,S. V. Levchenko,
 D. P. O'Neill, R. A. DiStasio Jr., R. C. Lochan, T. Wang,
 G. J. O. Beran, N. A. Besley, J. M. Herbert, C. Y. Lin,
 T. Van Voorhis, S. H. Chien, A. Sodt, R. P. Steele, 
 V. A. Rassolov, P. E. Maslen, P. P. Korambath, R. D. Adamson,
 B. Austin, J. Baker, E. F. C. Byrd, H. Dachsel, R. J. Doerksen,
 A. Dreuw, B. D. Dunietz, A. D. Dutoi, T. R. Furlani,
 S. R. Gwaltney, A. Heyden, S. Hirata, C.-P. Hsu, G. Kedziora,
 R. Z. Khaliullin, P. Klunzinger, A. M. Lee, M. S. Lee, W. Liang,
 I. Lotan, N. Nair, B. Peters, E. I. Proynov, P. A. Pieniazek, 
 Y. M. Rhee, J. Ritchie, E. Rosta, C. D. Sherrill, 
 A. C. Simmonett, J. E. Subotnik, H. L. Woodcock III,
 W. Zhang, A. T. Bell, A. K. Chakraborty, D. M. Chipman,
 F. J. Keil, A. Warshel, W. J. Hehre, H. F. Schaefer III,
 J. Kong, A. I. Krylov, P. M. W. Gill, M. Head-Gordon,
 Q-Chem, Version 3.1, Q-Chem, Inc., Pittsburgh, PA (2007).

 Additional authors for Version 3.1: 
 Z. Gan, Y. Zhao, N. E. Schultz, D. Truhlar, E. Epifanovsky and M. Oana.

 Additional authors for Version 3.2: 
 R. Baer, B. R. Brooks, D. Casanova, J.-D. Chai, C.-L. Cheng, 
 C. Cramer, D. Crittenden, A. Ghysels, G. Hawkins, E. G. Hohenstein, 
 C. Kelley, W. Kurlancheek, D. Liotard, E. Livshits, P. Manohar, 
 A. Marenich, D. Neuhauser, R. Olson, M. A. Rohrdanz, K. S. Thanthiriwatte, 
 A. J. W. Thom, V. Vanovschi, C. F. Williams, Q. Wu and Z.-Q. You. 


 Intel X86 Linux Version

 Q-chem begins on Thu Jul  4 19:05:16 2013  

 Parallel job on  1  processors
Processing $rem in /usr/local/qchem/config/preferences.

theFileMan(): MAXOPENFILES=974 MAX_SUB_FILE_NUM=16
Maximum size of a physical file is 2.0 GB, maximum size of a tmp-file is 32.0 GB


--------------------------------------------------------------
User input:
--------------------------------------------------------------

$molecule
0,2
C
N,1,R

R=1.17392061

$end

$comment
neutral
$end

$xc_functional
C PBE   1.00
X wPBE  1.00
$end


$rem
SYMMETRY_DECOMPOSITION	0
LRC_DFT                 true
exchange 		general
BASIS                   g3large
omega			1980
mem_static              760
max_scf_cycles          200
scf_final_print         1
sym_ignore              true
$end

--------------------------------------------------------------
 Writing REM_CC_EA            2
 ----------------------------------------------------
       Standard Nuclear Orientation (Angstroms)
    I     Atom         X            Y            Z
 ----------------------------------------------------
    1      C       0.000000     0.000000     0.000000
    2      N       0.000000     0.000000     1.173921
 ----------------------------------------------------
 Nuclear Repulsion Energy =    18.9326626215 hartrees
 There are        7 alpha and        6 beta electrons
 Requested basis set is G3large
 There are 20 shells and 84 basis functions

Total QAlloc Memory Limit   2000 MB
Mega-Array Size       743 MB
MEM_STATIC part       760 MB

                       Distance Matrix (Angstroms)
             C (  1)
   N (  2)  1.173921
 
 A cutoff of  1.0D-08 yielded    206 shell pairs
 There are   3662 function pairs (  4809 Cartesian)
Evaluating contribution to one-electron hamiltonian from nuclear
 Smallest overlap matrix eigenvalue = 1.01E-03
 Multipole matrices computed through 2nd order

  Scale SEOQF with 1.000000e-01/1.000000e-01/1.000000e-01

 Standard Electronic Orientation quadrupole field applied
 Nucleus-field energy     =    -0.0000000010 hartrees
 Guess from superposition of atomic densities
 Warning:  Energy on first SCF cycle will be non-variational
 Long-range K will be added via erf
 Coulomb attenuation parameter = 1.98 bohr**(-1)
 An unrestricted Kohn-Sham SCF calculation will be
 performed using Pulay DIIS extrapolation
 Exchange:  wPBE + LR-HF      Correlation:  PBE
 Using SG-1 standard quadrature grid
 SCF converges when DIIS error is below 1.0E-05
 Requested basis set is G3large
 There are 20 shells and 84 basis functions
 A cutoff of  1.0D-08 yielded    206 shell pairs
 There are   3662 function pairs (  4809 Cartesian)
 ---------------------------------------
  Cycle       Energy         DIIS Error
 ---------------------------------------
    1     -92.7103149412      4.64E-02
    2     -92.5574169216      5.33E-03
    3     -92.5760389358      5.37E-03
    4     -92.6030484412      1.05E-03
    5     -92.6076076486      6.48E-04
    6     -92.6113814051      4.48E-04
    7     -92.6147296901      2.62E-04
    8     -92.6171260652      1.65E-04
    9     -92.6191596742      6.63E-05
   10     -92.6196148542      3.74E-05
   11     -92.6202783390      5.54E-05
   12     -92.6205581467      3.68E-05
   13     -92.6211729483      3.37E-05
   14     -92.6211743140      2.34E-05
   15     -92.6211788507      4.87E-06 Convergence criterion met
 ---------------------------------------
 One-Electron    Energy =  -162.0147003628
 Total Coulomb   Energy =    62.5503924856
 Alpha Exchange  Energy =    -3.8073078962
 Beta  Exchange  Energy =    -3.4481280120
 DFT   Exchange  Energy =    -4.4384485500
 DFT Correlation Energy =    -0.3956491358
 Nuclear Repu.   Energy =    18.9326626205
 Nuclear Attr.   Energy =  -254.1017725723
 Kinetic         Energy =    92.0870722096
 <S^2> = 0.9504
 SCF time:  CPU 16.73 s  wall 18.05 s
 Final Alpha MO Eigenvalues
            1           2           3           4           5           6
    1 -14.9952484 -10.9383179  -1.2844194  -0.7634439  -0.6117972  -0.5550218
            7           8           9          10          11          12
    1  -0.5550140   0.0716090   0.0878061   0.0878212   0.0968130   0.1314449
 Final Beta MO Eigenvalues
            1           2           3           4           5           6
    1 -15.0065225 -10.9064376  -1.2762051  -0.6471396  -0.5654666  -0.5654276
            7           8           9          10          11
    1  -0.0895944   0.0876988   0.0877014   0.0898699   0.1046417
 Analysis of SCF Wavefunction
 
 --------------------------------------------------------------
                    Orbital Energies (a.u.)
 --------------------------------------------------------------
 
 Alpha MOs
 -- Occupied --
-14.995 -10.938  -1.284  -0.763  -0.612  -0.555  -0.555
 -- Virtual --
  0.072   0.088   0.088   0.097   0.131   0.131   0.210   0.262
  0.262   0.318   0.442   0.641   0.641   0.724   0.739   0.739
  0.876   0.926   0.926   0.964   1.062   1.062   1.312   1.348
  1.348   1.549   1.745   1.745   2.123   2.928   2.928   2.951
  2.975   2.975   3.053   3.053   3.239   3.239   3.445   3.445
  3.520   3.610   3.610   3.939   3.939   4.074   4.186   4.186
  4.380   4.547   4.547   5.163   5.163   5.356   5.356   5.820
  5.918   5.918   6.338  24.733  27.780  27.780  28.460  36.363
 38.050  38.050  38.790  41.092  41.174  41.176  41.247  41.247
 41.426  41.619  41.780  41.780  41.941
 
 Beta MOs
 -- Occupied --
-15.007 -10.906  -1.276  -0.647  -0.565  -0.565
 -- Virtual --
 -0.090   0.088   0.088   0.090   0.105   0.172   0.172   0.214
  0.252   0.252   0.326   0.475   0.684   0.684   0.771   0.771
  0.792   0.902   0.943   0.943   1.004   1.048   1.048   1.309
  1.323   1.323   1.576   1.747   1.747   2.134   2.969   2.969
  2.994   3.001   3.001   3.068   3.068   3.290   3.290   3.502
  3.502   3.572   3.623   3.623   3.916   3.916   4.101   4.160
  4.160   4.385   4.543   4.543   5.116   5.116   5.346   5.346
  5.829   5.921   5.921   6.352  24.760  27.798  27.798  28.482
 36.352  38.038  38.038  38.790  41.069  41.154  41.179  41.240
 41.240  41.443  41.635  41.800  41.800  41.959
 --------------------------------------------------------------
 
          Ground-State Mulliken Net Atomic Charges

     Atom                 Charge (a.u.)    Spin (a.u.)
  --------------------------------------------------------
      1 C                     0.094225       1.588042
      2 N                    -0.094225      -0.588042
  --------------------------------------------------------
  Sum of atomic charges =     0.000000
  Sum of spin   charges =     1.000000

 -----------------------------------------------------------------
                    Cartesian Multipole Moments
 -----------------------------------------------------------------
    Charge (ESU x 10^10)
                 0.0000
    Dipole Moment (Debye)
         X      -0.0009      Y       0.0007      Z      -2.2391
       Tot       2.2391
    Quadrupole Moments (Debye-Ang)
        XX     -10.9408     XY       0.0000     YY     -10.9409
        XZ       0.0000     YZ       0.0000     ZZ     -12.8381
    Octapole Moments (Debye-Ang^2)
       XXX      -0.0012    XXY       0.0003    XYY      -0.0004
       YYY       0.0010    XXZ      -6.9612    XYZ      -0.0001
       YYZ      -6.9612    XZZ      -0.0007    YZZ       0.0005
       ZZZ     -23.7761
    Hexadecapole Moments (Debye-Ang^3)
      XXXX     -10.7976   XXXY       0.0000   XXYY      -3.5992
      XYYY       0.0000   YYYY     -10.7976   XXXZ      -0.0001
      XXYZ       0.0000   XYYZ       0.0000   YYYZ       0.0001
      XXZZ     -11.3664   XYZZ      -0.0001   YYZZ     -11.3664
      XZZZ      -0.0008   YZZZ       0.0006   ZZZZ     -63.4321
 -----------------------------------------------------------------
 Total job time:  18.13s(wall), 16.81s(cpu) 
 Thu Jul  4 19:05:34 2013

        *************************************************************
        *                                                           *
        *  Thank you very much for using Q-Chem.  Have a nice day.  *
        *                                                           *
        *************************************************************


0 sent ACK to 0 
now end server 0 ... 
 
**********************************************************************
Job 3 of 3 
**********************************************************************
 
Process 0 of 1 is on cl123.stfx.acenet.ca - thread support 1
initial socket setup ...start
initial socket setup ...done 
now start server 0 ... 

cmd = /usr/bin/ssh clhead /usr/local/qchem/bin/get_hostid 114576516 > /scratch/tmp/6061474.1.short.q/qchem2798/lic.dat
                  Welcome to Q-Chem
     A Quantum Leap Into The Future Of Chemistry

 Y. Shao, L. Fusti-Molnar, Y. Jung, J. Kussmann, C. Ochsenfeld,
 S. T. Brown, A. T. B. Gilbert, L. V. Slipchenko,S. V. Levchenko,
 D. P. O'Neill, R. A. DiStasio Jr., R. C. Lochan, T. Wang,
 G. J. O. Beran, N. A. Besley, J. M. Herbert, C. Y. Lin,
 T. Van Voorhis, S. H. Chien, A. Sodt, R. P. Steele, 
 V. A. Rassolov, P. E. Maslen, P. P. Korambath, R. D. Adamson,
 B. Austin, J. Baker, E. F. C. Byrd, H. Dachsel, R. J. Doerksen,
 A. Dreuw, B. D. Dunietz, A. D. Dutoi, T. R. Furlani,
 S. R. Gwaltney, A. Heyden, S. Hirata, C.-P. Hsu, G. Kedziora,
 R. Z. Khaliullin, P. Klunzinger, A. M. Lee, M. S. Lee, W. Liang,
 I. Lotan, N. Nair, B. Peters, E. I. Proynov, P. A. Pieniazek, 
 Y. M. Rhee, J. Ritchie, E. Rosta, C. D. Sherrill, 
 A. C. Simmonett, J. E. Subotnik, H. L. Woodcock III,
 W. Zhang, A. T. Bell, A. K. Chakraborty, D. M. Chipman,
 F. J. Keil, A. Warshel, W. J. Hehre, H. F. Schaefer III,
 J. Kong, A. I. Krylov, P. M. W. Gill, M. Head-Gordon,
 Q-Chem, Version 3.1, Q-Chem, Inc., Pittsburgh, PA (2007).

 Additional authors for Version 3.1: 
 Z. Gan, Y. Zhao, N. E. Schultz, D. Truhlar, E. Epifanovsky and M. Oana.

 Additional authors for Version 3.2: 
 R. Baer, B. R. Brooks, D. Casanova, J.-D. Chai, C.-L. Cheng, 
 C. Cramer, D. Crittenden, A. Ghysels, G. Hawkins, E. G. Hohenstein, 
 C. Kelley, W. Kurlancheek, D. Liotard, E. Livshits, P. Manohar, 
 A. Marenich, D. Neuhauser, R. Olson, M. A. Rohrdanz, K. S. Thanthiriwatte, 
 A. J. W. Thom, V. Vanovschi, C. F. Williams, Q. Wu and Z.-Q. You. 


 Intel X86 Linux Version

 Q-chem begins on Thu Jul  4 19:05:36 2013  

 Parallel job on  1  processors
Processing $rem in /usr/local/qchem/config/preferences.

theFileMan(): MAXOPENFILES=974 MAX_SUB_FILE_NUM=16
Maximum size of a physical file is 2.0 GB, maximum size of a tmp-file is 32.0 GB


--------------------------------------------------------------
User input:
--------------------------------------------------------------

$molecule
1,1
C
N,1,R

R=1.17392061

$end

$comment
positive
$end

$xc_functional
C PBE   1.00
X wPBE  1.00
$end

$rem
SYMMETRY_DECOMPOSITION	0
LRC_DFT                 true
exchange 		general
BASIS                   g3large
omega			1980
mem_static              760
max_scf_cycles          200
scf_final_print         1
sym_ignore              true
$end

--------------------------------------------------------------
 Writing REM_CC_EA            2
 ----------------------------------------------------
       Standard Nuclear Orientation (Angstroms)
    I     Atom         X            Y            Z
 ----------------------------------------------------
    1      C       0.000000     0.000000     0.000000
    2      N       0.000000     0.000000     1.173921
 ----------------------------------------------------
 Nuclear Repulsion Energy =    18.9326626215 hartrees
 There are        6 alpha and        6 beta electrons
 Requested basis set is G3large
 There are 20 shells and 84 basis functions

Total QAlloc Memory Limit   2000 MB
Mega-Array Size       743 MB
MEM_STATIC part       760 MB

                       Distance Matrix (Angstroms)
             C (  1)
   N (  2)  1.173921
 
 A cutoff of  1.0D-08 yielded    206 shell pairs
 There are   3662 function pairs (  4809 Cartesian)
Evaluating contribution to one-electron hamiltonian from nuclear
 Smallest overlap matrix eigenvalue = 1.01E-03
 Multipole matrices computed through 2nd order

  Scale SEOQF with 1.000000e-01/1.000000e-01/1.000000e-01

 Standard Electronic Orientation quadrupole field applied
 Nucleus-field energy     =    -0.0000000010 hartrees
 Guess from superposition of atomic densities
 Warning:  Energy on first SCF cycle will be non-variational
 Long-range K will be added via erf
 Coulomb attenuation parameter = 1.98 bohr**(-1)
 A restricted Kohn-Sham SCF calculation will be
 performed using Pulay DIIS extrapolation
 Exchange:  wPBE + LR-HF      Correlation:  PBE
 Using SG-1 standard quadrature grid
 SCF converges when DIIS error is below 1.0E-05
 Requested basis set is G3large
 There are 20 shells and 84 basis functions
 A cutoff of  1.0D-08 yielded    206 shell pairs
 There are   3662 function pairs (  4809 Cartesian)
 Warning!  Inaccurate integrated density:
   Number of electrons =    12
   Numerical integral  =    12.999997383438
   Relative error      =     8.3333115287 %
 ---------------------------------------
  Cycle       Energy         DIIS Error
 ---------------------------------------
    1     -92.7103149412      4.64E-02
    2     -91.9045786682      8.99E-03
    3     -91.9343088008      9.26E-03
    4     -91.9948672333      3.08E-03
    5     -92.0024830950      5.83E-04
    6     -92.0039759495      4.13E-04
    7     -92.0052512365      1.52E-04
    8     -92.0054411454      8.23E-05
    9     -92.0054971258      5.01E-05
   10     -92.0055375741      3.58E-05
   11     -92.0055488623      3.63E-05
   12     -92.0055236642      3.26E-05
   13     -92.0054329578      2.71E-05
   14     -92.0054314919      1.59E-05
   15     -92.0054307500      1.81E-06 Convergence criterion met
 ---------------------------------------
 One-Electron    Energy =  -156.4449905760
 Total Coulomb   Energy =    57.0658238942
 Alpha Exchange  Energy =    -3.3939337735
 Beta  Exchange  Energy =    -3.3939337735
 DFT   Exchange  Energy =    -4.3979132304
 DFT Correlation Energy =    -0.3731459113
 Nuclear Repu.   Energy =    18.9326626205
 Nuclear Attr.   Energy =  -247.9740310884
 Kinetic         Energy =    91.5290405124
 SCF time:  CPU 14.63 s  wall 15.64 s
 Final Alpha MO Eigenvalues
            1           2           3           4           5           6
    1 -15.4696315 -11.4290261  -1.6874080  -1.0219735  -0.9508190  -0.9508047
            7           8           9          10          11
    1  -0.5604224  -0.2373946  -0.2373928  -0.1072957  -0.0808561
 Analysis of SCF Wavefunction
 
 --------------------------------------------------------------
                    Orbital Energies (a.u.)
 --------------------------------------------------------------
 
 Alpha MOs
 -- Occupied --
-15.470 -11.429  -1.687  -1.022  -0.951  -0.951
 -- Virtual --
 -0.560  -0.237  -0.237  -0.107  -0.081  -0.069  -0.069   0.011
  0.042   0.042   0.104   0.194   0.356   0.356   0.428   0.428
  0.435   0.573   0.622   0.622   0.659   0.715   0.715   0.986
  0.994   0.994   1.191   1.394   1.394   1.762   2.537   2.537
  2.566   2.609   2.609   2.666   2.666   2.836   2.836   3.054
  3.054   3.112   3.199   3.199   3.553   3.553   3.649   3.771
  3.771   3.974   4.149   4.149   4.730   4.730   4.928   4.928
  5.385   5.490   5.490   5.887  24.250  27.290  27.290  27.958
 35.894  37.581  37.581  38.312  40.621  40.686  40.706  40.769
 40.769  40.933  41.126  41.278  41.278  41.442
 --------------------------------------------------------------
 
          Ground-State Mulliken Net Atomic Charges

     Atom                 Charge (a.u.)
  ----------------------------------------
      1 C                     0.629698
      2 N                     0.370302
  ----------------------------------------
  Sum of atomic charges =     1.000000

 -----------------------------------------------------------------
                    Cartesian Multipole Moments
 -----------------------------------------------------------------
    Charge (ESU x 10^10)
                 4.8032
    Dipole Moment (Debye)
         X       0.0000      Y       0.0002      Z       0.0930
       Tot       0.0930
    Quadrupole Moments (Debye-Ang)
        XX      -8.9905     XY       0.0000     YY      -8.9905
        XZ       0.0000     YZ       0.0000     ZZ      -5.0423
    Octapole Moments (Debye-Ang^2)
       XXX       0.0000    XXY       0.0001    XYY       0.0000
       YYY       0.0002    XXZ      -5.9205    XYZ       0.0000
       YYZ      -5.9204    XZZ       0.0000    YZZ       0.0003
       ZZZ     -12.3581
    Hexadecapole Moments (Debye-Ang^3)
      XXXX      -7.4152   XXXY       0.0000   XXYY      -2.4718
      XYYY       0.0000   YYYY      -7.4153   XXXZ       0.0000
      XXYZ       0.0000   XYYZ       0.0000   YYYZ       0.0000
      XXZZ      -8.4148   XYZZ       0.0000   YYZZ      -8.4147
      XZZZ       0.0000   YZZZ       0.0004   ZZZZ     -36.1246
 -----------------------------------------------------------------
 Total job time:  15.74s(wall), 14.72s(cpu) 
 Thu Jul  4 19:05:52 2013

        *************************************************************
        *                                                           *
        *  Thank you very much for using Q-Chem.  Have a nice day.  *
        *                                                           *
        *************************************************************


0 sent ACK to 0 
now end server 0 ... 
