Process 0 of 1 is on cl151.stfx.acenet.ca - thread support 1
initial socket setup ...start
initial socket setup ...done 
now start server 0 ... 

cmd = /usr/bin/ssh clhead /usr/local/qchem/bin/get_hostid 858220798 > /globalscratch/itamblyn/bnl/g297_b3lyp_neut_g03Large/g2g71086/omega200/qchem9829/lic.dat
                  Welcome to Q-Chem
     A Quantum Leap Into The Future Of Chemistry

 Y. Shao, L. Fusti-Molnar, Y. Jung, J. Kussmann, C. Ochsenfeld,
 S. T. Brown, A. T. B. Gilbert, L. V. Slipchenko,S. V. Levchenko,
 D. P. O'Neill, R. A. DiStasio Jr., R. C. Lochan, T. Wang,
 G. J. O. Beran, N. A. Besley, J. M. Herbert, C. Y. Lin,
 T. Van Voorhis, S. H. Chien, A. Sodt, R. P. Steele, 
 V. A. Rassolov, P. E. Maslen, P. P. Korambath, R. D. Adamson,
 B. Austin, J. Baker, E. F. C. Byrd, H. Dachsel, R. J. Doerksen,
 A. Dreuw, B. D. Dunietz, A. D. Dutoi, T. R. Furlani,
 S. R. Gwaltney, A. Heyden, S. Hirata, C.-P. Hsu, G. Kedziora,
 R. Z. Khaliullin, P. Klunzinger, A. M. Lee, M. S. Lee, W. Liang,
 I. Lotan, N. Nair, B. Peters, E. I. Proynov, P. A. Pieniazek, 
 Y. M. Rhee, J. Ritchie, E. Rosta, C. D. Sherrill, 
 A. C. Simmonett, J. E. Subotnik, H. L. Woodcock III,
 W. Zhang, A. T. Bell, A. K. Chakraborty, D. M. Chipman,
 F. J. Keil, A. Warshel, W. J. Hehre, H. F. Schaefer III,
 J. Kong, A. I. Krylov, P. M. W. Gill, M. Head-Gordon,
 Q-Chem, Version 3.1, Q-Chem, Inc., Pittsburgh, PA (2007).

 Additional authors for Version 3.1: 
 Z. Gan, Y. Zhao, N. E. Schultz, D. Truhlar, E. Epifanovsky and M. Oana.

 Additional authors for Version 3.2: 
 R. Baer, B. R. Brooks, D. Casanova, J.-D. Chai, C.-L. Cheng, 
 C. Cramer, D. Crittenden, A. Ghysels, G. Hawkins, E. G. Hohenstein, 
 C. Kelley, W. Kurlancheek, D. Liotard, E. Livshits, P. Manohar, 
 A. Marenich, D. Neuhauser, R. Olson, M. A. Rohrdanz, K. S. Thanthiriwatte, 
 A. J. W. Thom, V. Vanovschi, C. F. Williams, Q. Wu and Z.-Q. You. 


 Intel X86 Linux Version

 Q-chem begins on Mon Apr 11 18:07:27 2011  

 Parallel job on  1  processors
Processing $rem in /usr/local/qchem/config/preferences.

theFileMan(): MAXOPENFILES=974 MAX_SUB_FILE_NUM=16
Maximum size of a physical file is 2.0 GB, maximum size of a tmp-file is 32.0 GB


--------------------------------------------------------------
User input:
--------------------------------------------------------------

$molecule
-1,2
X
X,1,1.
X,1,1.,2,90.
X,1,1.,3,90.,2,180.,0
C,1,R,2,A,3,0.,0
C,1,R,2,A,3,180.,0
C,1,R,4,A,3,90.,0
C,1,R,4,A,3,-90.,0
H,5,RH1,1,A1,2,180.,0
H,5,RH2,1,A2,2,0.,0
H,6,RH1,1,A1,2,180.,0
H,6,RH2,1,A2,3,0.,0
H,7,RH1,1,A1,4,180.,0
H,7,RH2,1,A2,4,0.,0
H,8,RH1,1,A1,4,180.,0
H,8,RH2,1,A2,4,0.,0

R=1.0914082
RH1=1.0950072
RH2=1.09569171
A=83.43113504
A1=137.05340826
A2=114.54750566

$end

$comment
negative
$end

$xc_functional
   X HF 1.0
   X BNL 1.0
   C LYP 1.0
$end

$rem
SYMMETRY_DECOMPOSITION	0
exchange 		general
BASIS                   g3large
omega			200
separate_jk		true
mem_static              760
max_scf_cycles          200
scf_final_print         1
sym_ignore              true
$end

--------------------------------------------------------------
 Writing REM_CC_EA           12
 ----------------------------------------------------
       Standard Nuclear Orientation (Angstroms)
    I     Atom         X            Y            Z
 ----------------------------------------------------
    1      C       1.084243     0.000000     0.124854
    2      C      -1.084243     0.000000     0.124854
    3      C       0.000000     1.084243    -0.124854
    4      C       0.000000    -1.084243    -0.124854
    5      H       1.965860     0.000000    -0.524601
    6      H       1.422442     0.000000     1.167045
    7      H      -1.965860     0.000000    -0.524601
    8      H      -1.422442     0.000000     1.167045
    9      H       0.000000     1.965860     0.524601
   10      H       0.000000     1.422442    -1.167045
   11      H       0.000000    -1.965860     0.524601
   12      H       0.000000    -1.422442    -1.167045
 ----------------------------------------------------
 Nuclear Repulsion Energy =   126.6890525944 hartrees
 There are       17 alpha and       16 beta electrons
 Requested basis set is G3large
 There are 88 shells and 248 basis functions

Total QAlloc Memory Limit   2000 MB
Mega-Array Size       743 MB
MEM_STATIC part       760 MB

                       Distance Matrix (Angstroms)
             C (  1)   C (  2)   C (  3)   C (  4)   H (  5)   H (  6)
   C (  2)  2.168486
   C (  3)  1.553551  1.553551
   C (  4)  1.553551  1.553551  2.168486
   H (  5)  1.095007  3.118481  2.280348  2.280348
   H (  6)  1.095692  2.714707  2.206338  2.206338  1.776786
   H (  7)  3.118481  1.095007  2.280348  2.280348  3.931720  3.787118
   H (  8)  2.714707  1.095692  2.206338  2.206338  3.787118  2.844884
   H (  9)  2.280348  2.280348  1.095007  3.118481  2.971538  2.510116
   H ( 10)  2.206338  2.206338  1.095692  2.714707  2.510116  3.081341
   H ( 11)  2.280348  2.280348  3.118481  1.095007  2.971538  2.510116
   H ( 12)  2.206338  2.206338  2.714707  1.095692  2.510116  3.081341
             H (  7)   H (  8)   H (  9)   H ( 10)   H ( 11)
   H (  8)  1.776786
   H (  9)  2.971538  2.510116
   H ( 10)  2.510116  3.081341  1.776786
   H ( 11)  2.971538  2.510116  3.931720  3.787118
   H ( 12)  2.510116  3.081341  3.787118  2.844884  1.776786
 
 A cutoff of  1.0D-08 yielded   3734 shell pairs
 There are  29870 function pairs ( 36100 Cartesian)
Evaluating contribution to one-electron hamiltonian from nuclear
 Smallest overlap matrix eigenvalue = 1.07E-05

 Q-Chem warning in module mkSTV.C, line 194:

 Overlap eigenvalue is smaller than square root of threshold

 Multipole matrices computed through 2nd order

  Scale SEOQF with 1.000000e-01/1.000000e-01/1.000000e-01

 Standard Electronic Orientation quadrupole field applied
 Nucleus-field energy     =     0.0000000020 hartrees
 Guess from superposition of atomic densities
 Warning:  Energy on first SCF cycle will be non-variational
 An unrestricted hybrid HF-DFT SCF calculation will be
 performed using Pulay DIIS extrapolation
 Exchange:     1.0000 Hartree-Fock + 1.0000 BNL
 Correlation:  1.0000 LYP
 Using SG-1 standard quadrature grid
 SCF converges when DIIS error is below 1.0E-05
 Warning!  Inaccurate integrated density:
   Number of electrons =    33
   Numerical integral  =    32.000678710452
   Relative error      =    -3.0282463320 %
 ---------------------------------------
  Cycle       Energy         DIIS Error
 ---------------------------------------
    1    -156.0076876779      2.88E-02
    2    -154.8760542747      3.72E-03
    3    -154.8677455167      4.26E-03
    4    -155.0067317397      2.39E-04
    5    -155.0078506212      7.16E-05
    6    -155.0081149599      2.11E-05
    7    -155.0081931218      6.50E-06 Convergence criterion met
 ---------------------------------------
 One-Electron    Energy =  -464.8348869154
 Total Coulomb   Energy =   205.5580470237
 Alpha Exchange  Energy =    -1.7814365159
 Beta  Exchange  Energy =    -1.7263151195
 DFT   Exchange  Energy =   -17.8796742221
 DFT Correlation Energy =    -1.0329799690
 Nuclear Repu.   Energy =   126.6890525964
 Nuclear Attr.   Energy =  -619.1765779541
 Kinetic         Energy =   154.3416910387
 <S^2> = 0.7501
 SCF time:  CPU 214.83 s  wall 238.38 s
 Final Alpha MO Eigenvalues
            1           2           3           4           5           6
    1  -9.7151573  -9.7150944  -9.7148581  -9.7147899  -0.7307112  -0.5528815
            7           8           9          10          11          12
    1  -0.5528745  -0.4482375  -0.3910992  -0.3893175  -0.2931535  -0.2931532
           13          14          15          16          17          18
    1  -0.2748392  -0.2216324  -0.2216233  -0.2204267   0.0352674   0.1339158
           19          20          21          22
    1   0.1359398   0.1359792   0.1638025   0.1757425
 Final Beta MO Eigenvalues
            1           2           3           4           5           6
    1  -9.7147519  -9.7146881  -9.7144502  -9.7143824  -0.7303075  -0.5520645
            7           8           9          10          11          12
    1  -0.5520634  -0.4471472  -0.3902628  -0.3880753  -0.2924666  -0.2924657
           13          14          15          16          17          18
    1  -0.2742768  -0.2209143  -0.2209102  -0.2197287   0.1295054   0.1391179
           19          20          21
    1   0.1391298   0.1415502   0.1559594
 Analysis of SCF Wavefunction
 
 --------------------------------------------------------------
                    Orbital Energies (a.u.)
 --------------------------------------------------------------
 
 Alpha MOs
 -- Occupied --
 -9.715  -9.715  -9.715  -9.715  -0.731  -0.553  -0.553  -0.448
 -0.391  -0.389  -0.293  -0.293  -0.275  -0.222  -0.222  -0.220
  0.035
 -- Virtual --
  0.134   0.136   0.136   0.164   0.176   0.176   0.176   0.230
  0.245   0.245   0.253   0.262   0.271   0.271   0.279   0.285
  0.287   0.289   0.289   0.303   0.318   0.318   0.319   0.355
  0.385   0.385   0.420   0.429   0.429   0.431   0.477   0.477
  0.480   0.507   0.556   0.617   0.626   0.639   0.639   0.653
  0.663   0.712   0.715   0.715   0.731   0.731   0.744   0.749
  0.749   0.777   0.781   0.795   0.817   0.826   0.826   0.892
  0.898   0.946   0.980   0.980   1.048   1.048   1.085   1.104
  1.111   1.111   1.235   1.245   1.293   1.293   1.329   1.356
  1.363   1.366   1.386   1.386   1.394   1.421   1.445   1.445
  1.504   1.509   1.509   1.528   1.560   1.560   1.564   1.572
  1.582   1.582   1.637   1.637   1.651   1.679   1.744   1.768
  1.768   1.769   1.792   1.794   1.869   1.869   1.969   2.622
  2.680   2.681   2.737   2.737   2.857   2.873   2.912   2.915
  2.915   2.958   2.961   2.994   2.998   2.998   3.023   3.027
  3.027   3.111   3.111   3.190   3.212   3.212   3.336   3.355
  3.377   3.377   3.391   3.469   3.478   3.482   3.482   3.518
  3.561   3.600   3.600   3.637   3.690   3.714   3.754   3.754
  3.810   3.810   3.942   3.942   3.942   3.948   3.958   3.964
  4.002   4.002   4.003   4.024   4.158   4.158   4.208   4.281
  4.314   4.323   4.323   4.342   4.406   4.406   4.446   4.510
  4.535   4.535   4.554   4.634   4.652   4.652   4.683   4.724
  4.724   4.776   4.793   4.822   4.924   4.924   5.029   5.047
  5.047   5.055   5.425   5.511   5.630   5.630   5.656   5.802
  5.802   5.831   5.969  24.327  24.438  24.438  24.480  27.512
 27.852  27.858  27.858  28.254  28.254  28.312  28.337  28.449
 28.498  28.498  28.770  40.975  40.981  40.981  41.001  41.034
 41.042  41.047  41.047  41.293  41.314  41.318  41.318  41.338
 41.375  41.392  41.392  41.394  41.401  41.401  41.470
 
 Beta MOs
 -- Occupied --
 -9.715  -9.715  -9.714  -9.714  -0.730  -0.552  -0.552  -0.447
 -0.390  -0.388  -0.292  -0.292  -0.274  -0.221  -0.221  -0.220
 -- Virtual --
  0.130   0.139   0.139   0.142   0.156   0.168   0.168   0.169
  0.224   0.236   0.236   0.245   0.254   0.263   0.263   0.276
  0.279   0.280   0.284   0.284   0.297   0.311   0.311   0.312
  0.352   0.384   0.384   0.416   0.426   0.426   0.430   0.472
  0.472   0.478   0.504   0.553   0.614   0.624   0.637   0.637
  0.651   0.663   0.709   0.714   0.714   0.729   0.729   0.741
  0.746   0.746   0.776   0.779   0.794   0.814   0.824   0.824
  0.889   0.897   0.947   0.980   0.980   1.049   1.049   1.085
  1.104   1.112   1.112   1.236   1.246   1.293   1.293   1.330
  1.357   1.363   1.365   1.385   1.385   1.394   1.420   1.445
  1.445   1.503   1.509   1.509   1.528   1.561   1.561   1.564
  1.572   1.581   1.581   1.638   1.638   1.650   1.679   1.744
  1.769   1.769   1.770   1.792   1.794   1.870   1.870   1.970
  2.623   2.680   2.682   2.737   2.737   2.857   2.873   2.912
  2.916   2.916   2.959   2.961   2.995   2.998   2.998   3.023
  3.027   3.027   3.111   3.111   3.190   3.213   3.213   3.336
  3.356   3.378   3.378   3.392   3.470   3.479   3.483   3.483
  3.519   3.561   3.601   3.601   3.637   3.690   3.715   3.755
  3.755   3.810   3.810   3.943   3.943   3.943   3.948   3.959
  3.965   4.003   4.003   4.003   4.025   4.159   4.159   4.209
  4.282   4.315   4.324   4.324   4.342   4.407   4.407   4.446
  4.511   4.535   4.535   4.554   4.634   4.652   4.652   4.684
  4.725   4.725   4.776   4.793   4.822   4.925   4.925   5.030
  5.047   5.047   5.056   5.426   5.512   5.631   5.631   5.657
  5.803   5.803   5.832   5.970  24.327  24.439  24.439  24.481
 27.512  27.852  27.858  27.858  28.254  28.254  28.313  28.337
 28.450  28.499  28.499  28.770  40.975  40.982  40.982  41.001
 41.035  41.042  41.048  41.048  41.294  41.315  41.319  41.319
 41.338  41.375  41.393  41.393  41.394  41.402  41.402  41.471
 --------------------------------------------------------------
 
          Ground-State Mulliken Net Atomic Charges

     Atom                 Charge (a.u.)    Spin (a.u.)
  --------------------------------------------------------
      1 C                     0.388464      -0.648901
      2 C                     0.392624      -0.652578
      3 C                     0.388284      -0.648727
      4 C                     0.391704      -0.651757
      5 H                    -0.451046       0.574488
      6 H                    -0.187976       0.324809
      7 H                    -0.451395       0.574767
      8 H                    -0.190077       0.326861
      9 H                    -0.450836       0.574260
     10 H                    -0.188443       0.325285
     11 H                    -0.451212       0.574590
     12 H                    -0.190092       0.326902
  --------------------------------------------------------
  Sum of atomic charges =    -1.000000
  Sum of spin   charges =     1.000000

 -----------------------------------------------------------------
                    Cartesian Multipole Moments
 -----------------------------------------------------------------
    Charge (ESU x 10^10)
                -4.8032
    Dipole Moment (Debye)
         X       0.0060      Y       0.0050      Z       0.0026
       Tot       0.0083
    Quadrupole Moments (Debye-Ang)
        XX     -55.2129     XY       0.0205     YY     -55.2103
        XZ       0.0089     YZ      -0.0067     ZZ     -57.6782
    Octapole Moments (Debye-Ang^2)
       XXX       0.0978    XXY       0.0268    XYY       0.0326
       YYY       0.0810    XXZ       6.8920    XYZ       0.0000
       YYZ      -6.8682    XZZ       0.0442    YZZ       0.0360
       ZZZ       0.0325
    Hexadecapole Moments (Debye-Ang^3)
      XXXX    -551.7887   XXXY       0.1738   XXYY    -167.5856
      XYYY       0.1738   YYYY    -551.7265   XXXZ       0.0894
      XXYZ      -0.0219   XYYZ       0.0288   YYYZ      -0.0662
      XXZZ    -166.1686   XYZZ       0.0610   YYZZ    -166.1610
      XZZZ       0.1000   YZZZ      -0.0761   ZZZZ    -443.1187
 -----------------------------------------------------------------
 Total job time:  241.41s(wall), 215.22s(cpu) 
 Mon Apr 11 18:11:28 2011

        *************************************************************
        *                                                           *
        *  Thank you very much for using Q-Chem.  Have a nice day.  *
        *                                                           *
        *************************************************************


0 sent ACK to 0 
now end server 0 ... 
 
**********************************************************************
Job 2 of 3 
**********************************************************************
 
Process 0 of 1 is on cl151.stfx.acenet.ca - thread support 1
initial socket setup ...start
initial socket setup ...done 
now start server 0 ... 

cmd = /usr/bin/ssh clhead /usr/local/qchem/bin/get_hostid 1801437560 > /globalscratch/itamblyn/bnl/g297_b3lyp_neut_g03Large/g2g71086/omega200/qchem9829/lic.dat
                  Welcome to Q-Chem
     A Quantum Leap Into The Future Of Chemistry

 Y. Shao, L. Fusti-Molnar, Y. Jung, J. Kussmann, C. Ochsenfeld,
 S. T. Brown, A. T. B. Gilbert, L. V. Slipchenko,S. V. Levchenko,
 D. P. O'Neill, R. A. DiStasio Jr., R. C. Lochan, T. Wang,
 G. J. O. Beran, N. A. Besley, J. M. Herbert, C. Y. Lin,
 T. Van Voorhis, S. H. Chien, A. Sodt, R. P. Steele, 
 V. A. Rassolov, P. E. Maslen, P. P. Korambath, R. D. Adamson,
 B. Austin, J. Baker, E. F. C. Byrd, H. Dachsel, R. J. Doerksen,
 A. Dreuw, B. D. Dunietz, A. D. Dutoi, T. R. Furlani,
 S. R. Gwaltney, A. Heyden, S. Hirata, C.-P. Hsu, G. Kedziora,
 R. Z. Khaliullin, P. Klunzinger, A. M. Lee, M. S. Lee, W. Liang,
 I. Lotan, N. Nair, B. Peters, E. I. Proynov, P. A. Pieniazek, 
 Y. M. Rhee, J. Ritchie, E. Rosta, C. D. Sherrill, 
 A. C. Simmonett, J. E. Subotnik, H. L. Woodcock III,
 W. Zhang, A. T. Bell, A. K. Chakraborty, D. M. Chipman,
 F. J. Keil, A. Warshel, W. J. Hehre, H. F. Schaefer III,
 J. Kong, A. I. Krylov, P. M. W. Gill, M. Head-Gordon,
 Q-Chem, Version 3.1, Q-Chem, Inc., Pittsburgh, PA (2007).

 Additional authors for Version 3.1: 
 Z. Gan, Y. Zhao, N. E. Schultz, D. Truhlar, E. Epifanovsky and M. Oana.

 Additional authors for Version 3.2: 
 R. Baer, B. R. Brooks, D. Casanova, J.-D. Chai, C.-L. Cheng, 
 C. Cramer, D. Crittenden, A. Ghysels, G. Hawkins, E. G. Hohenstein, 
 C. Kelley, W. Kurlancheek, D. Liotard, E. Livshits, P. Manohar, 
 A. Marenich, D. Neuhauser, R. Olson, M. A. Rohrdanz, K. S. Thanthiriwatte, 
 A. J. W. Thom, V. Vanovschi, C. F. Williams, Q. Wu and Z.-Q. You. 


 Intel X86 Linux Version

 Q-chem begins on Mon Apr 11 18:11:31 2011  

 Parallel job on  1  processors
Processing $rem in /usr/local/qchem/config/preferences.

theFileMan(): MAXOPENFILES=974 MAX_SUB_FILE_NUM=16
Maximum size of a physical file is 2.0 GB, maximum size of a tmp-file is 32.0 GB


--------------------------------------------------------------
User input:
--------------------------------------------------------------

$molecule
0,1
X
X,1,1.
X,1,1.,2,90.
X,1,1.,3,90.,2,180.,0
C,1,R,2,A,3,0.,0
C,1,R,2,A,3,180.,0
C,1,R,4,A,3,90.,0
C,1,R,4,A,3,-90.,0
H,5,RH1,1,A1,2,180.,0
H,5,RH2,1,A2,2,0.,0
H,6,RH1,1,A1,2,180.,0
H,6,RH2,1,A2,3,0.,0
H,7,RH1,1,A1,4,180.,0
H,7,RH2,1,A2,4,0.,0
H,8,RH1,1,A1,4,180.,0
H,8,RH2,1,A2,4,0.,0

R=1.0914082
RH1=1.0950072
RH2=1.09569171
A=83.43113504
A1=137.05340826
A2=114.54750566

$end

$comment
neutral
$end

$xc_functional
   X HF 1.0
   X BNL 1.0
   C LYP 1.0
$end

$rem
SYMMETRY_DECOMPOSITION	0
exchange 		general
BASIS                   g3large
omega			200
separate_jk		true
mem_static              760
max_scf_cycles          200
scf_final_print         1
sym_ignore              true
$end

--------------------------------------------------------------
 Writing REM_CC_EA           12
 ----------------------------------------------------
       Standard Nuclear Orientation (Angstroms)
    I     Atom         X            Y            Z
 ----------------------------------------------------
    1      C       1.084243     0.000000     0.124854
    2      C      -1.084243     0.000000     0.124854
    3      C       0.000000     1.084243    -0.124854
    4      C       0.000000    -1.084243    -0.124854
    5      H       1.965860     0.000000    -0.524601
    6      H       1.422442     0.000000     1.167045
    7      H      -1.965860     0.000000    -0.524601
    8      H      -1.422442     0.000000     1.167045
    9      H       0.000000     1.965860     0.524601
   10      H       0.000000     1.422442    -1.167045
   11      H       0.000000    -1.965860     0.524601
   12      H       0.000000    -1.422442    -1.167045
 ----------------------------------------------------
 Nuclear Repulsion Energy =   126.6890525944 hartrees
 There are       16 alpha and       16 beta electrons
 Requested basis set is G3large
 There are 88 shells and 248 basis functions

Total QAlloc Memory Limit   2000 MB
Mega-Array Size       743 MB
MEM_STATIC part       760 MB

                       Distance Matrix (Angstroms)
             C (  1)   C (  2)   C (  3)   C (  4)   H (  5)   H (  6)
   C (  2)  2.168486
   C (  3)  1.553551  1.553551
   C (  4)  1.553551  1.553551  2.168486
   H (  5)  1.095007  3.118481  2.280348  2.280348
   H (  6)  1.095692  2.714707  2.206338  2.206338  1.776786
   H (  7)  3.118481  1.095007  2.280348  2.280348  3.931720  3.787118
   H (  8)  2.714707  1.095692  2.206338  2.206338  3.787118  2.844884
   H (  9)  2.280348  2.280348  1.095007  3.118481  2.971538  2.510116
   H ( 10)  2.206338  2.206338  1.095692  2.714707  2.510116  3.081341
   H ( 11)  2.280348  2.280348  3.118481  1.095007  2.971538  2.510116
   H ( 12)  2.206338  2.206338  2.714707  1.095692  2.510116  3.081341
             H (  7)   H (  8)   H (  9)   H ( 10)   H ( 11)
   H (  8)  1.776786
   H (  9)  2.971538  2.510116
   H ( 10)  2.510116  3.081341  1.776786
   H ( 11)  2.971538  2.510116  3.931720  3.787118
   H ( 12)  2.510116  3.081341  3.787118  2.844884  1.776786
 
 A cutoff of  1.0D-08 yielded   3734 shell pairs
 There are  29870 function pairs ( 36100 Cartesian)
Evaluating contribution to one-electron hamiltonian from nuclear
 Smallest overlap matrix eigenvalue = 1.07E-05

 Q-Chem warning in module mkSTV.C, line 194:

 Overlap eigenvalue is smaller than square root of threshold

 Multipole matrices computed through 2nd order

  Scale SEOQF with 1.000000e-01/1.000000e-01/1.000000e-01

 Standard Electronic Orientation quadrupole field applied
 Nucleus-field energy     =     0.0000000020 hartrees
 Guess from superposition of atomic densities
 Warning:  Energy on first SCF cycle will be non-variational
 A restricted hybrid HF-DFT SCF calculation will be
 performed using Pulay DIIS extrapolation
 Exchange:     1.0000 Hartree-Fock + 1.0000 BNL
 Correlation:  1.0000 LYP
 Using SG-1 standard quadrature grid
 SCF converges when DIIS error is below 1.0E-05
 ---------------------------------------
  Cycle       Energy         DIIS Error
 ---------------------------------------
    1    -156.0076876779      2.88E-02
    2    -154.9530530448      3.35E-03
    3    -154.9518034728      3.48E-03
    4    -155.0410324431      2.38E-04
    5    -155.0414160631      4.70E-05
    6    -155.0414375377      7.18E-06 Convergence criterion met
 ---------------------------------------
 One-Electron    Energy =  -460.4922903711
 Total Coulomb   Energy =   201.1026520870
 Alpha Exchange  Energy =    -1.7271242896
 Beta  Exchange  Energy =    -1.7271242896
 DFT   Exchange  Energy =   -17.8612004619
 DFT Correlation Energy =    -1.0254028089
 Nuclear Repu.   Energy =   126.6890525964
 Nuclear Attr.   Energy =  -614.7590319889
 Kinetic         Energy =   154.2667416177
 SCF time:  CPU 140.01 s  wall 165.28 s
 Final Alpha MO Eigenvalues
            1           2           3           4           5           6
    1  -9.8522024  -9.8521534  -9.8521087  -9.8520609  -0.8674218  -0.6891214
            7           8           9          10          11          12
    1  -0.6891172  -0.5845623  -0.5272437  -0.5245843  -0.4296552  -0.4296545
           13          14          15          16          17          18
    1  -0.4110579  -0.3573311  -0.3573259  -0.3567627   0.0298390   0.0433791
           19          20          21
    1   0.0450712   0.0450765   0.0690488
 Analysis of SCF Wavefunction
 
 --------------------------------------------------------------
                    Orbital Energies (a.u.)
 --------------------------------------------------------------
 
 Alpha MOs
 -- Occupied --
 -9.852  -9.852  -9.852  -9.852  -0.867  -0.689  -0.689  -0.585
 -0.527  -0.525  -0.430  -0.430  -0.411  -0.357  -0.357  -0.357
 -- Virtual --
  0.030   0.043   0.045   0.045   0.069   0.078   0.078   0.078
  0.116   0.132   0.132   0.138   0.150   0.157   0.157   0.166
  0.166   0.175   0.176   0.176   0.191   0.203   0.203   0.206
  0.233   0.258   0.258   0.296   0.299   0.305   0.305   0.354
  0.354   0.354   0.384   0.432   0.490   0.499   0.511   0.511
  0.523   0.528   0.583   0.585   0.585   0.602   0.602   0.613
  0.620   0.620   0.648   0.652   0.664   0.686   0.697   0.697
  0.764   0.765   0.811   0.847   0.847   0.913   0.913   0.949
  0.970   0.976   0.976   1.101   1.111   1.159   1.159   1.196
  1.221   1.229   1.232   1.252   1.252   1.259   1.289   1.311
  1.311   1.370   1.376   1.376   1.393   1.427   1.427   1.431
  1.439   1.449   1.449   1.503   1.503   1.519   1.547   1.611
  1.635   1.635   1.637   1.657   1.659   1.734   1.734   1.834
  2.487   2.543   2.545   2.603   2.603   2.720   2.737   2.776
  2.779   2.779   2.822   2.825   2.858   2.862   2.862   2.887
  2.890   2.890   2.975   2.975   3.053   3.076   3.076   3.199
  3.220   3.240   3.240   3.256   3.333   3.342   3.347   3.347
  3.382   3.426   3.465   3.465   3.500   3.554   3.578   3.618
  3.618   3.673   3.673   3.806   3.806   3.806   3.811   3.822
  3.828   3.866   3.866   3.867   3.888   4.022   4.022   4.072
  4.145   4.178   4.187   4.187   4.206   4.270   4.270   4.310
  4.374   4.398   4.398   4.418   4.498   4.516   4.516   4.547
  4.588   4.588   4.639   4.656   4.685   4.788   4.788   4.893
  4.911   4.911   4.919   5.289   5.375   5.494   5.494   5.520
  5.666   5.666   5.694   5.833  24.190  24.301  24.301  24.343
 27.374  27.714  27.721  27.721  28.117  28.117  28.175  28.200
 28.312  28.361  28.361  28.633  40.838  40.844  40.844  40.864
 40.897  40.905  40.910  40.910  41.156  41.177  41.181  41.181
 41.201  41.238  41.255  41.255  41.257  41.264  41.264  41.333
 --------------------------------------------------------------
 
          Ground-State Mulliken Net Atomic Charges

     Atom                 Charge (a.u.)
  ----------------------------------------
      1 C                    -0.283263
      2 C                    -0.283171
      3 C                    -0.282732
      4 C                    -0.282738
      5 H                     0.136889
      6 H                     0.146115
      7 H                     0.136858
      8 H                     0.146128
      9 H                     0.136848
     10 H                     0.146102
     11 H                     0.136847
     12 H                     0.146116
  ----------------------------------------
  Sum of atomic charges =     0.000000

 -----------------------------------------------------------------
                    Cartesian Multipole Moments
 -----------------------------------------------------------------
    Charge (ESU x 10^10)
                 0.0000
    Dipole Moment (Debye)
         X       0.0003      Y       0.0002      Z       0.0000
       Tot       0.0004
    Quadrupole Moments (Debye-Ang)
        XX     -28.2051     XY      -0.0009     YY     -28.2050
        XZ      -0.0001     YZ       0.0001     ZZ     -26.7103
    Octapole Moments (Debye-Ang^2)
       XXX      -0.0010    XXY       0.0001    XYY       0.0001
       YYY      -0.0007    XXZ      -0.7395    XYZ       0.0000
       YYZ       0.7396    XZZ      -0.0005    YZZ      -0.0003
       ZZZ       0.0000
    Hexadecapole Moments (Debye-Ang^3)
      XXXX    -168.2626   XXXY      -0.0040   XXYY     -59.1518
      XYYY      -0.0040   YYYY    -168.2623   XXXZ       0.0002
      XXYZ       0.0001   XYYZ      -0.0001   YYYZ      -0.0001
      XXZZ     -37.3118   XYZZ      -0.0003   YYZZ     -37.3118
      XZZZ      -0.0004   YZZZ       0.0003   ZZZZ     -64.2380
 -----------------------------------------------------------------
 Total job time:  167.74s(wall), 140.35s(cpu) 
 Mon Apr 11 18:14:19 2011

        *************************************************************
        *                                                           *
        *  Thank you very much for using Q-Chem.  Have a nice day.  *
        *                                                           *
        *************************************************************


0 sent ACK to 0 
now end server 0 ... 
 
**********************************************************************
Job 3 of 3 
**********************************************************************
 
Process 0 of 1 is on cl151.stfx.acenet.ca - thread support 1
initial socket setup ...start
initial socket setup ...done 
now start server 0 ... 

cmd = /usr/bin/ssh clhead /usr/local/qchem/bin/get_hostid 271101612 > /globalscratch/itamblyn/bnl/g297_b3lyp_neut_g03Large/g2g71086/omega200/qchem9829/lic.dat
                  Welcome to Q-Chem
     A Quantum Leap Into The Future Of Chemistry

 Y. Shao, L. Fusti-Molnar, Y. Jung, J. Kussmann, C. Ochsenfeld,
 S. T. Brown, A. T. B. Gilbert, L. V. Slipchenko,S. V. Levchenko,
 D. P. O'Neill, R. A. DiStasio Jr., R. C. Lochan, T. Wang,
 G. J. O. Beran, N. A. Besley, J. M. Herbert, C. Y. Lin,
 T. Van Voorhis, S. H. Chien, A. Sodt, R. P. Steele, 
 V. A. Rassolov, P. E. Maslen, P. P. Korambath, R. D. Adamson,
 B. Austin, J. Baker, E. F. C. Byrd, H. Dachsel, R. J. Doerksen,
 A. Dreuw, B. D. Dunietz, A. D. Dutoi, T. R. Furlani,
 S. R. Gwaltney, A. Heyden, S. Hirata, C.-P. Hsu, G. Kedziora,
 R. Z. Khaliullin, P. Klunzinger, A. M. Lee, M. S. Lee, W. Liang,
 I. Lotan, N. Nair, B. Peters, E. I. Proynov, P. A. Pieniazek, 
 Y. M. Rhee, J. Ritchie, E. Rosta, C. D. Sherrill, 
 A. C. Simmonett, J. E. Subotnik, H. L. Woodcock III,
 W. Zhang, A. T. Bell, A. K. Chakraborty, D. M. Chipman,
 F. J. Keil, A. Warshel, W. J. Hehre, H. F. Schaefer III,
 J. Kong, A. I. Krylov, P. M. W. Gill, M. Head-Gordon,
 Q-Chem, Version 3.1, Q-Chem, Inc., Pittsburgh, PA (2007).

 Additional authors for Version 3.1: 
 Z. Gan, Y. Zhao, N. E. Schultz, D. Truhlar, E. Epifanovsky and M. Oana.

 Additional authors for Version 3.2: 
 R. Baer, B. R. Brooks, D. Casanova, J.-D. Chai, C.-L. Cheng, 
 C. Cramer, D. Crittenden, A. Ghysels, G. Hawkins, E. G. Hohenstein, 
 C. Kelley, W. Kurlancheek, D. Liotard, E. Livshits, P. Manohar, 
 A. Marenich, D. Neuhauser, R. Olson, M. A. Rohrdanz, K. S. Thanthiriwatte, 
 A. J. W. Thom, V. Vanovschi, C. F. Williams, Q. Wu and Z.-Q. You. 


 Intel X86 Linux Version

 Q-chem begins on Mon Apr 11 18:14:22 2011  

 Parallel job on  1  processors
Processing $rem in /usr/local/qchem/config/preferences.

theFileMan(): MAXOPENFILES=974 MAX_SUB_FILE_NUM=16
Maximum size of a physical file is 2.0 GB, maximum size of a tmp-file is 32.0 GB


--------------------------------------------------------------
User input:
--------------------------------------------------------------

$molecule
1,2
X
X,1,1.
X,1,1.,2,90.
X,1,1.,3,90.,2,180.,0
C,1,R,2,A,3,0.,0
C,1,R,2,A,3,180.,0
C,1,R,4,A,3,90.,0
C,1,R,4,A,3,-90.,0
H,5,RH1,1,A1,2,180.,0
H,5,RH2,1,A2,2,0.,0
H,6,RH1,1,A1,2,180.,0
H,6,RH2,1,A2,3,0.,0
H,7,RH1,1,A1,4,180.,0
H,7,RH2,1,A2,4,0.,0
H,8,RH1,1,A1,4,180.,0
H,8,RH2,1,A2,4,0.,0

R=1.0914082
RH1=1.0950072
RH2=1.09569171
A=83.43113504
A1=137.05340826
A2=114.54750566

$end

$comment
positive
$end

$xc_functional
   X HF 1.0
   X BNL 1.0
   C LYP 1.0
$end

$rem
SYMMETRY_DECOMPOSITION	0
exchange 		general
BASIS                   g3large
omega			200
separate_jk		true
mem_static              760
max_scf_cycles          200
scf_final_print         1
sym_ignore              true
$end

--------------------------------------------------------------
 Writing REM_CC_EA           12
 ----------------------------------------------------
       Standard Nuclear Orientation (Angstroms)
    I     Atom         X            Y            Z
 ----------------------------------------------------
    1      C       1.084243     0.000000     0.124854
    2      C      -1.084243     0.000000     0.124854
    3      C       0.000000     1.084243    -0.124854
    4      C       0.000000    -1.084243    -0.124854
    5      H       1.965860     0.000000    -0.524601
    6      H       1.422442     0.000000     1.167045
    7      H      -1.965860     0.000000    -0.524601
    8      H      -1.422442     0.000000     1.167045
    9      H       0.000000     1.965860     0.524601
   10      H       0.000000     1.422442    -1.167045
   11      H       0.000000    -1.965860     0.524601
   12      H       0.000000    -1.422442    -1.167045
 ----------------------------------------------------
 Nuclear Repulsion Energy =   126.6890525944 hartrees
 There are       16 alpha and       15 beta electrons
 Requested basis set is G3large
 There are 88 shells and 248 basis functions

Total QAlloc Memory Limit   2000 MB
Mega-Array Size       743 MB
MEM_STATIC part       760 MB

                       Distance Matrix (Angstroms)
             C (  1)   C (  2)   C (  3)   C (  4)   H (  5)   H (  6)
   C (  2)  2.168486
   C (  3)  1.553551  1.553551
   C (  4)  1.553551  1.553551  2.168486
   H (  5)  1.095007  3.118481  2.280348  2.280348
   H (  6)  1.095692  2.714707  2.206338  2.206338  1.776786
   H (  7)  3.118481  1.095007  2.280348  2.280348  3.931720  3.787118
   H (  8)  2.714707  1.095692  2.206338  2.206338  3.787118  2.844884
   H (  9)  2.280348  2.280348  1.095007  3.118481  2.971538  2.510116
   H ( 10)  2.206338  2.206338  1.095692  2.714707  2.510116  3.081341
   H ( 11)  2.280348  2.280348  3.118481  1.095007  2.971538  2.510116
   H ( 12)  2.206338  2.206338  2.714707  1.095692  2.510116  3.081341
             H (  7)   H (  8)   H (  9)   H ( 10)   H ( 11)
   H (  8)  1.776786
   H (  9)  2.971538  2.510116
   H ( 10)  2.510116  3.081341  1.776786
   H ( 11)  2.971538  2.510116  3.931720  3.787118
   H ( 12)  2.510116  3.081341  3.787118  2.844884  1.776786
 
 A cutoff of  1.0D-08 yielded   3734 shell pairs
 There are  29870 function pairs ( 36100 Cartesian)
Evaluating contribution to one-electron hamiltonian from nuclear
 Smallest overlap matrix eigenvalue = 1.07E-05

 Q-Chem warning in module mkSTV.C, line 194:

 Overlap eigenvalue is smaller than square root of threshold

 Multipole matrices computed through 2nd order

  Scale SEOQF with 1.000000e-01/1.000000e-01/1.000000e-01

 Standard Electronic Orientation quadrupole field applied
 Nucleus-field energy     =     0.0000000020 hartrees
 Guess from superposition of atomic densities
 Warning:  Energy on first SCF cycle will be non-variational
 An unrestricted hybrid HF-DFT SCF calculation will be
 performed using Pulay DIIS extrapolation
 Exchange:     1.0000 Hartree-Fock + 1.0000 BNL
 Correlation:  1.0000 LYP
 Using SG-1 standard quadrature grid
 SCF converges when DIIS error is below 1.0E-05
 Warning!  Inaccurate integrated density:
   Number of electrons =    31
   Numerical integral  =    32.000678710452
   Relative error      =     3.2279958402 %
 ---------------------------------------
  Cycle       Energy         DIIS Error
 ---------------------------------------
    1    -156.0076876779      2.88E-02
    2    -154.6356905677      1.51E-03
    3    -154.6489675416      7.60E-04
    4    -154.6525831219      3.49E-04
    5    -154.6535312326      5.27E-05
    6    -154.6535733448      3.14E-05
    7    -154.6535951161      1.41E-05
    8    -154.6536204656      1.06E-05
    9    -154.6536474982      1.09E-05
   10    -154.6534880295      1.08E-05
   11    -154.6533664628      1.35E-05
   12    -154.6533673938      1.33E-05
   13    -154.6533351882      1.20E-05
   14    -154.6533461700      9.99E-06 Convergence criterion met
 ---------------------------------------
 One-Electron    Energy =  -452.3949520680
 Total Coulomb   Energy =   193.0667527385
 Alpha Exchange  Energy =    -1.7317187716
 Beta  Exchange  Energy =    -1.6168230989
 DFT   Exchange  Energy =   -17.6727765980
 DFT Correlation Energy =    -0.9928809684
 Nuclear Repu.   Energy =   126.6890525964
 Nuclear Attr.   Energy =  -606.4168203973
 Kinetic         Energy =   154.0218683294
 <S^2> = 0.7512
 SCF time:  CPU 380.90 s  wall 429.44 s
 Final Alpha MO Eigenvalues
            1           2           3           4           5           6
    1 -10.1200738 -10.1200228 -10.1199995 -10.1199487  -1.1377627  -0.9506082
            7           8           9          10          11          12
    1  -0.9379518  -0.8280277  -0.7811793  -0.7758611  -0.6733244  -0.6725261
           13          14          15          16          17          18
    1  -0.6701316  -0.6307584  -0.6085080  -0.5952774  -0.1223625  -0.1057737
           19          20          21
    1  -0.1032564  -0.1017908  -0.0606118
 Final Beta MO Eigenvalues
            1           2           3           4           5           6
    1 -10.1159936 -10.1159334 -10.1158318 -10.1157659  -1.1227686  -0.9343691
            7           8           9          10          11          12
    1  -0.9289618  -0.8150939  -0.7641003  -0.7608469  -0.6655022  -0.6644418
           13          14          15          16          17          18
    1  -0.6568671  -0.6004333  -0.5889831  -0.4198436  -0.1207169  -0.1039238
           19          20
    1  -0.1012360  -0.0997152
 Analysis of SCF Wavefunction
 
 --------------------------------------------------------------
                    Orbital Energies (a.u.)
 --------------------------------------------------------------
 
 Alpha MOs
 -- Occupied --
-10.120 -10.120 -10.120 -10.120  -1.138  -0.951  -0.938  -0.828
 -0.781  -0.776  -0.673  -0.673  -0.670  -0.631  -0.609  -0.595
 -- Virtual --
 -0.122  -0.106  -0.103  -0.102  -0.061  -0.059  -0.049  -0.049
 -0.040  -0.038  -0.037  -0.009  -0.008   0.003   0.003   0.011
  0.014   0.020   0.031   0.031   0.044   0.052   0.053   0.061
  0.064   0.065   0.067   0.086   0.111   0.120   0.122   0.160
  0.176   0.178   0.211   0.237   0.300   0.302   0.303   0.310
  0.314   0.317   0.373   0.382   0.383   0.395   0.399   0.413
  0.422   0.424   0.437   0.446   0.450   0.485   0.500   0.501
  0.554   0.571   0.597   0.629   0.631   0.696   0.698   0.726
  0.740   0.753   0.757   0.886   0.890   0.946   0.947   0.975
  1.005   1.008   1.016   1.028   1.030   1.033   1.070   1.083
  1.088   1.149   1.150   1.153   1.169   1.199   1.201   1.212
  1.214   1.230   1.231   1.286   1.289   1.303   1.332   1.388
  1.414   1.415   1.425   1.428   1.438   1.508   1.509   1.610
  2.237   2.285   2.298   2.360   2.361   2.452   2.485   2.524
  2.530   2.533   2.567   2.583   2.603   2.609   2.615   2.635
  2.643   2.654   2.717   2.725   2.799   2.814   2.823   2.951
  2.966   2.996   2.997   2.999   3.079   3.099   3.102   3.102
  3.138   3.175   3.214   3.215   3.260   3.303   3.328   3.358
  3.359   3.418   3.424   3.548   3.550   3.552   3.563   3.572
  3.572   3.612   3.618   3.619   3.637   3.775   3.775   3.827
  3.897   3.926   3.935   3.938   3.961   4.025   4.028   4.060
  4.128   4.154   4.155   4.162   4.256   4.275   4.276   4.300
  4.337   4.337   4.399   4.413   4.434   4.524   4.534   4.633
  4.661   4.664   4.672   5.019   5.132   5.241   5.246   5.266
  5.420   5.421   5.454   5.584  23.923  24.033  24.034  24.075
 27.106  27.445  27.448  27.455  27.852  27.852  27.911  27.935
 28.045  28.090  28.096  28.365  40.567  40.573  40.573  40.593
 40.630  40.638  40.643  40.643  40.889  40.906  40.913  40.914
 40.932  40.970  40.985  40.985  40.989  40.994  40.996  41.062
 
 Beta MOs
 -- Occupied --
-10.116 -10.116 -10.116 -10.116  -1.123  -0.934  -0.929  -0.815
 -0.764  -0.761  -0.666  -0.664  -0.657  -0.600  -0.589
 -- Virtual --
 -0.420  -0.121  -0.104  -0.101  -0.100  -0.060  -0.058  -0.048
 -0.048  -0.039  -0.033  -0.033  -0.008  -0.006   0.004   0.004
  0.015   0.017   0.021   0.032   0.033   0.046   0.054   0.054
  0.062   0.068   0.069   0.069   0.093   0.116   0.125   0.125
  0.165   0.179   0.181   0.213   0.244   0.304   0.306   0.306
  0.315   0.319   0.319   0.381   0.386   0.386   0.402   0.403
  0.415   0.427   0.428   0.447   0.449   0.454   0.488   0.504
  0.506   0.558   0.575   0.599   0.633   0.635   0.700   0.701
  0.732   0.746   0.758   0.760   0.891   0.895   0.950   0.950
  0.981   1.010   1.012   1.019   1.035   1.036   1.037   1.076
  1.091   1.092   1.154   1.158   1.158   1.173   1.207   1.207
  1.219   1.220   1.236   1.236   1.292   1.293   1.308   1.338
  1.393   1.420   1.420   1.431   1.433   1.442   1.513   1.513
  1.616   2.247   2.297   2.305   2.372   2.373   2.469   2.495
  2.537   2.539   2.546   2.578   2.591   2.613   2.621   2.623
  2.648   2.649   2.660   2.730   2.732   2.809   2.829   2.831
  2.959   2.979   3.005   3.005   3.012   3.089   3.109   3.110
  3.112   3.146   3.187   3.225   3.226   3.267   3.314   3.337
  3.371   3.372   3.430   3.432   3.562   3.563   3.563   3.574
  3.578   3.583   3.623   3.625   3.629   3.646   3.785   3.785
  3.834   3.908   3.937   3.948   3.949   3.972   4.034   4.035
  4.073   4.138   4.162   4.163   4.175   4.266   4.284   4.284
  4.309   4.350   4.350   4.405   4.421   4.447   4.542   4.544
  4.648   4.672   4.672   4.681   5.037   5.138   5.254   5.255
  5.280   5.430   5.431   5.460   5.596  23.929  24.039  24.040
 24.081  27.111  27.451  27.456  27.458  27.855  27.855  27.914
 27.938  28.049  28.098  28.099  28.370  40.574  40.580  40.580
 40.600  40.635  40.642  40.647  40.647  40.893  40.913  40.918
 40.918  40.937  40.975  40.992  40.992  40.994  41.001  41.001
 41.069
 --------------------------------------------------------------
 
          Ground-State Mulliken Net Atomic Charges

     Atom                 Charge (a.u.)    Spin (a.u.)
  --------------------------------------------------------
      1 C                    -0.201440       0.196090
      2 C                    -0.202177       0.199136
      3 C                    -0.201120       0.196362
      4 C                    -0.201780       0.199403
      5 H                     0.235727       0.061809
      6 H                     0.218056      -0.004496
      7 H                     0.226951       0.038869
      8 H                     0.222505       0.008233
      9 H                     0.235749       0.061894
     10 H                     0.218050      -0.004500
     11 H                     0.227011       0.038946
     12 H                     0.222468       0.008254
  --------------------------------------------------------
  Sum of atomic charges =     1.000000
  Sum of spin   charges =     1.000000

 -----------------------------------------------------------------
                    Cartesian Multipole Moments
 -----------------------------------------------------------------
    Charge (ESU x 10^10)
                 4.8032
    Dipole Moment (Debye)
         X       0.0599      Y       0.0599      Z       0.0001
       Tot       0.0847
    Quadrupole Moments (Debye-Ang)
        XX     -17.7716     XY      -0.3245     YY     -17.7676
        XZ      -0.1913     YZ       0.1915     ZZ     -21.5351
    Octapole Moments (Debye-Ang^2)
       XXX       0.4251    XXY      -0.0111    XYY      -0.0111
       YYY       0.4253    XXZ      -0.7174    XYZ       0.0000
       YYZ       0.7180    XZZ      -0.0378    YZZ      -0.0379
       ZZZ      -0.0003
    Hexadecapole Moments (Debye-Ang^3)
      XXXX    -111.8659   XXXY      -1.3488   XXYY     -50.2504
      XYYY      -1.3487   YYYY    -111.8426   XXXZ      -0.7647
      XXYZ       0.0808   XYYZ      -0.0807   YYYZ       0.7653
      XXZZ     -26.6405   XYZZ      -0.1950   YYZZ     -26.6384
      XZZZ      -0.2367   YZZZ       0.2369   ZZZZ     -47.3482
 -----------------------------------------------------------------
 Total job time:  433.21s(wall), 381.22s(cpu) 
 Mon Apr 11 18:21:36 2011

        *************************************************************
        *                                                           *
        *  Thank you very much for using Q-Chem.  Have a nice day.  *
        *                                                           *
        *************************************************************


0 sent ACK to 0 
now end server 0 ... 
