Process 0 of 1 is on cl140.stfx.acenet.ca - thread support 1
initial socket setup ...start
initial socket setup ...done 
now start server 0 ... 

cmd = /usr/bin/ssh clhead /usr/local/qchem/bin/get_hostid 778210471 > /scratch/tmp/6063573.1.medium.q/qchem18248/lic.dat
                  Welcome to Q-Chem
     A Quantum Leap Into The Future Of Chemistry

 Y. Shao, L. Fusti-Molnar, Y. Jung, J. Kussmann, C. Ochsenfeld,
 S. T. Brown, A. T. B. Gilbert, L. V. Slipchenko,S. V. Levchenko,
 D. P. O'Neill, R. A. DiStasio Jr., R. C. Lochan, T. Wang,
 G. J. O. Beran, N. A. Besley, J. M. Herbert, C. Y. Lin,
 T. Van Voorhis, S. H. Chien, A. Sodt, R. P. Steele, 
 V. A. Rassolov, P. E. Maslen, P. P. Korambath, R. D. Adamson,
 B. Austin, J. Baker, E. F. C. Byrd, H. Dachsel, R. J. Doerksen,
 A. Dreuw, B. D. Dunietz, A. D. Dutoi, T. R. Furlani,
 S. R. Gwaltney, A. Heyden, S. Hirata, C.-P. Hsu, G. Kedziora,
 R. Z. Khaliullin, P. Klunzinger, A. M. Lee, M. S. Lee, W. Liang,
 I. Lotan, N. Nair, B. Peters, E. I. Proynov, P. A. Pieniazek, 
 Y. M. Rhee, J. Ritchie, E. Rosta, C. D. Sherrill, 
 A. C. Simmonett, J. E. Subotnik, H. L. Woodcock III,
 W. Zhang, A. T. Bell, A. K. Chakraborty, D. M. Chipman,
 F. J. Keil, A. Warshel, W. J. Hehre, H. F. Schaefer III,
 J. Kong, A. I. Krylov, P. M. W. Gill, M. Head-Gordon,
 Q-Chem, Version 3.1, Q-Chem, Inc., Pittsburgh, PA (2007).

 Additional authors for Version 3.1: 
 Z. Gan, Y. Zhao, N. E. Schultz, D. Truhlar, E. Epifanovsky and M. Oana.

 Additional authors for Version 3.2: 
 R. Baer, B. R. Brooks, D. Casanova, J.-D. Chai, C.-L. Cheng, 
 C. Cramer, D. Crittenden, A. Ghysels, G. Hawkins, E. G. Hohenstein, 
 C. Kelley, W. Kurlancheek, D. Liotard, E. Livshits, P. Manohar, 
 A. Marenich, D. Neuhauser, R. Olson, M. A. Rohrdanz, K. S. Thanthiriwatte, 
 A. J. W. Thom, V. Vanovschi, C. F. Williams, Q. Wu and Z.-Q. You. 


 Intel X86 Linux Version

 Q-chem begins on Sun Jul  7 08:38:05 2013  

 Parallel job on  1  processors
Processing $rem in /usr/local/qchem/config/preferences.

theFileMan(): MAXOPENFILES=974 MAX_SUB_FILE_NUM=16
Maximum size of a physical file is 2.0 GB, maximum size of a tmp-file is 32.0 GB


--------------------------------------------------------------
User input:
--------------------------------------------------------------

$molecule
-1,2
F         -0.02000        0.00000        0.04316
O         -0.01707        0.00000        1.39556
F         -1.33043        0.00000        1.71817
$end

$comment
negative
$end

$xc_functional
C PBE   1.00
X wPBE  1.00
$end

$rem
SYMMETRY_DECOMPOSITION	0
exchange 		general
LRC_DFT                 true
BASIS                   g3large
omega			100
mem_static              760
max_scf_cycles          200
scf_final_print         1
sym_ignore              true
$end

--------------------------------------------------------------
 Writing REM_CC_EA            3
 ----------------------------------------------------
       Standard Nuclear Orientation (Angstroms)
    I     Atom         X            Y            Z
 ----------------------------------------------------
    1      F      -0.020000     0.000000     0.043160
    2      O      -0.017070     0.000000     1.395560
    3      F      -1.330430     0.000000     1.718170
 ----------------------------------------------------
 Nuclear Repulsion Energy =    76.5000817537 hartrees
 There are       14 alpha and       13 beta electrons
 Requested basis set is G3large
 There are 30 shells and 126 basis functions

Total QAlloc Memory Limit   2000 MB
Mega-Array Size       743 MB
MEM_STATIC part       760 MB

                       Distance Matrix (Angstroms)
             F (  1)   O (  2)
   O (  2)  1.352403
   F (  3)  2.126708  1.352402
 
 A cutoff of  1.0D-08 yielded    422 shell pairs
 There are   7641 function pairs ( 10011 Cartesian)
Evaluating contribution to one-electron hamiltonian from nuclear
 Smallest overlap matrix eigenvalue = 2.33E-03
 Multipole matrices computed through 2nd order

  Scale SEOQF with 1.000000e-01/1.000000e+00/1.000000e-01

 Standard Electronic Orientation quadrupole field applied
 Nucleus-field energy     =    -0.0000000039 hartrees
 Guess from superposition of atomic densities
 Warning:  Energy on first SCF cycle will be non-variational
 Long-range K will be added via erf
 Coulomb attenuation parameter = 0.1 bohr**(-1)
 An unrestricted Kohn-Sham SCF calculation will be
 performed using Pulay DIIS extrapolation
 Exchange:  wPBE + LR-HF      Correlation:  PBE
 Using SG-1 standard quadrature grid
 SCF converges when DIIS error is below 1.0E-05
 Requested basis set is G3large
 There are 30 shells and 126 basis functions
 A cutoff of  1.0D-08 yielded    422 shell pairs
 There are   7641 function pairs ( 10011 Cartesian)
 Warning!  Inaccurate integrated density:
   Number of electrons =    27
   Numerical integral  =    25.999982500793
   Relative error      =    -3.7037685156 %
 ---------------------------------------
  Cycle       Energy         DIIS Error
 ---------------------------------------
    1    -274.8518079568      3.33E-02
    2    -274.3935588398      6.85E-03
    3    -274.3262498173      1.07E-02
    4    -274.4689560554      1.57E-03
    5    -274.4697059448      1.41E-03
    6    -274.4720850103      2.60E-04
    7    -274.4722116248      1.22E-04
    8    -274.4722435429      8.41E-05
    9    -274.4722911621      3.96E-05
   10    -274.4723168891      2.18E-05
   11    -274.4723291081      9.00E-06 Convergence criterion met
 ---------------------------------------
 One-Electron    Energy =  -541.8379051060
 Total Coulomb   Energy =   220.3308545638
 Alpha Exchange  Energy =    -0.7831362056
 Beta  Exchange  Energy =    -0.7283931332
 DFT   Exchange  Energy =   -27.0326083749
 DFT Correlation Energy =    -0.9212226020
 Nuclear Repu.   Energy =    76.5000817497
 Nuclear Attr.   Energy =  -817.1353281955
 Kinetic         Energy =   275.2974230894
 <S^2> = 0.7514
 SCF time:  CPU 29.52 s  wall 30.16 s
 Final Alpha MO Eigenvalues
            1           2           3           4           5           6
    1 -24.0484200 -24.0480500 -18.6178871  -1.0027086  -0.8856882  -0.5901776
            7           8           9          10          11          12
    1  -0.3270702  -0.2751647  -0.2391650  -0.1492817  -0.1430432  -0.1330355
           13          14          15          16          17          18
    1  -0.0003085   0.1436037   0.2730774   0.3107941   0.3639596   0.3689196
           19
    1   0.3837976
 Final Beta MO Eigenvalues
            1           2           3           4           5           6
    1 -24.0419781 -24.0415547 -18.6032993  -0.9803706  -0.8725667  -0.5706625
            7           8           9          10          11          12
    1  -0.3125228  -0.2532463  -0.2296217  -0.1429860  -0.1323580  -0.1210822
           13          14          15          16          17          18
    1   0.0126531   0.2882413   0.2938562   0.3220802   0.3828897   0.3875915
 Analysis of SCF Wavefunction
 
 --------------------------------------------------------------
                    Orbital Energies (a.u.)
 --------------------------------------------------------------
 
 Alpha MOs
 -- Occupied --
-24.048 -24.048 -18.618  -1.003  -0.886  -0.590  -0.327  -0.275
 -0.239  -0.149  -0.143  -0.133   0.000   0.144
 -- Virtual --
  0.273   0.311   0.364   0.369   0.384   0.439   0.469   0.478
  0.478   0.480   0.546   0.641   0.689   1.202   1.217   1.239
  1.379   1.452   1.494   1.501   1.517   1.586   1.640   1.664
  1.671   1.689   2.027   2.135   2.201   2.220   2.227   2.252
  2.335   2.369   2.489   2.683   2.718   2.960   3.190   3.202
  4.922   5.058   5.118   5.146   5.150   5.156   5.165   5.228
  5.262   5.284   6.297   6.340   6.359   6.417   6.491   6.590
  6.736   6.774   6.809   6.813   6.814   6.817   6.825   6.839
  6.872   6.945   7.037   7.362   7.392   7.435   7.604   7.618
  7.670   8.339   8.545   9.210   9.211   9.212   9.242   9.518
  9.538   9.560   9.655  10.089  10.226  43.792  43.805  43.811
 43.860  43.931  45.602  45.910  46.243  49.693  50.153  50.163
 50.201  50.203  50.281  50.288  50.309  50.324  50.490  50.506
 55.647  55.663  55.671  55.724  56.022  56.144  66.670  66.685
 
 Beta MOs
 -- Occupied --
-24.042 -24.042 -18.603  -0.980  -0.873  -0.571  -0.313  -0.253
 -0.230  -0.143  -0.132  -0.121   0.013
 -- Virtual --
  0.288   0.294   0.322   0.383   0.388   0.392   0.452   0.476
  0.484   0.486   0.489   0.555   0.645   0.695   1.230   1.232
  1.247   1.390   1.465   1.498   1.517   1.525   1.599   1.647
  1.669   1.684   1.703   2.037   2.143   2.207   2.223   2.234
  2.256   2.342   2.378   2.497   2.687   2.730   2.976   3.206
  3.220   4.934   5.105   5.144   5.153   5.171   5.183   5.183
  5.256   5.277   5.296   6.305   6.346   6.366   6.425   6.517
  6.611   6.747   6.806   6.813   6.818   6.821   6.822   6.835
  6.849   6.919   6.962   7.058   7.385   7.415   7.456   7.631
  7.635   7.702   8.358   8.571   9.218   9.219   9.220   9.249
  9.539   9.555   9.581   9.677  10.115  10.251  43.813  43.820
 43.822  43.881  43.958  45.613  45.945  46.253  49.709  50.156
 50.165  50.203  50.206  50.296  50.302  50.323  50.338  50.509
 50.526  55.652  55.668  55.675  55.729  56.038  56.161  66.677
 66.693
 --------------------------------------------------------------
 
          Ground-State Mulliken Net Atomic Charges

     Atom                 Charge (a.u.)    Spin (a.u.)
  --------------------------------------------------------
      1 F                    -0.146369       0.163575
      2 O                    -0.707261       0.673621
      3 F                    -0.146370       0.162804
  --------------------------------------------------------
  Sum of atomic charges =    -1.000000
  Sum of spin   charges =     1.000000

 -----------------------------------------------------------------
                    Cartesian Multipole Moments
 -----------------------------------------------------------------
    Charge (ESU x 10^10)
                -4.8032
    Dipole Moment (Debye)
         X       2.0037      Y       0.0000      Z      -5.1856
       Tot       5.5593
    Quadrupole Moments (Debye-Ang)
        XX     -23.0460     XY      -0.0001     YY     -18.3439
        XZ       3.6993     YZ      -0.0001     ZZ     -28.6158
    Octapole Moments (Debye-Ang^2)
       XXX      30.9946    XXY      -0.0001    XYY       7.8992
       YYY       0.0001    XXZ     -29.2173    XYZ      -0.0001
       YYZ     -19.6493    XZZ      14.1799    YZZ      -0.0003
       ZZZ     -76.3114
    Hexadecapole Moments (Debye-Ang^3)
      XXXX     -99.1294   XXXY       0.0000   XXYY     -17.8532
      XYYY      -0.0002   YYYY     -18.3540   XXXZ      53.8892
      XXYZ      -0.0003   XYYZ      13.3000   YYYZ      -0.0001
      XXZZ     -67.8729   XYZZ      -0.0003   YYZZ     -37.9318
      XZZZ      51.1394   YZZZ      -0.0008   ZZZZ    -236.7917
 -----------------------------------------------------------------
 Total job time:  30.30s(wall), 29.65s(cpu) 
 Sun Jul  7 08:38:35 2013

        *************************************************************
        *                                                           *
        *  Thank you very much for using Q-Chem.  Have a nice day.  *
        *                                                           *
        *************************************************************


0 sent ACK to 0 
now end server 0 ... 
 
**********************************************************************
Job 2 of 3 
**********************************************************************
 
Process 0 of 1 is on cl140.stfx.acenet.ca - thread support 1
initial socket setup ...start
initial socket setup ...done 
now start server 0 ... 

cmd = /usr/bin/ssh clhead /usr/local/qchem/bin/get_hostid 1168081698 > /scratch/tmp/6063573.1.medium.q/qchem18248/lic.dat
                  Welcome to Q-Chem
     A Quantum Leap Into The Future Of Chemistry

 Y. Shao, L. Fusti-Molnar, Y. Jung, J. Kussmann, C. Ochsenfeld,
 S. T. Brown, A. T. B. Gilbert, L. V. Slipchenko,S. V. Levchenko,
 D. P. O'Neill, R. A. DiStasio Jr., R. C. Lochan, T. Wang,
 G. J. O. Beran, N. A. Besley, J. M. Herbert, C. Y. Lin,
 T. Van Voorhis, S. H. Chien, A. Sodt, R. P. Steele, 
 V. A. Rassolov, P. E. Maslen, P. P. Korambath, R. D. Adamson,
 B. Austin, J. Baker, E. F. C. Byrd, H. Dachsel, R. J. Doerksen,
 A. Dreuw, B. D. Dunietz, A. D. Dutoi, T. R. Furlani,
 S. R. Gwaltney, A. Heyden, S. Hirata, C.-P. Hsu, G. Kedziora,
 R. Z. Khaliullin, P. Klunzinger, A. M. Lee, M. S. Lee, W. Liang,
 I. Lotan, N. Nair, B. Peters, E. I. Proynov, P. A. Pieniazek, 
 Y. M. Rhee, J. Ritchie, E. Rosta, C. D. Sherrill, 
 A. C. Simmonett, J. E. Subotnik, H. L. Woodcock III,
 W. Zhang, A. T. Bell, A. K. Chakraborty, D. M. Chipman,
 F. J. Keil, A. Warshel, W. J. Hehre, H. F. Schaefer III,
 J. Kong, A. I. Krylov, P. M. W. Gill, M. Head-Gordon,
 Q-Chem, Version 3.1, Q-Chem, Inc., Pittsburgh, PA (2007).

 Additional authors for Version 3.1: 
 Z. Gan, Y. Zhao, N. E. Schultz, D. Truhlar, E. Epifanovsky and M. Oana.

 Additional authors for Version 3.2: 
 R. Baer, B. R. Brooks, D. Casanova, J.-D. Chai, C.-L. Cheng, 
 C. Cramer, D. Crittenden, A. Ghysels, G. Hawkins, E. G. Hohenstein, 
 C. Kelley, W. Kurlancheek, D. Liotard, E. Livshits, P. Manohar, 
 A. Marenich, D. Neuhauser, R. Olson, M. A. Rohrdanz, K. S. Thanthiriwatte, 
 A. J. W. Thom, V. Vanovschi, C. F. Williams, Q. Wu and Z.-Q. You. 


 Intel X86 Linux Version

 Q-chem begins on Sun Jul  7 08:38:38 2013  

 Parallel job on  1  processors
Processing $rem in /usr/local/qchem/config/preferences.

theFileMan(): MAXOPENFILES=974 MAX_SUB_FILE_NUM=16
Maximum size of a physical file is 2.0 GB, maximum size of a tmp-file is 32.0 GB


--------------------------------------------------------------
User input:
--------------------------------------------------------------

$molecule
0,1
F         -0.02000        0.00000        0.04316
O         -0.01707        0.00000        1.39556
F         -1.33043        0.00000        1.71817
$end

$comment
neutral
$end

$xc_functional
C PBE   1.00
X wPBE  1.00
$end


$rem
SYMMETRY_DECOMPOSITION	0
LRC_DFT                 true
exchange 		general
BASIS                   g3large
omega			100
mem_static              760
max_scf_cycles          200
scf_final_print         1
sym_ignore              true
$end

--------------------------------------------------------------
 Writing REM_CC_EA            3
 ----------------------------------------------------
       Standard Nuclear Orientation (Angstroms)
    I     Atom         X            Y            Z
 ----------------------------------------------------
    1      F      -0.020000     0.000000     0.043160
    2      O      -0.017070     0.000000     1.395560
    3      F      -1.330430     0.000000     1.718170
 ----------------------------------------------------
 Nuclear Repulsion Energy =    76.5000817537 hartrees
 There are       13 alpha and       13 beta electrons
 Requested basis set is G3large
 There are 30 shells and 126 basis functions

Total QAlloc Memory Limit   2000 MB
Mega-Array Size       743 MB
MEM_STATIC part       760 MB

                       Distance Matrix (Angstroms)
             F (  1)   O (  2)
   O (  2)  1.352403
   F (  3)  2.126708  1.352402
 
 A cutoff of  1.0D-08 yielded    422 shell pairs
 There are   7641 function pairs ( 10011 Cartesian)
Evaluating contribution to one-electron hamiltonian from nuclear
 Smallest overlap matrix eigenvalue = 2.33E-03
 Multipole matrices computed through 2nd order

  Scale SEOQF with 1.000000e-01/1.000000e+00/1.000000e-01

 Standard Electronic Orientation quadrupole field applied
 Nucleus-field energy     =    -0.0000000039 hartrees
 Guess from superposition of atomic densities
 Warning:  Energy on first SCF cycle will be non-variational
 Long-range K will be added via erf
 Coulomb attenuation parameter = 0.1 bohr**(-1)
 A restricted Kohn-Sham SCF calculation will be
 performed using Pulay DIIS extrapolation
 Exchange:  wPBE + LR-HF      Correlation:  PBE
 Using SG-1 standard quadrature grid
 SCF converges when DIIS error is below 1.0E-05
 Requested basis set is G3large
 There are 30 shells and 126 basis functions
 A cutoff of  1.0D-08 yielded    422 shell pairs
 There are   7641 function pairs ( 10011 Cartesian)
 ---------------------------------------
  Cycle       Energy         DIIS Error
 ---------------------------------------
    1    -274.8518079568      3.33E-02
    2    -274.4721540870      6.74E-03
    3    -274.4031829310      1.02E-02
    4    -274.5123762446      3.09E-03
    5    -274.5232778797      4.17E-04
    6    -274.5234346179      1.31E-04
    7    -274.5234516205      5.95E-05
    8    -274.5234551574      1.22E-05
    9    -274.5234553882      1.19E-06 Convergence criterion met
 ---------------------------------------
 One-Electron    Energy =  -533.2414879193
 Total Coulomb   Energy =   211.3117464397
 Alpha Exchange  Energy =    -0.7288222933
 Beta  Exchange  Energy =    -0.7288222933
 DFT   Exchange  Energy =   -26.7417953723
 DFT Correlation Energy =    -0.8943556995
 Nuclear Repu.   Energy =    76.5000817497
 Nuclear Attr.   Energy =  -807.5737074922
 Kinetic         Energy =   274.3322195729
 SCF time:  CPU 19.74 s  wall 20.01 s
 Final Alpha MO Eigenvalues
            1           2           3           4           5           6
    1 -24.3938793 -24.3938572 -19.0117188  -1.3396142  -1.2108296  -0.9134323
            7           8           9          10          11          12
    1  -0.6507779  -0.5930444  -0.5582628  -0.4607378  -0.4557989  -0.4463208
           13          14          15          16          17          18
    1  -0.3249811  -0.0597482  -0.0313736   0.1086728   0.1590751   0.1664971
 Analysis of SCF Wavefunction
 
 --------------------------------------------------------------
                    Orbital Energies (a.u.)
 --------------------------------------------------------------
 
 Alpha MOs
 -- Occupied --
-24.394 -24.394 -19.012  -1.340  -1.211  -0.913  -0.651  -0.593
 -0.558  -0.461  -0.456  -0.446  -0.325
 -- Virtual --
 -0.060  -0.031   0.109   0.159   0.166   0.177   0.249   0.266
  0.271   0.278   0.282   0.357   0.416   0.472   0.939   0.948
  0.954   1.090   1.183   1.200   1.233   1.244   1.296   1.369
  1.372   1.372   1.392   1.722   1.849   1.891   1.918   1.932
  1.948   2.028   2.053   2.170   2.374   2.410   2.653   2.889
  2.901   4.577   4.723   4.784   4.808   4.814   4.823   4.829
  4.894   4.930   4.947   5.977   6.023   6.042   6.100   6.171
  6.266   6.408   6.442   6.494   6.500   6.501   6.504   6.506
  6.519   6.538   6.609   6.713   7.033   7.056   7.106   7.269
  7.288   7.338   8.006   8.207   8.888   8.889   8.890   8.919
  9.194   9.215   9.238   9.333   9.770   9.905  43.408  43.421
 43.422  43.473  43.549  45.214  45.527  45.853  49.304  49.811
 49.822  49.860  49.862  49.940  49.948  49.968  49.983  50.151
 50.166  55.304  55.321  55.328  55.382  55.679  55.801  66.325
 66.341
 --------------------------------------------------------------
 
          Ground-State Mulliken Net Atomic Charges

     Atom                 Charge (a.u.)
  ----------------------------------------
      1 F                     0.063305
      2 O                    -0.126643
      3 F                     0.063337
  ----------------------------------------
  Sum of atomic charges =     0.000000

 -----------------------------------------------------------------
                    Cartesian Multipole Moments
 -----------------------------------------------------------------
    Charge (ESU x 10^10)
                 0.0000
    Dipole Moment (Debye)
         X       0.1554      Y       0.0000      Z       0.1216
       Tot       0.1973
    Quadrupole Moments (Debye-Ang)
        XX     -14.9151     XY       0.0000     YY     -15.1791
        XZ       0.2161     YZ       0.0000     ZZ     -14.5718
    Octapole Moments (Debye-Ang^2)
       XXX      19.8554    XXY       0.0000    XYY       6.6789
       YYY       0.0000    XXZ     -15.7029    XYZ       0.0000
       YYZ     -16.1602    XZZ       6.9906    YZZ       0.0000
       ZZZ     -46.8570
    Hexadecapole Moments (Debye-Ang^3)
      XXXX     -58.8967   XXXY       0.0000   XXYY     -12.2183
      XYYY       0.0000   YYYY     -10.3009   XXXZ      32.7122
      XXYZ       0.0000   XYYZ      11.2986   YYYZ       0.0000
      XXZZ     -36.0513   XYZZ       0.0000   YYZZ     -28.5618
      XZZZ      34.1710   YZZZ       0.0000   ZZZZ    -153.1246
 -----------------------------------------------------------------
 Total job time:  20.13s(wall), 19.86s(cpu) 
 Sun Jul  7 08:38:58 2013

        *************************************************************
        *                                                           *
        *  Thank you very much for using Q-Chem.  Have a nice day.  *
        *                                                           *
        *************************************************************


0 sent ACK to 0 
now end server 0 ... 
 
**********************************************************************
Job 3 of 3 
**********************************************************************
 
Process 0 of 1 is on cl140.stfx.acenet.ca - thread support 1
initial socket setup ...start
initial socket setup ...done 
now start server 0 ... 

cmd = /usr/bin/ssh clhead /usr/local/qchem/bin/get_hostid 629057650 > /scratch/tmp/6063573.1.medium.q/qchem18248/lic.dat
                  Welcome to Q-Chem
     A Quantum Leap Into The Future Of Chemistry

 Y. Shao, L. Fusti-Molnar, Y. Jung, J. Kussmann, C. Ochsenfeld,
 S. T. Brown, A. T. B. Gilbert, L. V. Slipchenko,S. V. Levchenko,
 D. P. O'Neill, R. A. DiStasio Jr., R. C. Lochan, T. Wang,
 G. J. O. Beran, N. A. Besley, J. M. Herbert, C. Y. Lin,
 T. Van Voorhis, S. H. Chien, A. Sodt, R. P. Steele, 
 V. A. Rassolov, P. E. Maslen, P. P. Korambath, R. D. Adamson,
 B. Austin, J. Baker, E. F. C. Byrd, H. Dachsel, R. J. Doerksen,
 A. Dreuw, B. D. Dunietz, A. D. Dutoi, T. R. Furlani,
 S. R. Gwaltney, A. Heyden, S. Hirata, C.-P. Hsu, G. Kedziora,
 R. Z. Khaliullin, P. Klunzinger, A. M. Lee, M. S. Lee, W. Liang,
 I. Lotan, N. Nair, B. Peters, E. I. Proynov, P. A. Pieniazek, 
 Y. M. Rhee, J. Ritchie, E. Rosta, C. D. Sherrill, 
 A. C. Simmonett, J. E. Subotnik, H. L. Woodcock III,
 W. Zhang, A. T. Bell, A. K. Chakraborty, D. M. Chipman,
 F. J. Keil, A. Warshel, W. J. Hehre, H. F. Schaefer III,
 J. Kong, A. I. Krylov, P. M. W. Gill, M. Head-Gordon,
 Q-Chem, Version 3.1, Q-Chem, Inc., Pittsburgh, PA (2007).

 Additional authors for Version 3.1: 
 Z. Gan, Y. Zhao, N. E. Schultz, D. Truhlar, E. Epifanovsky and M. Oana.

 Additional authors for Version 3.2: 
 R. Baer, B. R. Brooks, D. Casanova, J.-D. Chai, C.-L. Cheng, 
 C. Cramer, D. Crittenden, A. Ghysels, G. Hawkins, E. G. Hohenstein, 
 C. Kelley, W. Kurlancheek, D. Liotard, E. Livshits, P. Manohar, 
 A. Marenich, D. Neuhauser, R. Olson, M. A. Rohrdanz, K. S. Thanthiriwatte, 
 A. J. W. Thom, V. Vanovschi, C. F. Williams, Q. Wu and Z.-Q. You. 


 Intel X86 Linux Version

 Q-chem begins on Sun Jul  7 08:39:02 2013  

 Parallel job on  1  processors
Processing $rem in /usr/local/qchem/config/preferences.

theFileMan(): MAXOPENFILES=974 MAX_SUB_FILE_NUM=16
Maximum size of a physical file is 2.0 GB, maximum size of a tmp-file is 32.0 GB


--------------------------------------------------------------
User input:
--------------------------------------------------------------

$molecule
1,2
F         -0.02000        0.00000        0.04316
O         -0.01707        0.00000        1.39556
F         -1.33043        0.00000        1.71817
$end

$comment
positive
$end

$xc_functional
C PBE   1.00
X wPBE  1.00
$end

$rem
SYMMETRY_DECOMPOSITION	0
LRC_DFT                 true
exchange 		general
BASIS                   g3large
omega			100
mem_static              760
max_scf_cycles          200
scf_final_print         1
sym_ignore              true
$end

--------------------------------------------------------------
 Writing REM_CC_EA            3
 ----------------------------------------------------
       Standard Nuclear Orientation (Angstroms)
    I     Atom         X            Y            Z
 ----------------------------------------------------
    1      F      -0.020000     0.000000     0.043160
    2      O      -0.017070     0.000000     1.395560
    3      F      -1.330430     0.000000     1.718170
 ----------------------------------------------------
 Nuclear Repulsion Energy =    76.5000817537 hartrees
 There are       13 alpha and       12 beta electrons
 Requested basis set is G3large
 There are 30 shells and 126 basis functions

Total QAlloc Memory Limit   2000 MB
Mega-Array Size       743 MB
MEM_STATIC part       760 MB

                       Distance Matrix (Angstroms)
             F (  1)   O (  2)
   O (  2)  1.352403
   F (  3)  2.126708  1.352402
 
 A cutoff of  1.0D-08 yielded    422 shell pairs
 There are   7641 function pairs ( 10011 Cartesian)
Evaluating contribution to one-electron hamiltonian from nuclear
 Smallest overlap matrix eigenvalue = 2.33E-03
 Multipole matrices computed through 2nd order

  Scale SEOQF with 1.000000e-01/1.000000e+00/1.000000e-01

 Standard Electronic Orientation quadrupole field applied
 Nucleus-field energy     =    -0.0000000039 hartrees
 Guess from superposition of atomic densities
 Warning:  Energy on first SCF cycle will be non-variational
 Long-range K will be added via erf
 Coulomb attenuation parameter = 0.1 bohr**(-1)
 An unrestricted Kohn-Sham SCF calculation will be
 performed using Pulay DIIS extrapolation
 Exchange:  wPBE + LR-HF      Correlation:  PBE
 Using SG-1 standard quadrature grid
 SCF converges when DIIS error is below 1.0E-05
 Requested basis set is G3large
 There are 30 shells and 126 basis functions
 A cutoff of  1.0D-08 yielded    422 shell pairs
 There are   7641 function pairs ( 10011 Cartesian)
 Warning!  Inaccurate integrated density:
   Number of electrons =    25
   Numerical integral  =    25.999982500793
   Relative error      =     3.9999300032 %
 ---------------------------------------
  Cycle       Energy         DIIS Error
 ---------------------------------------
    1    -274.8518079568      3.33E-02
    2    -273.8674156228      1.13E-02
    3    -273.2754086297      2.47E-02
    4    -274.0277132842      5.82E-03
    5    -274.0623787329      1.67E-03
    6    -274.0602084611      2.08E-03
    7    -274.0661538132      5.14E-05
    8    -274.0661593105      1.37E-05
    9    -274.0661600099      5.87E-06 Convergence criterion met
 ---------------------------------------
 One-Electron    Energy =  -522.9542772234
 Total Coulomb   Energy =   200.9990517169
 Alpha Exchange  Energy =    -0.7291726980
 Beta  Exchange  Energy =    -0.6722412424
 DFT   Exchange  Energy =   -26.3540893750
 DFT Correlation Energy =    -0.8555129378
 Nuclear Repu.   Energy =    76.5000817497
 Nuclear Attr.   Energy =  -796.5660595375
 Kinetic         Energy =   273.6117823141
 <S^2> = 0.7515
 SCF time:  CPU 24.40 s  wall 24.67 s
 Final Alpha MO Eigenvalues
            1           2           3           4           5           6
    1 -24.8087847 -24.8086975 -19.4972957  -1.7475479  -1.6019936  -1.3235899
            7           8           9          10          11          12
    1  -1.0428885  -0.9861851  -0.9801781  -0.8540116  -0.8340181  -0.8176061
           13          14          15          16          17          18
    1  -0.7620726  -0.4643016  -0.4360587  -0.1311954  -0.0612808  -0.0600206
 Final Beta MO Eigenvalues
            1           2           3           4           5           6
    1 -24.8019438 -24.8018824 -19.4810238  -1.7294324  -1.5886706  -1.2952369
            7           8           9          10          11          12
    1  -1.0323133  -0.9737480  -0.9297999  -0.8253971  -0.8208890  -0.8113026
           13          14          15          16          17
    1  -0.5914491  -0.4474980  -0.4213483  -0.1276714  -0.0584973
 Analysis of SCF Wavefunction
 
 --------------------------------------------------------------
                    Orbital Energies (a.u.)
 --------------------------------------------------------------
 
 Alpha MOs
 -- Occupied --
-24.809 -24.809 -19.497  -1.748  -1.602  -1.324  -1.043  -0.986
 -0.980  -0.854  -0.834  -0.818  -0.762
 -- Virtual --
 -0.464  -0.436  -0.131  -0.061  -0.060  -0.057   0.032   0.039
  0.045   0.052   0.062   0.148   0.171   0.234   0.599   0.618
  0.634   0.755   0.832   0.857   0.876   0.951   0.961   1.029
  1.029   1.060   1.070   1.351   1.514   1.529   1.558   1.579
  1.588   1.665   1.678   1.808   1.995   2.033   2.292   2.532
  2.543   4.120   4.316   4.361   4.389   4.412   4.413   4.417
  4.467   4.483   4.529   5.599   5.624   5.643   5.725   5.780
  5.857   5.988   6.002   6.105   6.117   6.119   6.120   6.121
  6.129   6.139   6.188   6.306   6.619   6.644   6.695   6.870
  6.876   6.928   7.604   7.805   8.484   8.485   8.485   8.516
  8.808   8.808   8.831   8.948   9.382   9.515  42.910  42.913
 42.923  43.004  43.081  44.709  45.052  45.377  48.825  49.391
 49.403  49.440  49.443  49.526  49.534  49.546  49.576  49.738
 49.754  54.896  54.898  54.906  54.973  55.268  55.390  65.913
 65.929
 
 Beta MOs
 -- Occupied --
-24.802 -24.802 -19.481  -1.729  -1.589  -1.295  -1.032  -0.974
 -0.930  -0.825  -0.821  -0.811
 -- Virtual --
 -0.591  -0.447  -0.421  -0.128  -0.058  -0.055  -0.054   0.034
  0.041   0.046   0.057   0.067   0.149   0.173   0.236   0.625
  0.632   0.640   0.758   0.851   0.872   0.898   0.954   0.972
  1.046   1.047   1.064   1.073   1.372   1.517   1.537   1.571
  1.594   1.601   1.680   1.688   1.812   2.017   2.053   2.297
  2.539   2.552   4.185   4.325   4.391   4.418   4.423   4.431
  4.439   4.503   4.543   4.552   5.605   5.658   5.677   5.731
  5.789   5.888   6.026   6.051   6.125   6.127   6.138   6.138
  6.141   6.148   6.150   6.223   6.332   6.649   6.664   6.724
  6.877   6.904   6.939   7.614   7.812   8.513   8.514   8.516
  8.545   8.811   8.837   8.861   8.951   9.389   9.524  42.952
 42.966  42.967  43.009  43.084  44.758  45.062  45.388  48.841
 49.413  49.423  49.461  49.463  49.534  49.546  49.567  49.577
 49.745  49.760  54.899  54.920  54.927  54.977  55.271  55.394
 65.920  65.936
 --------------------------------------------------------------
 
          Ground-State Mulliken Net Atomic Charges

     Atom                 Charge (a.u.)    Spin (a.u.)
  --------------------------------------------------------
      1 F                     0.368750       0.217850
      2 O                     0.262535       0.564618
      3 F                     0.368715       0.217532
  --------------------------------------------------------
  Sum of atomic charges =     1.000000
  Sum of spin   charges =     1.000000

 -----------------------------------------------------------------
                    Cartesian Multipole Moments
 -----------------------------------------------------------------
    Charge (ESU x 10^10)
                 4.8032
    Dipole Moment (Debye)
         X      -1.8185      Y       0.0000      Z       5.3446
       Tot       5.6455
    Quadrupole Moments (Debye-Ang)
        XX     -10.0787     XY       0.0002     YY     -12.7275
        XZ      -3.3055     YZ      -0.0001     ZZ      -4.1848
    Octapole Moments (Debye-Ang^2)
       XXX      12.9936    XXY       0.0000    XYY       5.8129
       YYY       0.0000    XXZ      -8.2943    XYZ       0.0001
       YYZ     -13.3844    XZZ      -0.0278    YZZ      -0.0002
       ZZZ     -27.3809
    Hexadecapole Moments (Debye-Ang^3)
      XXXX     -43.6692   XXXY       0.0001   XXYY      -9.8819
      XYYY       0.0001   YYYY      -7.1452   XXXZ      20.7862
      XXYZ      -0.0002   XYYZ       9.7883   YYYZ       0.0000
      XXZZ     -21.3808   XYZZ       0.0005   YYZZ     -23.1250
      XZZZ      19.2278   YZZZ      -0.0005   ZZZZ    -110.8596
 -----------------------------------------------------------------
 Total job time:  24.80s(wall), 24.52s(cpu) 
 Sun Jul  7 08:39:27 2013

        *************************************************************
        *                                                           *
        *  Thank you very much for using Q-Chem.  Have a nice day.  *
        *                                                           *
        *************************************************************


0 sent ACK to 0 
now end server 0 ... 
