Process 0 of 1 is on cl141.stfx.acenet.ca - thread support 1
initial socket setup ...start
initial socket setup ...done 
now start server 0 ... 

cmd = /usr/bin/ssh clhead /usr/local/qchem/bin/get_hostid 1833521609 > /globalscratch/itamblyn/bnl/g297_b3lyp_neut_g03Large_worked/g2g71074/omega1000/qchem26837/lic.dat
                  Welcome to Q-Chem
     A Quantum Leap Into The Future Of Chemistry

 Y. Shao, L. Fusti-Molnar, Y. Jung, J. Kussmann, C. Ochsenfeld,
 S. T. Brown, A. T. B. Gilbert, L. V. Slipchenko,S. V. Levchenko,
 D. P. O'Neill, R. A. DiStasio Jr., R. C. Lochan, T. Wang,
 G. J. O. Beran, N. A. Besley, J. M. Herbert, C. Y. Lin,
 T. Van Voorhis, S. H. Chien, A. Sodt, R. P. Steele, 
 V. A. Rassolov, P. E. Maslen, P. P. Korambath, R. D. Adamson,
 B. Austin, J. Baker, E. F. C. Byrd, H. Dachsel, R. J. Doerksen,
 A. Dreuw, B. D. Dunietz, A. D. Dutoi, T. R. Furlani,
 S. R. Gwaltney, A. Heyden, S. Hirata, C.-P. Hsu, G. Kedziora,
 R. Z. Khaliullin, P. Klunzinger, A. M. Lee, M. S. Lee, W. Liang,
 I. Lotan, N. Nair, B. Peters, E. I. Proynov, P. A. Pieniazek, 
 Y. M. Rhee, J. Ritchie, E. Rosta, C. D. Sherrill, 
 A. C. Simmonett, J. E. Subotnik, H. L. Woodcock III,
 W. Zhang, A. T. Bell, A. K. Chakraborty, D. M. Chipman,
 F. J. Keil, A. Warshel, W. J. Hehre, H. F. Schaefer III,
 J. Kong, A. I. Krylov, P. M. W. Gill, M. Head-Gordon,
 Q-Chem, Version 3.1, Q-Chem, Inc., Pittsburgh, PA (2007).

 Additional authors for Version 3.1: 
 Z. Gan, Y. Zhao, N. E. Schultz, D. Truhlar, E. Epifanovsky and M. Oana.

 Additional authors for Version 3.2: 
 R. Baer, B. R. Brooks, D. Casanova, J.-D. Chai, C.-L. Cheng, 
 C. Cramer, D. Crittenden, A. Ghysels, G. Hawkins, E. G. Hohenstein, 
 C. Kelley, W. Kurlancheek, D. Liotard, E. Livshits, P. Manohar, 
 A. Marenich, D. Neuhauser, R. Olson, M. A. Rohrdanz, K. S. Thanthiriwatte, 
 A. J. W. Thom, V. Vanovschi, C. F. Williams, Q. Wu and Z.-Q. You. 


 Intel X86 Linux Version

 Q-chem begins on Tue Apr 12 22:17:57 2011  

 Parallel job on  1  processors
Processing $rem in /usr/local/qchem/config/preferences.

theFileMan(): MAXOPENFILES=974 MAX_SUB_FILE_NUM=16
Maximum size of a physical file is 2.0 GB, maximum size of a tmp-file is 32.0 GB


--------------------------------------------------------------
User input:
--------------------------------------------------------------

$molecule
-1,2
C
C,1,r1
F,1,R,2,A
F,1,R,2,A,3,120.,0
F,1,R,2,A,3,-120.,0
X,2,1.,1,90.,3,0.,0
N,2,r2,6,90.,1,180.,0

 r1=1.48324112
 r2=1.15763812
 R=1.338444
 A=110.04808494

$end

$comment
negative
$end

$xc_functional
   X HF 1.0
   X BNL 1.0
   C LYP 1.0
$end

$rem
SYMMETRY_DECOMPOSITION	0
exchange 		general
BASIS                   g3large
omega			1000
separate_jk		true
mem_static              760
max_scf_cycles          200
scf_final_print         1
sym_ignore              true
$end

--------------------------------------------------------------
 Writing REM_CC_EA            6
 ----------------------------------------------------
       Standard Nuclear Orientation (Angstroms)
    I     Atom         X            Y            Z
 ----------------------------------------------------
    1      C       0.000000     0.000000     0.000000
    2      C       0.000000     0.000000     1.483241
    3      F       1.257341     0.000000    -0.458830
    4      F      -0.628671    -1.088890    -0.458830
    5      F      -0.628671     1.088890    -0.458830
    6      N       0.000000     0.000000     2.640879
 ----------------------------------------------------
 Nuclear Repulsion Energy =   230.5082396261 hartrees
 There are       24 alpha and       23 beta electrons
 Requested basis set is G3large
 There are 60 shells and 252 basis functions

Total QAlloc Memory Limit   2000 MB
Mega-Array Size       743 MB
MEM_STATIC part       760 MB

                       Distance Matrix (Angstroms)
             C (  1)   C (  2)   F (  3)   F (  4)   F (  5)
   C (  2)  1.483241
   F (  3)  1.338444  2.313557
   F (  4)  1.338444  2.313557  2.177779
   F (  5)  1.338444  2.313557  2.177779  2.177779
   N (  6)  2.640879  1.157638  3.345012  3.345012  3.345012
 
 A cutoff of  1.0D-08 yielded   1469 shell pairs
 There are  26934 function pairs ( 35072 Cartesian)
Evaluating contribution to one-electron hamiltonian from nuclear
 Smallest overlap matrix eigenvalue = 4.64E-05

 Q-Chem warning in module mkSTV.C, line 194:

 Overlap eigenvalue is smaller than square root of threshold

 Multipole matrices computed through 2nd order

  Scale SEOQF with 1.000000e-01/1.000000e-01/1.000000e-01

 Standard Electronic Orientation quadrupole field applied
 Nucleus-field energy     =    -0.0000000050 hartrees
 Guess from superposition of atomic densities
 Warning:  Energy on first SCF cycle will be non-variational
 An unrestricted hybrid HF-DFT SCF calculation will be
 performed using Pulay DIIS extrapolation
 Exchange:     1.0000 Hartree-Fock + 1.0000 BNL
 Correlation:  1.0000 LYP
 Using SG-1 standard quadrature grid
 SCF converges when DIIS error is below 1.0E-05
 Warning!  Inaccurate integrated density:
   Number of electrons =    47
   Numerical integral  =    46.000123785791
   Relative error      =    -2.1273962004 %
 ---------------------------------------
  Cycle       Energy         DIIS Error
 ---------------------------------------
    1    -428.9757204259      3.06E-02
    2    -427.3517921062      6.08E-03
    3    -427.4400374607      5.39E-03
    4    -427.6145793436      5.79E-04
    5    -427.6188716758      3.33E-04
    6    -427.6201160057      8.92E-05
    7    -427.6203860709      4.16E-05
    8    -427.6204593390      2.08E-05
    9    -427.6204834817      8.90E-06 Convergence criterion met
 ---------------------------------------
 One-Electron    Energy = -1062.0492760157
 Total Coulomb   Energy =   450.3202838217
 Alpha Exchange  Energy =    -9.8335271203
 Beta  Exchange  Energy =    -9.4811751054
 DFT   Exchange  Energy =   -25.3610745236
 DFT Correlation Energy =    -1.7239541597
 Nuclear Repu.   Energy =   230.5082396211
 Nuclear Attr.   Energy = -1488.1053882530
 Kinetic         Energy =   426.0561122373
 <S^2> = 0.7605
 SCF time:  CPU 190.57 s  wall 209.64 s
 Final Alpha MO Eigenvalues
            1           2           3           4           5           6
    1 -24.4429225 -24.4373349 -24.4317532 -14.1189219 -10.4298776 -10.0956345
            7           8           9          10          11          12
    1  -1.4794198  -1.3779133  -1.3747390  -0.9552334  -0.8168271  -0.6958515
           13          14          15          16          17          18
    1  -0.6712369  -0.6670566  -0.5485977  -0.5477927  -0.5052551  -0.5031858
           19          20          21          22          23          24
    1  -0.4848373  -0.4713842  -0.3427681  -0.3342382  -0.2729105   0.0099325
           25          26          27          28          29
    1   0.1964381   0.2109184   0.2293357   0.2391066   0.2687935
 Final Beta MO Eigenvalues
            1           2           3           4           5           6
    1 -24.4423293 -24.4359164 -24.4294953 -14.1072399 -10.4293199 -10.0907192
            7           8           9          10          11          12
    1  -1.4757596  -1.3754186  -1.3685702  -0.9318218  -0.8064945  -0.6865310
           13          14          15          16          17          18
    1  -0.6656058  -0.6604014  -0.5429855  -0.5425163  -0.5039605  -0.4998952
           19          20          21          22          23          24
    1  -0.4807697  -0.4509724  -0.3162757  -0.2637396  -0.2374730   0.1937420
           25          26          27          28
    1   0.2090520   0.2250158   0.2258693   0.2670656
 Analysis of SCF Wavefunction
 
 --------------------------------------------------------------
                    Orbital Energies (a.u.)
 --------------------------------------------------------------
 
 Alpha MOs
 -- Occupied --
-24.443 -24.437 -24.432 -14.119 -10.430 -10.096  -1.479  -1.378
 -1.375  -0.955  -0.817  -0.696  -0.671  -0.667  -0.549  -0.548
 -0.505  -0.503  -0.485  -0.471  -0.343  -0.334  -0.273   0.010
 -- Virtual --
  0.196   0.211   0.229   0.239   0.269   0.272   0.279   0.320
  0.340   0.415   0.416   0.431   0.435   0.443   0.455   0.479
  0.523   0.536   0.540   0.541   0.549   0.555   0.560   0.590
  0.609   0.636   0.641   0.651   0.662   0.822   0.890   0.891
  0.957   0.959   0.960   1.046   1.100   1.101   1.164   1.188
  1.192   1.219   1.223   1.234   1.384   1.461   1.462   1.575
  1.577   1.618   1.656   1.658   1.683   1.685   1.692   1.738
  1.755   1.770   1.770   1.842   1.843   1.846   2.114   2.114
  2.279   2.302   2.338   2.341   2.369   2.371   2.472   2.499
  2.507   2.509   2.516   2.704   2.735   2.736   2.916   2.987
  2.988   3.086   3.089   3.166   3.202   3.206   3.240   3.241
  3.314   3.491   3.493   3.675   3.678   3.689   3.721   3.722
  3.729   3.729   3.861   3.863   3.881   4.017   4.070   4.073
  4.111   4.124   4.186   4.195   4.203   4.204   4.433   4.435
  4.596   4.616   4.620   4.730   4.734   4.964   4.964   5.010
  5.353   5.353   5.455   5.731   5.735   6.466   6.537   6.541
  6.632   6.633   6.701   6.732   6.735   6.740   6.960   7.067
  7.069   7.073   7.084   7.089   7.092   7.120   7.133   7.136
  7.170   7.172   7.241   7.272   7.273   7.295   7.449   7.451
  7.630   7.772   7.777   7.907   7.916   8.145   8.149   9.549
  9.552   9.553   9.666   9.669   9.730   9.882   9.972   9.973
 10.047  10.232  10.368  10.369  10.572  10.577  25.036  25.311
 27.996  27.999  28.256  28.341  28.342  29.626  36.881  38.233
 38.236  38.959  41.003  41.128  41.137  41.204  41.266  41.268
 41.376  41.391  41.423  41.509  41.589  41.688  41.877  41.879
 42.165  50.511  50.525  50.549  50.573  50.586  50.589  50.638
 50.694  50.701  50.741  50.823  50.843  50.862  50.899  50.920
 56.189  56.191  56.258  56.260  56.264  56.266  56.572  56.728
 56.734  67.446  67.452  67.491
 
 Beta MOs
 -- Occupied --
-24.442 -24.436 -24.429 -14.107 -10.429 -10.091  -1.476  -1.375
 -1.369  -0.932  -0.806  -0.687  -0.666  -0.660  -0.543  -0.543
 -0.504  -0.500  -0.481  -0.451  -0.316  -0.264  -0.237
 -- Virtual --
  0.194   0.209   0.225   0.226   0.267   0.269   0.276   0.317
  0.346   0.362   0.414   0.415   0.438   0.446   0.453   0.455
  0.476   0.523   0.532   0.538   0.541   0.554   0.556   0.565
  0.611   0.617   0.639   0.646   0.662   0.668   0.822   0.893
  0.904   0.957   0.963   0.967   1.051   1.106   1.109   1.170
  1.195   1.207   1.221   1.238   1.251   1.394   1.469   1.471
  1.581   1.584   1.621   1.658   1.663   1.693   1.694   1.702
  1.739   1.759   1.775   1.780   1.846   1.847   1.849   2.115
  2.128   2.283   2.303   2.339   2.345   2.370   2.372   2.473
  2.505   2.508   2.514   2.517   2.710   2.739   2.741   2.918
  2.989   2.994   3.089   3.099   3.169   3.205   3.223   3.247
  3.251   3.321   3.497   3.501   3.679   3.690   3.694   3.729
  3.730   3.737   3.740   3.863   3.868   3.885   4.021   4.072
  4.081   4.118   4.128   4.206   4.209   4.211   4.212   4.443
  4.466   4.606   4.617   4.622   4.735   4.753   4.976   4.977
  5.021   5.391   5.391   5.464   5.739   5.759   6.472   6.543
  6.559   6.635   6.636   6.703   6.734   6.738   6.743   6.963
  7.068   7.070   7.075   7.085   7.090   7.094   7.121   7.135
  7.139   7.171   7.174   7.246   7.274   7.275   7.296   7.450
  7.453   7.633   7.773   7.780   7.911   7.918   8.147   8.152
  9.551   9.554   9.556   9.668   9.672   9.733   9.885   9.974
  9.976  10.049  10.234  10.371  10.372  10.574  10.580  25.039
 25.315  27.998  28.007  28.256  28.341  28.344  29.629  36.895
 38.240  38.254  38.966  41.027  41.135  41.161  41.206  41.275
 41.288  41.378  41.399  41.424  41.510  41.590  41.695  41.880
 41.888  42.171  50.513  50.527  50.551  50.575  50.588  50.592
 50.640  50.697  50.703  50.743  50.825  50.845  50.865  50.902
 50.923  56.190  56.192  56.258  56.261  56.266  56.268  56.573
 56.729  56.736  67.447  67.454  67.493
 --------------------------------------------------------------
 
          Ground-State Mulliken Net Atomic Charges

     Atom                 Charge (a.u.)    Spin (a.u.)
  --------------------------------------------------------
      1 C                     0.361718       0.267946
      2 C                    -0.058511       0.307965
      3 F                    -0.235255      -0.017194
      4 F                    -0.222128      -0.020812
      5 F                    -0.247420      -0.014654
      6 N                    -0.598404       0.476748
  --------------------------------------------------------
  Sum of atomic charges =    -1.000000
  Sum of spin   charges =     1.000000

 -----------------------------------------------------------------
                    Cartesian Multipole Moments
 -----------------------------------------------------------------
    Charge (ESU x 10^10)
                -4.8032
    Dipole Moment (Debye)
         X       0.0058      Y       0.0353      Z      -7.8629
       Tot       7.8629
    Quadrupole Moments (Debye-Ang)
        XX     -37.2143     XY      -1.3017     YY     -37.2077
        XZ      -0.0007     YZ      -0.2308     ZZ     -60.3902
    Octapole Moments (Debye-Ang^2)
       XXX      -1.8690    XXY       0.1635    XYY       1.9295
       YYY       0.4916    XXZ     -19.8062    XYZ      -1.4765
       YYZ     -19.7974    XZZ      -0.0123    YZZ       0.1948
       ZZZ    -135.4259
    Hexadecapole Moments (Debye-Ang^3)
      XXXX    -114.7872   XXXY      -3.7595   XXYY     -38.2473
      XYYY      -4.0620   YYYY    -114.7517   XXXZ       0.9147
      XXYZ      -0.2407   XYYZ      -0.9010   YYYZ      -0.7214
      XXZZ     -93.3034   XYZZ      -4.5130   YYZZ     -93.2822
      XZZZ      -0.0731   YZZZ      -0.3169   ZZZZ    -646.0223
 -----------------------------------------------------------------
 Total job time:  211.56s(wall), 190.95s(cpu) 
 Tue Apr 12 22:21:29 2011

        *************************************************************
        *                                                           *
        *  Thank you very much for using Q-Chem.  Have a nice day.  *
        *                                                           *
        *************************************************************


0 sent ACK to 0 
now end server 0 ... 
 
**********************************************************************
Job 2 of 3 
**********************************************************************
 
Process 0 of 1 is on cl141.stfx.acenet.ca - thread support 1
initial socket setup ...start
initial socket setup ...done 
now start server 0 ... 

cmd = /usr/bin/ssh clhead /usr/local/qchem/bin/get_hostid 1948295074 > /globalscratch/itamblyn/bnl/g297_b3lyp_neut_g03Large_worked/g2g71074/omega1000/qchem26837/lic.dat
                  Welcome to Q-Chem
     A Quantum Leap Into The Future Of Chemistry

 Y. Shao, L. Fusti-Molnar, Y. Jung, J. Kussmann, C. Ochsenfeld,
 S. T. Brown, A. T. B. Gilbert, L. V. Slipchenko,S. V. Levchenko,
 D. P. O'Neill, R. A. DiStasio Jr., R. C. Lochan, T. Wang,
 G. J. O. Beran, N. A. Besley, J. M. Herbert, C. Y. Lin,
 T. Van Voorhis, S. H. Chien, A. Sodt, R. P. Steele, 
 V. A. Rassolov, P. E. Maslen, P. P. Korambath, R. D. Adamson,
 B. Austin, J. Baker, E. F. C. Byrd, H. Dachsel, R. J. Doerksen,
 A. Dreuw, B. D. Dunietz, A. D. Dutoi, T. R. Furlani,
 S. R. Gwaltney, A. Heyden, S. Hirata, C.-P. Hsu, G. Kedziora,
 R. Z. Khaliullin, P. Klunzinger, A. M. Lee, M. S. Lee, W. Liang,
 I. Lotan, N. Nair, B. Peters, E. I. Proynov, P. A. Pieniazek, 
 Y. M. Rhee, J. Ritchie, E. Rosta, C. D. Sherrill, 
 A. C. Simmonett, J. E. Subotnik, H. L. Woodcock III,
 W. Zhang, A. T. Bell, A. K. Chakraborty, D. M. Chipman,
 F. J. Keil, A. Warshel, W. J. Hehre, H. F. Schaefer III,
 J. Kong, A. I. Krylov, P. M. W. Gill, M. Head-Gordon,
 Q-Chem, Version 3.1, Q-Chem, Inc., Pittsburgh, PA (2007).

 Additional authors for Version 3.1: 
 Z. Gan, Y. Zhao, N. E. Schultz, D. Truhlar, E. Epifanovsky and M. Oana.

 Additional authors for Version 3.2: 
 R. Baer, B. R. Brooks, D. Casanova, J.-D. Chai, C.-L. Cheng, 
 C. Cramer, D. Crittenden, A. Ghysels, G. Hawkins, E. G. Hohenstein, 
 C. Kelley, W. Kurlancheek, D. Liotard, E. Livshits, P. Manohar, 
 A. Marenich, D. Neuhauser, R. Olson, M. A. Rohrdanz, K. S. Thanthiriwatte, 
 A. J. W. Thom, V. Vanovschi, C. F. Williams, Q. Wu and Z.-Q. You. 


 Intel X86 Linux Version

 Q-chem begins on Tue Apr 12 22:21:32 2011  

 Parallel job on  1  processors
Processing $rem in /usr/local/qchem/config/preferences.

theFileMan(): MAXOPENFILES=974 MAX_SUB_FILE_NUM=16
Maximum size of a physical file is 2.0 GB, maximum size of a tmp-file is 32.0 GB


--------------------------------------------------------------
User input:
--------------------------------------------------------------

$molecule
0,1
C
C,1,r1
F,1,R,2,A
F,1,R,2,A,3,120.,0
F,1,R,2,A,3,-120.,0
X,2,1.,1,90.,3,0.,0
N,2,r2,6,90.,1,180.,0

 r1=1.48324112
 r2=1.15763812
 R=1.338444
 A=110.04808494

$end

$comment
neutral
$end

$xc_functional
   X HF 1.0
   X BNL 1.0
   C LYP 1.0
$end

$rem
SYMMETRY_DECOMPOSITION	0
exchange 		general
BASIS                   g3large
omega			1000
separate_jk		true
mem_static              760
max_scf_cycles          200
scf_final_print         1
sym_ignore              true
$end

--------------------------------------------------------------
 Writing REM_CC_EA            6
 ----------------------------------------------------
       Standard Nuclear Orientation (Angstroms)
    I     Atom         X            Y            Z
 ----------------------------------------------------
    1      C       0.000000     0.000000     0.000000
    2      C       0.000000     0.000000     1.483241
    3      F       1.257341     0.000000    -0.458830
    4      F      -0.628671    -1.088890    -0.458830
    5      F      -0.628671     1.088890    -0.458830
    6      N       0.000000     0.000000     2.640879
 ----------------------------------------------------
 Nuclear Repulsion Energy =   230.5082396261 hartrees
 There are       23 alpha and       23 beta electrons
 Requested basis set is G3large
 There are 60 shells and 252 basis functions

Total QAlloc Memory Limit   2000 MB
Mega-Array Size       743 MB
MEM_STATIC part       760 MB

                       Distance Matrix (Angstroms)
             C (  1)   C (  2)   F (  3)   F (  4)   F (  5)
   C (  2)  1.483241
   F (  3)  1.338444  2.313557
   F (  4)  1.338444  2.313557  2.177779
   F (  5)  1.338444  2.313557  2.177779  2.177779
   N (  6)  2.640879  1.157638  3.345012  3.345012  3.345012
 
 A cutoff of  1.0D-08 yielded   1469 shell pairs
 There are  26934 function pairs ( 35072 Cartesian)
Evaluating contribution to one-electron hamiltonian from nuclear
 Smallest overlap matrix eigenvalue = 4.64E-05

 Q-Chem warning in module mkSTV.C, line 194:

 Overlap eigenvalue is smaller than square root of threshold

 Multipole matrices computed through 2nd order

  Scale SEOQF with 1.000000e-01/1.000000e-01/1.000000e-01

 Standard Electronic Orientation quadrupole field applied
 Nucleus-field energy     =    -0.0000000050 hartrees
 Guess from superposition of atomic densities
 Warning:  Energy on first SCF cycle will be non-variational
 A restricted hybrid HF-DFT SCF calculation will be
 performed using Pulay DIIS extrapolation
 Exchange:     1.0000 Hartree-Fock + 1.0000 BNL
 Correlation:  1.0000 LYP
 Using SG-1 standard quadrature grid
 SCF converges when DIIS error is below 1.0E-05
 ---------------------------------------
  Cycle       Energy         DIIS Error
 ---------------------------------------
    1    -428.9757204259      3.06E-02
    2    -427.4143905317      6.08E-03
    3    -427.4941090417      5.55E-03
    4    -427.6562746537      7.34E-04
    5    -427.6609102981      3.67E-04
    6    -427.6624461922      1.36E-04
    7    -427.6628314406      6.66E-05
    8    -427.6630237858      2.66E-05
    9    -427.6630636540      9.82E-06 Convergence criterion met
 ---------------------------------------
 One-Electron    Energy = -1050.7590054086
 Total Coulomb   Energy =   438.6327577404
 Alpha Exchange  Energy =    -9.5313443924
 Beta  Exchange  Energy =    -9.5313443924
 DFT   Exchange  Energy =   -25.2883324874
 DFT Correlation Energy =    -1.6940343346
 Nuclear Repu.   Energy =   230.5082396211
 Nuclear Attr.   Energy = -1476.2478575354
 Kinetic         Energy =   425.4888521268
 SCF time:  CPU 150.37 s  wall 172.62 s
 Final Alpha MO Eigenvalues
            1           2           3           4           5           6
    1 -24.6623104 -24.6620613 -24.6618039 -14.4494799 -10.6853733 -10.4238456
            7           8           9          10          11          12
    1  -1.7026600  -1.5959130  -1.5958140  -1.2521476  -1.0616258  -0.9299405
           13          14          15          16          17          18
    1  -0.8861691  -0.8861261  -0.7614310  -0.7613979  -0.7199672  -0.7198983
           19          20          21          22          23          24
    1  -0.7040735  -0.6987437  -0.6254103  -0.5670772  -0.5670327   0.0495713
           25          26          27          28
    1   0.0657914   0.0658116   0.0778265   0.1021873
 Analysis of SCF Wavefunction
 
 --------------------------------------------------------------
                    Orbital Energies (a.u.)
 --------------------------------------------------------------
 
 Alpha MOs
 -- Occupied --
-24.662 -24.662 -24.662 -14.449 -10.685 -10.424  -1.703  -1.596
 -1.596  -1.252  -1.062  -0.930  -0.886  -0.886  -0.761  -0.761
 -0.720  -0.720  -0.704  -0.699  -0.625  -0.567  -0.567
 -- Virtual --
  0.050   0.066   0.066   0.078   0.102   0.102   0.127   0.127
  0.129   0.168   0.240   0.249   0.249   0.267   0.267   0.290
  0.304   0.345   0.346   0.349   0.350   0.374   0.380   0.380
  0.414   0.414   0.431   0.455   0.469   0.469   0.628   0.646
  0.646   0.723   0.729   0.729   0.805   0.845   0.845   0.937
  0.944   0.944   0.989   0.989   0.996   1.110   1.226   1.226
  1.363   1.363   1.377   1.422   1.422   1.465   1.465   1.487
  1.532   1.540   1.548   1.548   1.629   1.629   1.632   1.869
  1.869   2.023   2.082   2.123   2.123   2.158   2.158   2.231
  2.254   2.279   2.279   2.303   2.454   2.502   2.502   2.689
  2.748   2.748   2.817   2.817   2.915   2.917   2.917   2.939
  2.966   3.037   3.210   3.210   3.387   3.387   3.422   3.427
  3.427   3.499   3.499   3.614   3.614   3.626   3.770   3.813
  3.813   3.852   3.865   3.904   3.925   3.946   3.947   4.144
  4.144   4.304   4.392   4.392   4.448   4.448   4.675   4.675
  4.723   5.056   5.057   5.178   5.440   5.440   6.173   6.250
  6.250   6.412   6.412   6.486   6.516   6.516   6.518   6.726
  6.852   6.856   6.856   6.870   6.875   6.875   6.904   6.916
  6.917   6.951   6.951   6.984   7.052   7.052   7.079   7.232
  7.232   7.401   7.550   7.550   7.662   7.691   7.922   7.922
  9.333   9.333   9.335   9.449   9.450   9.512   9.664   9.753
  9.753   9.828  10.012  10.150  10.150  10.356  10.357  24.747
 25.021  27.673  27.673  27.992  28.085  28.085  29.309  36.554
 37.904  37.904  38.630  40.676  40.809  40.813  40.937  40.940
 40.954  41.062  41.104  41.166  41.253  41.333  41.360  41.551
 41.551  41.840  50.289  50.302  50.327  50.350  50.364  50.365
 50.415  50.470  50.477  50.518  50.599  50.620  50.639  50.676
 50.696  55.966  55.966  56.037  56.037  56.039  56.040  56.347
 56.505  56.506  67.225  67.225  67.266
 --------------------------------------------------------------
 
          Ground-State Mulliken Net Atomic Charges

     Atom                 Charge (a.u.)
  ----------------------------------------
      1 C                     0.544238
      2 C                     0.260878
      3 F                    -0.189887
      4 F                    -0.190271
      5 F                    -0.190102
      6 N                    -0.234856
  ----------------------------------------
  Sum of atomic charges =     0.000000

 -----------------------------------------------------------------
                    Cartesian Multipole Moments
 -----------------------------------------------------------------
    Charge (ESU x 10^10)
                 0.0000
    Dipole Moment (Debye)
         X       0.0000      Y       0.0008      Z      -1.2319
       Tot       1.2319
    Quadrupole Moments (Debye-Ang)
        XX     -31.7568     XY      -0.0008     YY     -31.7573
        XZ       0.0000     YZ      -0.0008     ZZ     -38.7503
    Octapole Moments (Debye-Ang^2)
       XXX      -1.1431    XXY       0.0001    XYY       1.1437
       YYY       0.0003    XXZ     -15.1606    XYZ       0.0011
       YYZ     -15.1604    XZZ       0.0004    YZZ      -0.0005
       ZZZ     -74.9845
    Hexadecapole Moments (Debye-Ang^3)
      XXXX     -93.3976   XXXY      -0.0003   XXYY     -31.1326
      XYYY      -0.0009   YYYY     -93.4001   XXXZ       0.0458
      XXYZ      -0.0004   XYYZ      -0.0458   YYYZ      -0.0011
      XXZZ     -74.1239   XYZZ       0.0031   YYZZ     -74.1245
      XZZZ       0.0007   YZZZ      -0.0013   ZZZZ    -433.7448
 -----------------------------------------------------------------
 Total job time:  176.75s(wall), 150.74s(cpu) 
 Tue Apr 12 22:24:29 2011

        *************************************************************
        *                                                           *
        *  Thank you very much for using Q-Chem.  Have a nice day.  *
        *                                                           *
        *************************************************************


0 sent ACK to 0 
now end server 0 ... 
 
**********************************************************************
Job 3 of 3 
**********************************************************************
 
Process 0 of 1 is on cl141.stfx.acenet.ca - thread support 1
initial socket setup ...start
initial socket setup ...done 
now start server 0 ... 

cmd = /usr/bin/ssh clhead /usr/local/qchem/bin/get_hostid 1953145425 > /globalscratch/itamblyn/bnl/g297_b3lyp_neut_g03Large_worked/g2g71074/omega1000/qchem26837/lic.dat
                  Welcome to Q-Chem
     A Quantum Leap Into The Future Of Chemistry

 Y. Shao, L. Fusti-Molnar, Y. Jung, J. Kussmann, C. Ochsenfeld,
 S. T. Brown, A. T. B. Gilbert, L. V. Slipchenko,S. V. Levchenko,
 D. P. O'Neill, R. A. DiStasio Jr., R. C. Lochan, T. Wang,
 G. J. O. Beran, N. A. Besley, J. M. Herbert, C. Y. Lin,
 T. Van Voorhis, S. H. Chien, A. Sodt, R. P. Steele, 
 V. A. Rassolov, P. E. Maslen, P. P. Korambath, R. D. Adamson,
 B. Austin, J. Baker, E. F. C. Byrd, H. Dachsel, R. J. Doerksen,
 A. Dreuw, B. D. Dunietz, A. D. Dutoi, T. R. Furlani,
 S. R. Gwaltney, A. Heyden, S. Hirata, C.-P. Hsu, G. Kedziora,
 R. Z. Khaliullin, P. Klunzinger, A. M. Lee, M. S. Lee, W. Liang,
 I. Lotan, N. Nair, B. Peters, E. I. Proynov, P. A. Pieniazek, 
 Y. M. Rhee, J. Ritchie, E. Rosta, C. D. Sherrill, 
 A. C. Simmonett, J. E. Subotnik, H. L. Woodcock III,
 W. Zhang, A. T. Bell, A. K. Chakraborty, D. M. Chipman,
 F. J. Keil, A. Warshel, W. J. Hehre, H. F. Schaefer III,
 J. Kong, A. I. Krylov, P. M. W. Gill, M. Head-Gordon,
 Q-Chem, Version 3.1, Q-Chem, Inc., Pittsburgh, PA (2007).

 Additional authors for Version 3.1: 
 Z. Gan, Y. Zhao, N. E. Schultz, D. Truhlar, E. Epifanovsky and M. Oana.

 Additional authors for Version 3.2: 
 R. Baer, B. R. Brooks, D. Casanova, J.-D. Chai, C.-L. Cheng, 
 C. Cramer, D. Crittenden, A. Ghysels, G. Hawkins, E. G. Hohenstein, 
 C. Kelley, W. Kurlancheek, D. Liotard, E. Livshits, P. Manohar, 
 A. Marenich, D. Neuhauser, R. Olson, M. A. Rohrdanz, K. S. Thanthiriwatte, 
 A. J. W. Thom, V. Vanovschi, C. F. Williams, Q. Wu and Z.-Q. You. 


 Intel X86 Linux Version

 Q-chem begins on Tue Apr 12 22:24:32 2011  

 Parallel job on  1  processors
Processing $rem in /usr/local/qchem/config/preferences.

theFileMan(): MAXOPENFILES=974 MAX_SUB_FILE_NUM=16
Maximum size of a physical file is 2.0 GB, maximum size of a tmp-file is 32.0 GB


--------------------------------------------------------------
User input:
--------------------------------------------------------------

$molecule
1,2
C
C,1,r1
F,1,R,2,A
F,1,R,2,A,3,120.,0
F,1,R,2,A,3,-120.,0
X,2,1.,1,90.,3,0.,0
N,2,r2,6,90.,1,180.,0

 r1=1.48324112
 r2=1.15763812
 R=1.338444
 A=110.04808494

$end

$comment
positive
$end

$xc_functional
   X HF 1.0
   X BNL 1.0
   C LYP 1.0
$end

$rem
SYMMETRY_DECOMPOSITION	0
exchange 		general
BASIS                   g3large
omega			1000
separate_jk		true
mem_static              760
max_scf_cycles          200
scf_final_print         1
sym_ignore              true
$end

--------------------------------------------------------------
 Writing REM_CC_EA            6
 ----------------------------------------------------
       Standard Nuclear Orientation (Angstroms)
    I     Atom         X            Y            Z
 ----------------------------------------------------
    1      C       0.000000     0.000000     0.000000
    2      C       0.000000     0.000000     1.483241
    3      F       1.257341     0.000000    -0.458830
    4      F      -0.628671    -1.088890    -0.458830
    5      F      -0.628671     1.088890    -0.458830
    6      N       0.000000     0.000000     2.640879
 ----------------------------------------------------
 Nuclear Repulsion Energy =   230.5082396261 hartrees
 There are       23 alpha and       22 beta electrons
 Requested basis set is G3large
 There are 60 shells and 252 basis functions

Total QAlloc Memory Limit   2000 MB
Mega-Array Size       743 MB
MEM_STATIC part       760 MB

                       Distance Matrix (Angstroms)
             C (  1)   C (  2)   F (  3)   F (  4)   F (  5)
   C (  2)  1.483241
   F (  3)  1.338444  2.313557
   F (  4)  1.338444  2.313557  2.177779
   F (  5)  1.338444  2.313557  2.177779  2.177779
   N (  6)  2.640879  1.157638  3.345012  3.345012  3.345012
 
 A cutoff of  1.0D-08 yielded   1469 shell pairs
 There are  26934 function pairs ( 35072 Cartesian)
Evaluating contribution to one-electron hamiltonian from nuclear
 Smallest overlap matrix eigenvalue = 4.64E-05

 Q-Chem warning in module mkSTV.C, line 194:

 Overlap eigenvalue is smaller than square root of threshold

 Multipole matrices computed through 2nd order

  Scale SEOQF with 1.000000e-01/1.000000e-01/1.000000e-01

 Standard Electronic Orientation quadrupole field applied
 Nucleus-field energy     =    -0.0000000050 hartrees
 Guess from superposition of atomic densities
 Warning:  Energy on first SCF cycle will be non-variational
 An unrestricted hybrid HF-DFT SCF calculation will be
 performed using Pulay DIIS extrapolation
 Exchange:     1.0000 Hartree-Fock + 1.0000 BNL
 Correlation:  1.0000 LYP
 Using SG-1 standard quadrature grid
 SCF converges when DIIS error is below 1.0E-05
 Warning!  Inaccurate integrated density:
   Number of electrons =    45
   Numerical integral  =    46.000123785791
   Relative error      =     2.2224973018 %
 ---------------------------------------
  Cycle       Energy         DIIS Error
 ---------------------------------------
    1    -428.9757204259      3.06E-02
    2    -426.8736065301      6.16E-03
    3    -427.0362255711      4.67E-03
    4    -427.1374910599      7.31E-04
    5    -427.1410279666      1.97E-04
    6    -427.1417940617      7.24E-05
    7    -427.1419923191      5.00E-05
    8    -427.1420971173      2.40E-05
    9    -427.1421483867      1.26E-05
   10    -427.1421638112      4.83E-06 Convergence criterion met
 ---------------------------------------
 One-Electron    Energy = -1038.6315588943
 Total Coulomb   Energy =   426.6712884350
 Alpha Exchange  Energy =    -9.5786926372
 Beta  Exchange  Energy =    -9.2289337386
 DFT   Exchange  Energy =   -25.2293830604
 DFT Correlation Energy =    -1.6531235369
 Nuclear Repu.   Energy =   230.5082396211
 Nuclear Attr.   Energy = -1463.8829392819
 Kinetic         Energy =   425.2513803876
 <S^2> = 0.7529
 SCF time:  CPU 199.43 s  wall 264.38 s
 Final Alpha MO Eigenvalues
            1           2           3           4           5           6
    1 -24.8793591 -24.8766961 -24.8735977 -14.8583113 -10.9281713 -10.8427211
            7           8           9          10          11          12
    1  -1.9175256  -1.8087247  -1.8057174  -1.6820172  -1.3375020  -1.1556453
           13          14          15          16          17          18
    1  -1.1013035  -1.0980202  -1.0074089  -1.0015902  -0.9755328  -0.9602586
           19          20          21          22          23          24
    1  -0.9453652  -0.9256188  -0.9237781  -0.9177495  -0.9041547  -0.2744436
           25          26          27          28
    1  -0.2459514  -0.1454978  -0.0765771  -0.0727756
 Final Beta MO Eigenvalues
            1           2           3           4           5           6
    1 -24.8788757 -24.8764474 -24.8736174 -14.8451147 -10.9286093 -10.8361430
            7           8           9          10          11          12
    1  -1.9169525  -1.8076158  -1.8054965  -1.6050214  -1.3320103  -1.1537680
           13          14          15          16          17          18
    1  -1.0978207  -1.0951317  -0.9808192  -0.9712082  -0.9646729  -0.9364665
           19          20          21          22          23          24
    1  -0.9255881  -0.9191500  -0.9111167  -0.9036537  -0.4828636  -0.2366669
           25          26          27
    1  -0.1758754  -0.1433954  -0.0729612
 Analysis of SCF Wavefunction
 
 --------------------------------------------------------------
                    Orbital Energies (a.u.)
 --------------------------------------------------------------
 
 Alpha MOs
 -- Occupied --
-24.879 -24.877 -24.874 -14.858 -10.928 -10.843  -1.918  -1.809
 -1.806  -1.682  -1.338  -1.156  -1.101  -1.098  -1.007  -1.002
 -0.976  -0.960  -0.945  -0.926  -0.924  -0.918  -0.904
 -- Virtual --
 -0.274  -0.246  -0.145  -0.077  -0.073  -0.058  -0.046  -0.014
 -0.012  -0.001   0.041   0.063   0.066   0.088   0.093   0.115
  0.119   0.126   0.127   0.128   0.176   0.186   0.190   0.217
  0.248   0.263   0.264   0.285   0.287   0.288   0.362   0.372
  0.424   0.478   0.480   0.484   0.522   0.565   0.569   0.653
  0.668   0.675   0.708   0.720   0.775   0.794   0.949   0.950
  1.111   1.115   1.118   1.135   1.149   1.244   1.260   1.260
  1.323   1.327   1.338   1.351   1.425   1.431   1.432   1.586
  1.599   1.727   1.872   1.910   1.914   1.927   1.953   1.955
  2.026   2.054   2.057   2.101   2.197   2.260   2.262   2.440
  2.463   2.479   2.503   2.513   2.566   2.594   2.613   2.623
  2.660   2.764   2.872   2.875   3.007   3.023   3.059   3.069
  3.135   3.276   3.277   3.354   3.360   3.365   3.489   3.490
  3.518   3.533   3.541   3.645   3.678   3.684   3.685   3.768
  3.798   3.957   4.109   4.125   4.180   4.182   4.320   4.322
  4.387   4.649   4.649   4.866   5.060   5.087   5.813   5.864
  5.893   6.202   6.203   6.280   6.302   6.306   6.309   6.467
  6.647   6.649   6.651   6.664   6.669   6.671   6.690   6.706
  6.709   6.715   6.738   6.740   6.840   6.840   6.872   7.024
  7.025   7.176   7.332   7.335   7.418   7.477   7.706   7.708
  9.123   9.125   9.127   9.239   9.241   9.302   9.455   9.543
  9.544   9.618   9.801   9.941   9.941  10.146  10.149  24.388
 24.721  27.251  27.264  27.727  27.839  27.840  28.921  36.146
 37.485  37.503  38.228  40.258  40.389  40.420  40.521  40.537
 40.637  40.710  40.834  40.922  40.935  41.006  41.086  41.131
 41.142  41.437  50.076  50.088  50.114  50.136  50.150  50.152
 50.201  50.256  50.263  50.304  50.384  50.406  50.425  50.462
 50.483  55.752  55.753  55.821  55.823  55.826  55.827  56.132
 56.289  56.292  67.009  67.013  67.052
 
 Beta MOs
 -- Occupied --
-24.879 -24.876 -24.874 -14.845 -10.929 -10.836  -1.917  -1.808
 -1.805  -1.605  -1.332  -1.154  -1.098  -1.095  -0.981  -0.971
 -0.965  -0.936  -0.926  -0.919  -0.911  -0.904
 -- Virtual --
 -0.483  -0.237  -0.176  -0.143  -0.073  -0.072  -0.058  -0.043
 -0.012  -0.011   0.002   0.042   0.066   0.067   0.094   0.098
  0.116   0.119   0.128   0.129   0.131   0.177   0.191   0.194
  0.217   0.249   0.263   0.264   0.286   0.290   0.290   0.375
  0.376   0.426   0.479   0.486   0.489   0.529   0.579   0.580
  0.672   0.675   0.682   0.726   0.728   0.778   0.801   0.963
  0.964   1.118   1.120   1.122   1.149   1.152   1.247   1.261
  1.262   1.327   1.329   1.338   1.352   1.425   1.432   1.432
  1.597   1.602   1.731   1.873   1.912   1.914   1.933   1.954
  1.955   2.027   2.057   2.058   2.101   2.201   2.264   2.265
  2.445   2.479   2.483   2.509   2.515   2.580   2.605   2.617
  2.624   2.667   2.766   2.888   2.889   3.034   3.036   3.078
  3.081   3.139   3.277   3.277   3.359   3.365   3.368   3.504
  3.515   3.534   3.542   3.545   3.646   3.679   3.687   3.688
  3.798   3.809   3.969   4.125   4.130   4.181   4.183   4.334
  4.337   4.395   4.693   4.695   4.873   5.087   5.096   5.821
  5.894   5.903   6.202   6.203   6.280   6.303   6.307   6.309
  6.472   6.647   6.649   6.651   6.664   6.669   6.671   6.692
  6.707   6.709   6.718   6.739   6.741   6.840   6.841   6.873
  7.024   7.026   7.177   7.333   7.335   7.420   7.477   7.707
  7.708   9.123   9.125   9.127   9.240   9.242   9.303   9.456
  9.544   9.544   9.619   9.802   9.941   9.941  10.147  10.149
 24.394  24.723  27.261  27.267  27.727  27.839  27.840  28.924
 36.162  37.506  37.511  38.236  40.285  40.418  40.429  40.546
 40.547  40.647  40.709  40.834  40.922  40.945  41.006  41.087
 41.141  41.145  41.444  50.076  50.089  50.115  50.136  50.151
 50.153  50.201  50.257  50.264  50.304  50.385  50.406  50.425
 50.462  50.483  55.752  55.753  55.822  55.823  55.826  55.827
 56.132  56.290  56.292  67.010  67.013  67.053
 --------------------------------------------------------------
 
          Ground-State Mulliken Net Atomic Charges

     Atom                 Charge (a.u.)    Spin (a.u.)
  --------------------------------------------------------
      1 C                     0.496165      -0.023334
      2 C                     0.653834       0.389788
      3 F                    -0.112043       0.004413
      4 F                    -0.113750       0.000138
      5 F                    -0.110883       0.008015
      6 N                     0.186677       0.620980
  --------------------------------------------------------
  Sum of atomic charges =     1.000000
  Sum of spin   charges =     1.000000

 -----------------------------------------------------------------
                    Cartesian Multipole Moments
 -----------------------------------------------------------------
    Charge (ESU x 10^10)
                 4.8032
    Dipole Moment (Debye)
         X       0.0139      Y       0.0120      Z       6.6478
       Tot       6.6478
    Quadrupole Moments (Debye-Ang)
        XX     -28.1128     XY      -0.6631     YY     -28.1102
        XZ       0.0448     YZ      -0.0969     ZZ     -16.5514
    Octapole Moments (Debye-Ang^2)
       XXX      -0.4494    XXY       0.0094    XYY       0.4670
       YYY       0.0279    XXZ     -11.2078    XYZ      -1.3608
       YYZ     -11.1975    XZZ       0.1495    YZZ      -0.1369
       ZZZ     -18.8418
    Hexadecapole Moments (Debye-Ang^3)
      XXXX     -85.3521   XXXY      -0.4350   XXYY     -28.4503
      XYYY      -0.4562   YYYY     -85.3527   XXXZ      -0.4851
      XXYZ      -0.0424   XYYZ       0.5325   YYYZ      -0.1277
      XXZZ     -60.4900   XYZZ      -3.1129   YYZZ     -60.4713
      XZZZ       0.4764   YZZZ      -0.5575   ZZZZ    -263.2986
 -----------------------------------------------------------------
 Total job time:  268.41s(wall), 199.79s(cpu) 
 Tue Apr 12 22:29:00 2011

        *************************************************************
        *                                                           *
        *  Thank you very much for using Q-Chem.  Have a nice day.  *
        *                                                           *
        *************************************************************


0 sent ACK to 0 
now end server 0 ... 
