Process 0 of 1 is on cl118.stfx.acenet.ca - thread support 1
initial socket setup ...start
initial socket setup ...done 
now start server 0 ... 

cmd = /usr/bin/ssh clhead /usr/local/qchem/bin/get_hostid 1078025447 > /scratch/tmp/5956363.1.short.q/qchem27010/lic.dat
                  Welcome to Q-Chem
     A Quantum Leap Into The Future Of Chemistry

 Y. Shao, L. Fusti-Molnar, Y. Jung, J. Kussmann, C. Ochsenfeld,
 S. T. Brown, A. T. B. Gilbert, L. V. Slipchenko,S. V. Levchenko,
 D. P. O'Neill, R. A. DiStasio Jr., R. C. Lochan, T. Wang,
 G. J. O. Beran, N. A. Besley, J. M. Herbert, C. Y. Lin,
 T. Van Voorhis, S. H. Chien, A. Sodt, R. P. Steele, 
 V. A. Rassolov, P. E. Maslen, P. P. Korambath, R. D. Adamson,
 B. Austin, J. Baker, E. F. C. Byrd, H. Dachsel, R. J. Doerksen,
 A. Dreuw, B. D. Dunietz, A. D. Dutoi, T. R. Furlani,
 S. R. Gwaltney, A. Heyden, S. Hirata, C.-P. Hsu, G. Kedziora,
 R. Z. Khaliullin, P. Klunzinger, A. M. Lee, M. S. Lee, W. Liang,
 I. Lotan, N. Nair, B. Peters, E. I. Proynov, P. A. Pieniazek, 
 Y. M. Rhee, J. Ritchie, E. Rosta, C. D. Sherrill, 
 A. C. Simmonett, J. E. Subotnik, H. L. Woodcock III,
 W. Zhang, A. T. Bell, A. K. Chakraborty, D. M. Chipman,
 F. J. Keil, A. Warshel, W. J. Hehre, H. F. Schaefer III,
 J. Kong, A. I. Krylov, P. M. W. Gill, M. Head-Gordon,
 Q-Chem, Version 3.1, Q-Chem, Inc., Pittsburgh, PA (2007).

 Additional authors for Version 3.1: 
 Z. Gan, Y. Zhao, N. E. Schultz, D. Truhlar, E. Epifanovsky and M. Oana.

 Additional authors for Version 3.2: 
 R. Baer, B. R. Brooks, D. Casanova, J.-D. Chai, C.-L. Cheng, 
 C. Cramer, D. Crittenden, A. Ghysels, G. Hawkins, E. G. Hohenstein, 
 C. Kelley, W. Kurlancheek, D. Liotard, E. Livshits, P. Manohar, 
 A. Marenich, D. Neuhauser, R. Olson, M. A. Rohrdanz, K. S. Thanthiriwatte, 
 A. J. W. Thom, V. Vanovschi, C. F. Williams, Q. Wu and Z.-Q. You. 


 Intel X86 Linux Version

 Q-chem begins on Tue Apr 30 22:43:49 2013  

 Parallel job on  1  processors
Processing $rem in /usr/local/qchem/config/preferences.

theFileMan(): MAXOPENFILES=974 MAX_SUB_FILE_NUM=16
Maximum size of a physical file is 2.0 GB, maximum size of a tmp-file is 32.0 GB


--------------------------------------------------------------
User input:
--------------------------------------------------------------

$molecule
-1,2
C,0.0342806532,0.3974627423,0.7425016446
N,0.0471070071,-0.874619445,0.
C,0.0342806532,0.3974627423,-0.7425016446
H,-0.8865994948,-1.285237551,0.
H,0.9497975775,0.6160289895,1.2875600468
H,0.9497975775,0.6160289895,-1.2875600468
H,-0.8770562739,0.7029813895,1.2546822265
H,-0.8770562739,0.7029813895,-1.2546822265

$end

$comment
negative
$end

$xc_functional
C PBE   1.00
X wPBE  1.00
$end

$rem
SYMMETRY_DECOMPOSITION	0
exchange 		general
LRC_DFT                 true
BASIS                   g3large
omega			380
mem_static              760
max_scf_cycles          200
scf_final_print         1
sym_ignore              true
$end

--------------------------------------------------------------
 Writing REM_CC_EA            8
 ----------------------------------------------------
       Standard Nuclear Orientation (Angstroms)
    I     Atom         X            Y            Z
 ----------------------------------------------------
    1      C       0.034281     0.397463     0.742502
    2      N       0.047107    -0.874619     0.000000
    3      C       0.034281     0.397463    -0.742502
    4      H      -0.886599    -1.285238     0.000000
    5      H       0.949798     0.616029     1.287560
    6      H       0.949798     0.616029    -1.287560
    7      H      -0.877056     0.702981     1.254682
    8      H      -0.877056     0.702981    -1.254682
 ----------------------------------------------------
 Nuclear Repulsion Energy =    75.9996746244 hartrees
 There are       13 alpha and       12 beta electrons
 Requested basis set is G3large
 There are 60 shells and 176 basis functions

Total QAlloc Memory Limit   2000 MB
Mega-Array Size       743 MB
MEM_STATIC part       760 MB

                       Distance Matrix (Angstroms)
             C (  1)   N (  2)   C (  3)   H (  4)   H (  5)   H (  6)
   N (  2)  1.472979
   C (  3)  1.485003  1.472979
   H (  4)  2.056893  1.020007  2.056893
   H (  5)  1.087672  2.166724  2.237653  2.940235
   H (  6)  2.237653  2.166724  1.087672  2.940235  2.575120
   H (  7)  1.089131  2.217460  2.216443  2.351028  1.829218  3.131765
   H (  8)  2.216443  2.217460  1.089131  2.351028  3.131765  1.829218
             H (  7)
   H (  8)  2.509364
 
 A cutoff of  1.0D-08 yielded   1794 shell pairs
 There are  15512 function pairs ( 18917 Cartesian)
Evaluating contribution to one-electron hamiltonian from nuclear
 Smallest overlap matrix eigenvalue = 7.18E-05

 Q-Chem warning in module mkSTV.C, line 194:

 Overlap eigenvalue is smaller than square root of threshold

 Multipole matrices computed through 2nd order

  Scale SEOQF with 1.000000e-01/1.000000e-01/1.000000e-01

 Standard Electronic Orientation quadrupole field applied
 Nucleus-field energy     =    -0.0000000005 hartrees
 Guess from superposition of atomic densities
 Warning:  Energy on first SCF cycle will be non-variational
 Long-range K will be added via erf
 Coulomb attenuation parameter = 0.38 bohr**(-1)
 An unrestricted Kohn-Sham SCF calculation will be
 performed using Pulay DIIS extrapolation
 Exchange:  wPBE + LR-HF      Correlation:  PBE
 Using SG-1 standard quadrature grid
 SCF converges when DIIS error is below 1.0E-05
 Requested basis set is G3large
 There are 60 shells and 176 basis functions
 A cutoff of  1.0D-08 yielded   1794 shell pairs
 There are  15512 function pairs ( 18917 Cartesian)
 Warning!  Inaccurate integrated density:
   Number of electrons =    25
   Numerical integral  =    24.000071447379
   Relative error      =    -3.9997142105 %
 ---------------------------------------
  Cycle       Energy         DIIS Error
 ---------------------------------------
    1    -134.6865443163      3.55E-02
    2    -133.7716327255      3.48E-03
    3    -133.8128752378      2.78E-03
    4    -133.8383525127      5.43E-04
    5    -133.8407655209      2.02E-04
    6    -133.8415542806      8.87E-05
    7    -133.8418392945      3.13E-05
    8    -133.8420013104      1.62E-05
    9    -133.8420714437      9.49E-06 Convergence criterion met
 ---------------------------------------
 One-Electron    Energy =  -333.3587600272
 Total Coulomb   Energy =   143.1370012605
 Alpha Exchange  Energy =    -2.3570372309
 Beta  Exchange  Energy =    -2.2841542065
 DFT   Exchange  Energy =   -14.1875457976
 DFT Correlation Energy =    -0.7912500659
 Nuclear Repu.   Energy =    75.9996746239
 Nuclear Attr.   Energy =  -466.6032458178
 Kinetic         Energy =   133.2444857907
 <S^2> = 0.7501
 SCF time:  CPU 94.33 s  wall 95.03 s
 Final Alpha MO Eigenvalues
            1           2           3           4           5           6
    1 -14.0462830  -9.9793279  -9.9791051  -0.9498782  -0.6504329  -0.6106347
            7           8           9          10          11          12
    1  -0.5032927  -0.4543966  -0.3477490  -0.3226362  -0.3105135  -0.2308202
           13          14          15          16          17          18
    1   0.0275483   0.1405493   0.1419962   0.1611904   0.1770614   0.2218155
 Final Beta MO Eigenvalues
            1           2           3           4           5           6
    1 -14.0460719  -9.9790156  -9.9787942  -0.9494353  -0.6494531  -0.6095695
            7           8           9          10          11          12
    1  -0.5010847  -0.4537535  -0.3472498  -0.3221579  -0.3098769  -0.2303872
           13          14          15          16          17
    1   0.1401455   0.1528069   0.1633826   0.1760196   0.1880257
 Analysis of SCF Wavefunction
 
 --------------------------------------------------------------
                    Orbital Energies (a.u.)
 --------------------------------------------------------------
 
 Alpha MOs
 -- Occupied --
-14.046  -9.979  -9.979  -0.950  -0.650  -0.611  -0.503  -0.454
 -0.348  -0.323  -0.311  -0.231   0.028
 -- Virtual --
  0.141   0.142   0.161   0.177   0.222   0.229   0.242   0.271
  0.285   0.296   0.306   0.321   0.330   0.349   0.361   0.384
  0.397   0.411   0.425   0.450   0.463   0.465   0.539   0.544
  0.644   0.663   0.727   0.747   0.760   0.768   0.786   0.795
  0.815   0.818   0.835   0.836   0.922   0.940   0.997   1.004
  1.044   1.095   1.116   1.124   1.151   1.212   1.245   1.272
  1.325   1.390   1.392   1.395   1.444   1.451   1.497   1.544
  1.546   1.577   1.638   1.662   1.684   1.713   1.759   1.796
  1.796   1.862   1.936   1.968   2.046   2.086   2.178   2.697
  2.769   2.783   2.788   2.959   2.975   2.978   3.057   3.161
  3.198   3.204   3.222   3.278   3.326   3.355   3.357   3.446
  3.448   3.512   3.533   3.540   3.552   3.559   3.599   3.737
  3.742   3.770   3.787   3.904   4.013   4.030   4.053   4.131
  4.178   4.235   4.278   4.308   4.380   4.403   4.424   4.435
  4.475   4.506   4.560   4.702   4.731   4.863   4.879   4.926
  4.998   5.031   5.282   5.329   5.425   5.503   5.503   5.555
  5.778   5.783   5.810   5.848   5.897   5.990   6.128   6.534
 24.372  24.557  27.646  27.961  28.208  28.248  28.276  28.676
 35.791  37.879  37.879  38.443  40.698  40.787  40.803  40.880
 40.891  41.024  41.115  41.124  41.205  41.282  41.298  41.364
 41.365  41.384  41.397
 
 Beta MOs
 -- Occupied --
-14.046  -9.979  -9.979  -0.949  -0.649  -0.610  -0.501  -0.454
 -0.347  -0.322  -0.310  -0.230
 -- Virtual --
  0.140   0.153   0.163   0.176   0.188   0.224   0.229   0.243
  0.270   0.285   0.302   0.305   0.320   0.331   0.351   0.361
  0.384   0.396   0.411   0.424   0.450   0.462   0.466   0.538
  0.544   0.644   0.662   0.725   0.747   0.759   0.767   0.785
  0.794   0.813   0.818   0.834   0.834   0.921   0.939   0.998
  1.004   1.044   1.096   1.116   1.124   1.152   1.212   1.245
  1.272   1.325   1.391   1.393   1.396   1.444   1.452   1.497
  1.544   1.546   1.577   1.638   1.662   1.685   1.713   1.760
  1.796   1.796   1.863   1.936   1.968   2.046   2.087   2.178
  2.697   2.770   2.782   2.789   2.959   2.975   2.978   3.058
  3.162   3.198   3.204   3.223   3.279   3.326   3.355   3.358
  3.447   3.448   3.512   3.534   3.540   3.552   3.560   3.599
  3.738   3.743   3.770   3.787   3.904   4.014   4.030   4.054
  4.131   4.178   4.235   4.278   4.308   4.380   4.403   4.425
  4.435   4.475   4.507   4.560   4.702   4.731   4.863   4.879
  4.927   4.999   5.031   5.282   5.329   5.425   5.504   5.504
  5.556   5.778   5.783   5.811   5.848   5.898   5.991   6.129
  6.535  24.372  24.557  27.646  27.961  28.208  28.249  28.276
 28.677  35.791  37.879  37.880  38.444  40.698  40.787  40.803
 40.880  40.891  41.025  41.115  41.124  41.205  41.283  41.298
 41.365  41.365  41.384  41.397
 --------------------------------------------------------------
 
          Ground-State Mulliken Net Atomic Charges

     Atom                 Charge (a.u.)    Spin (a.u.)
  --------------------------------------------------------
      1 C                     1.260349      -1.378820
      2 N                    -0.742669       0.468026
      3 C                     1.253867      -1.372466
      4 H                    -0.344856       0.537195
      5 H                    -0.045810       0.099167
      6 H                    -0.044785       0.098112
      7 H                    -1.169877       1.276269
      8 H                    -1.166220       1.272517
  --------------------------------------------------------
  Sum of atomic charges =    -1.000000
  Sum of spin   charges =     1.000000

 -----------------------------------------------------------------
                    Cartesian Multipole Moments
 -----------------------------------------------------------------
    Charge (ESU x 10^10)
                -4.8032
    Dipole Moment (Debye)
         X       7.9899      Y      -1.1674      Z      -0.0135
       Tot       8.0747
    Quadrupole Moments (Debye-Ang)
        XX     -53.3287     XY       4.6381     YY     -44.5130
        XZ       0.0208     YZ      -0.0132     ZZ     -42.5162
    Octapole Moments (Debye-Ang^2)
       XXX     107.6915    XXY     -12.6121    XYY      33.9796
       YYY     -25.7202    XXZ      -0.0802    XYZ       0.0139
       YYZ      -0.0584    XZZ      40.8630    YZZ     -16.4129
       ZZZ      -0.1757
    Hexadecapole Moments (Debye-Ang^3)
      XXXX    -499.2570   XXXY      27.8264   XXYY    -148.6046
      XYYY      25.6656   YYYY    -349.2001   XXXZ       0.1971
      XXYZ      -0.0617   XYYZ       0.0675   YYYZ      -0.1211
      XXZZ    -157.7894   XYZZ      18.4035   YYZZ    -127.5904
      XZZZ       0.2075   YZZZ      -0.1613   ZZZZ    -381.3859
 -----------------------------------------------------------------
 Total job time:  95.23s(wall), 94.51s(cpu) 
 Tue Apr 30 22:45:24 2013

        *************************************************************
        *                                                           *
        *  Thank you very much for using Q-Chem.  Have a nice day.  *
        *                                                           *
        *************************************************************


0 sent ACK to 0 
now end server 0 ... 
 
**********************************************************************
Job 2 of 3 
**********************************************************************
 
Process 0 of 1 is on cl118.stfx.acenet.ca - thread support 1
initial socket setup ...start
initial socket setup ...done 
now start server 0 ... 

cmd = /usr/bin/ssh clhead /usr/local/qchem/bin/get_hostid 265182793 > /scratch/tmp/5956363.1.short.q/qchem27010/lic.dat
                  Welcome to Q-Chem
     A Quantum Leap Into The Future Of Chemistry

 Y. Shao, L. Fusti-Molnar, Y. Jung, J. Kussmann, C. Ochsenfeld,
 S. T. Brown, A. T. B. Gilbert, L. V. Slipchenko,S. V. Levchenko,
 D. P. O'Neill, R. A. DiStasio Jr., R. C. Lochan, T. Wang,
 G. J. O. Beran, N. A. Besley, J. M. Herbert, C. Y. Lin,
 T. Van Voorhis, S. H. Chien, A. Sodt, R. P. Steele, 
 V. A. Rassolov, P. E. Maslen, P. P. Korambath, R. D. Adamson,
 B. Austin, J. Baker, E. F. C. Byrd, H. Dachsel, R. J. Doerksen,
 A. Dreuw, B. D. Dunietz, A. D. Dutoi, T. R. Furlani,
 S. R. Gwaltney, A. Heyden, S. Hirata, C.-P. Hsu, G. Kedziora,
 R. Z. Khaliullin, P. Klunzinger, A. M. Lee, M. S. Lee, W. Liang,
 I. Lotan, N. Nair, B. Peters, E. I. Proynov, P. A. Pieniazek, 
 Y. M. Rhee, J. Ritchie, E. Rosta, C. D. Sherrill, 
 A. C. Simmonett, J. E. Subotnik, H. L. Woodcock III,
 W. Zhang, A. T. Bell, A. K. Chakraborty, D. M. Chipman,
 F. J. Keil, A. Warshel, W. J. Hehre, H. F. Schaefer III,
 J. Kong, A. I. Krylov, P. M. W. Gill, M. Head-Gordon,
 Q-Chem, Version 3.1, Q-Chem, Inc., Pittsburgh, PA (2007).

 Additional authors for Version 3.1: 
 Z. Gan, Y. Zhao, N. E. Schultz, D. Truhlar, E. Epifanovsky and M. Oana.

 Additional authors for Version 3.2: 
 R. Baer, B. R. Brooks, D. Casanova, J.-D. Chai, C.-L. Cheng, 
 C. Cramer, D. Crittenden, A. Ghysels, G. Hawkins, E. G. Hohenstein, 
 C. Kelley, W. Kurlancheek, D. Liotard, E. Livshits, P. Manohar, 
 A. Marenich, D. Neuhauser, R. Olson, M. A. Rohrdanz, K. S. Thanthiriwatte, 
 A. J. W. Thom, V. Vanovschi, C. F. Williams, Q. Wu and Z.-Q. You. 


 Intel X86 Linux Version

 Q-chem begins on Tue Apr 30 22:45:27 2013  

 Parallel job on  1  processors
Processing $rem in /usr/local/qchem/config/preferences.

theFileMan(): MAXOPENFILES=974 MAX_SUB_FILE_NUM=16
Maximum size of a physical file is 2.0 GB, maximum size of a tmp-file is 32.0 GB


--------------------------------------------------------------
User input:
--------------------------------------------------------------

$molecule
0,1
C,0.0342806532,0.3974627423,0.7425016446
N,0.0471070071,-0.874619445,0.
C,0.0342806532,0.3974627423,-0.7425016446
H,-0.8865994948,-1.285237551,0.
H,0.9497975775,0.6160289895,1.2875600468
H,0.9497975775,0.6160289895,-1.2875600468
H,-0.8770562739,0.7029813895,1.2546822265
H,-0.8770562739,0.7029813895,-1.2546822265

$end

$comment
neutral
$end

$xc_functional
C PBE   1.00
X wPBE  1.00
$end


$rem
SYMMETRY_DECOMPOSITION	0
LRC_DFT                 true
exchange 		general
BASIS                   g3large
omega			380
mem_static              760
max_scf_cycles          200
scf_final_print         1
sym_ignore              true
$end

--------------------------------------------------------------
 Writing REM_CC_EA            8
 ----------------------------------------------------
       Standard Nuclear Orientation (Angstroms)
    I     Atom         X            Y            Z
 ----------------------------------------------------
    1      C       0.034281     0.397463     0.742502
    2      N       0.047107    -0.874619     0.000000
    3      C       0.034281     0.397463    -0.742502
    4      H      -0.886599    -1.285238     0.000000
    5      H       0.949798     0.616029     1.287560
    6      H       0.949798     0.616029    -1.287560
    7      H      -0.877056     0.702981     1.254682
    8      H      -0.877056     0.702981    -1.254682
 ----------------------------------------------------
 Nuclear Repulsion Energy =    75.9996746244 hartrees
 There are       12 alpha and       12 beta electrons
 Requested basis set is G3large
 There are 60 shells and 176 basis functions

Total QAlloc Memory Limit   2000 MB
Mega-Array Size       743 MB
MEM_STATIC part       760 MB

                       Distance Matrix (Angstroms)
             C (  1)   N (  2)   C (  3)   H (  4)   H (  5)   H (  6)
   N (  2)  1.472979
   C (  3)  1.485003  1.472979
   H (  4)  2.056893  1.020007  2.056893
   H (  5)  1.087672  2.166724  2.237653  2.940235
   H (  6)  2.237653  2.166724  1.087672  2.940235  2.575120
   H (  7)  1.089131  2.217460  2.216443  2.351028  1.829218  3.131765
   H (  8)  2.216443  2.217460  1.089131  2.351028  3.131765  1.829218
             H (  7)
   H (  8)  2.509364
 
 A cutoff of  1.0D-08 yielded   1794 shell pairs
 There are  15512 function pairs ( 18917 Cartesian)
Evaluating contribution to one-electron hamiltonian from nuclear
 Smallest overlap matrix eigenvalue = 7.18E-05

 Q-Chem warning in module mkSTV.C, line 194:

 Overlap eigenvalue is smaller than square root of threshold

 Multipole matrices computed through 2nd order

  Scale SEOQF with 1.000000e-01/1.000000e-01/1.000000e-01

 Standard Electronic Orientation quadrupole field applied
 Nucleus-field energy     =    -0.0000000005 hartrees
 Guess from superposition of atomic densities
 Warning:  Energy on first SCF cycle will be non-variational
 Long-range K will be added via erf
 Coulomb attenuation parameter = 0.38 bohr**(-1)
 A restricted Kohn-Sham SCF calculation will be
 performed using Pulay DIIS extrapolation
 Exchange:  wPBE + LR-HF      Correlation:  PBE
 Using SG-1 standard quadrature grid
 SCF converges when DIIS error is below 1.0E-05
 Requested basis set is G3large
 There are 60 shells and 176 basis functions
 A cutoff of  1.0D-08 yielded   1794 shell pairs
 There are  15512 function pairs ( 18917 Cartesian)
 ---------------------------------------
  Cycle       Energy         DIIS Error
 ---------------------------------------
    1    -134.6865443163      3.55E-02
    2    -133.8303643769      3.29E-03
    3    -133.8562662947      2.40E-03
    4    -133.8728194813      5.54E-04
    5    -133.8738288412      1.33E-04
    6    -133.8739247681      5.16E-05
    7    -133.8739316772      8.59E-06 Convergence criterion met
 ---------------------------------------
 One-Electron    Energy =  -330.0234507898
 Total Coulomb   Energy =   139.6840237309
 Alpha Exchange  Energy =    -2.2854241988
 Beta  Exchange  Energy =    -2.2854241988
 DFT   Exchange  Energy =   -14.1801172808
 DFT Correlation Energy =    -0.7832135638
 Nuclear Repu.   Energy =    75.9996746239
 Nuclear Attr.   Energy =  -463.2130037585
 Kinetic         Energy =   133.1895529688
 SCF time:  CPU 58.19 s  wall 59.83 s
 Final Alpha MO Eigenvalues
            1           2           3           4           5           6
    1 -14.1867188 -10.1208085 -10.1206191  -1.0907600  -0.7910814  -0.7504740
            7           8           9          10          11          12
    1  -0.6463065  -0.5911562  -0.4891949  -0.4617207  -0.4514298  -0.3679655
           13          14          15          16          17
    1   0.0390554   0.0560369   0.0564122   0.0678123   0.0865858
 Analysis of SCF Wavefunction
 
 --------------------------------------------------------------
                    Orbital Energies (a.u.)
 --------------------------------------------------------------
 
 Alpha MOs
 -- Occupied --
-14.187 -10.121 -10.121  -1.091  -0.791  -0.750  -0.646  -0.591
 -0.489  -0.462  -0.451  -0.368
 -- Virtual --
  0.039   0.056   0.056   0.068   0.087   0.117   0.123   0.132
  0.164   0.176   0.180   0.192   0.213   0.217   0.228   0.229
  0.257   0.271   0.288   0.302   0.322   0.333   0.340   0.411
  0.414   0.514   0.530   0.593   0.610   0.626   0.636   0.653
  0.656   0.681   0.682   0.700   0.704   0.789   0.809   0.856
  0.871   0.913   0.951   0.980   0.991   1.005   1.075   1.105
  1.139   1.187   1.256   1.256   1.256   1.306   1.311   1.360
  1.400   1.407   1.440   1.501   1.525   1.542   1.574   1.618
  1.657   1.658   1.722   1.798   1.831   1.909   1.948   2.043
  2.558   2.630   2.643   2.647   2.819   2.835   2.838   2.916
  3.021   3.059   3.063   3.081   3.139   3.186   3.214   3.216
  3.306   3.309   3.369   3.394   3.401   3.412   3.419   3.459
  3.596   3.601   3.629   3.648   3.762   3.872   3.890   3.911
  3.987   4.037   4.094   4.137   4.168   4.241   4.261   4.284
  4.293   4.336   4.366   4.418   4.561   4.591   4.721   4.739
  4.785   4.857   4.890   5.141   5.189   5.285   5.363   5.364
  5.416   5.636   5.642   5.672   5.707   5.758   5.852   5.989
  6.391  24.231  24.415  27.505  27.819  28.067  28.107  28.134
 28.535  35.651  37.739  37.739  38.303  40.557  40.646  40.662
 40.739  40.750  40.883  40.973  40.982  41.064  41.141  41.156
 41.223  41.223  41.242  41.256
 --------------------------------------------------------------
 
          Ground-State Mulliken Net Atomic Charges

     Atom                 Charge (a.u.)
  ----------------------------------------
      1 C                    -0.129373
      2 N                    -0.247010
      3 C                    -0.129406
      4 H                     0.168462
      5 H                     0.086070
      6 H                     0.086077
      7 H                     0.082586
      8 H                     0.082593
  ----------------------------------------
  Sum of atomic charges =     0.000000

 -----------------------------------------------------------------
                    Cartesian Multipole Moments
 -----------------------------------------------------------------
    Charge (ESU x 10^10)
                 0.0000
    Dipole Moment (Debye)
         X      -1.3835      Y       1.1675      Z       0.0000
       Tot       1.8102
    Quadrupole Moments (Debye-Ang)
        XX     -17.6721     XY       2.2795     YY     -21.3716
        XZ       0.0000     YZ      -0.0001     ZZ     -18.4581
    Octapole Moments (Debye-Ang^2)
       XXX      -1.8047    XXY       0.0479    XYY      -3.7779
       YYY      -0.5797    XXZ      -0.0001    XYZ       0.0000
       YYZ       0.0000    XZZ       0.0161    YZZ       1.4371
       ZZZ      -0.0002
    Hexadecapole Moments (Debye-Ang^3)
      XXXX     -34.6689   XXXY       1.0694   XXYY     -17.0478
      XYYY       3.7724   YYYY     -76.0283   XXXZ       0.0001
      XXYZ      -0.0001   XYYZ       0.0000   YYYZ      -0.0002
      XXZZ     -16.9571   XYZZ      -0.2622   YYZZ     -25.6184
      XZZZ       0.0000   YZZZ      -0.0001   ZZZZ     -82.8300
 -----------------------------------------------------------------
 Total job time:  60.02s(wall), 58.36s(cpu) 
 Tue Apr 30 22:46:27 2013

        *************************************************************
        *                                                           *
        *  Thank you very much for using Q-Chem.  Have a nice day.  *
        *                                                           *
        *************************************************************


0 sent ACK to 0 
now end server 0 ... 
 
**********************************************************************
Job 3 of 3 
**********************************************************************
 
Process 0 of 1 is on cl118.stfx.acenet.ca - thread support 1
initial socket setup ...start
initial socket setup ...done 
now start server 0 ... 

cmd = /usr/bin/ssh clhead /usr/local/qchem/bin/get_hostid 436950144 > /scratch/tmp/5956363.1.short.q/qchem27010/lic.dat
                  Welcome to Q-Chem
     A Quantum Leap Into The Future Of Chemistry

 Y. Shao, L. Fusti-Molnar, Y. Jung, J. Kussmann, C. Ochsenfeld,
 S. T. Brown, A. T. B. Gilbert, L. V. Slipchenko,S. V. Levchenko,
 D. P. O'Neill, R. A. DiStasio Jr., R. C. Lochan, T. Wang,
 G. J. O. Beran, N. A. Besley, J. M. Herbert, C. Y. Lin,
 T. Van Voorhis, S. H. Chien, A. Sodt, R. P. Steele, 
 V. A. Rassolov, P. E. Maslen, P. P. Korambath, R. D. Adamson,
 B. Austin, J. Baker, E. F. C. Byrd, H. Dachsel, R. J. Doerksen,
 A. Dreuw, B. D. Dunietz, A. D. Dutoi, T. R. Furlani,
 S. R. Gwaltney, A. Heyden, S. Hirata, C.-P. Hsu, G. Kedziora,
 R. Z. Khaliullin, P. Klunzinger, A. M. Lee, M. S. Lee, W. Liang,
 I. Lotan, N. Nair, B. Peters, E. I. Proynov, P. A. Pieniazek, 
 Y. M. Rhee, J. Ritchie, E. Rosta, C. D. Sherrill, 
 A. C. Simmonett, J. E. Subotnik, H. L. Woodcock III,
 W. Zhang, A. T. Bell, A. K. Chakraborty, D. M. Chipman,
 F. J. Keil, A. Warshel, W. J. Hehre, H. F. Schaefer III,
 J. Kong, A. I. Krylov, P. M. W. Gill, M. Head-Gordon,
 Q-Chem, Version 3.1, Q-Chem, Inc., Pittsburgh, PA (2007).

 Additional authors for Version 3.1: 
 Z. Gan, Y. Zhao, N. E. Schultz, D. Truhlar, E. Epifanovsky and M. Oana.

 Additional authors for Version 3.2: 
 R. Baer, B. R. Brooks, D. Casanova, J.-D. Chai, C.-L. Cheng, 
 C. Cramer, D. Crittenden, A. Ghysels, G. Hawkins, E. G. Hohenstein, 
 C. Kelley, W. Kurlancheek, D. Liotard, E. Livshits, P. Manohar, 
 A. Marenich, D. Neuhauser, R. Olson, M. A. Rohrdanz, K. S. Thanthiriwatte, 
 A. J. W. Thom, V. Vanovschi, C. F. Williams, Q. Wu and Z.-Q. You. 


 Intel X86 Linux Version

 Q-chem begins on Tue Apr 30 22:46:29 2013  

 Parallel job on  1  processors
Processing $rem in /usr/local/qchem/config/preferences.

theFileMan(): MAXOPENFILES=974 MAX_SUB_FILE_NUM=16
Maximum size of a physical file is 2.0 GB, maximum size of a tmp-file is 32.0 GB


--------------------------------------------------------------
User input:
--------------------------------------------------------------

$molecule
1,2
C,0.0342806532,0.3974627423,0.7425016446
N,0.0471070071,-0.874619445,0.
C,0.0342806532,0.3974627423,-0.7425016446
H,-0.8865994948,-1.285237551,0.
H,0.9497975775,0.6160289895,1.2875600468
H,0.9497975775,0.6160289895,-1.2875600468
H,-0.8770562739,0.7029813895,1.2546822265
H,-0.8770562739,0.7029813895,-1.2546822265

$end

$comment
positive
$end

$xc_functional
C PBE   1.00
X wPBE  1.00
$end

$rem
SYMMETRY_DECOMPOSITION	0
LRC_DFT                 true
exchange 		general
BASIS                   g3large
omega			380
mem_static              760
max_scf_cycles          200
scf_final_print         1
sym_ignore              true
$end

--------------------------------------------------------------
 Writing REM_CC_EA            8
 ----------------------------------------------------
       Standard Nuclear Orientation (Angstroms)
    I     Atom         X            Y            Z
 ----------------------------------------------------
    1      C       0.034281     0.397463     0.742502
    2      N       0.047107    -0.874619     0.000000
    3      C       0.034281     0.397463    -0.742502
    4      H      -0.886599    -1.285238     0.000000
    5      H       0.949798     0.616029     1.287560
    6      H       0.949798     0.616029    -1.287560
    7      H      -0.877056     0.702981     1.254682
    8      H      -0.877056     0.702981    -1.254682
 ----------------------------------------------------
 Nuclear Repulsion Energy =    75.9996746244 hartrees
 There are       12 alpha and       11 beta electrons
 Requested basis set is G3large
 There are 60 shells and 176 basis functions

Total QAlloc Memory Limit   2000 MB
Mega-Array Size       743 MB
MEM_STATIC part       760 MB

                       Distance Matrix (Angstroms)
             C (  1)   N (  2)   C (  3)   H (  4)   H (  5)   H (  6)
   N (  2)  1.472979
   C (  3)  1.485003  1.472979
   H (  4)  2.056893  1.020007  2.056893
   H (  5)  1.087672  2.166724  2.237653  2.940235
   H (  6)  2.237653  2.166724  1.087672  2.940235  2.575120
   H (  7)  1.089131  2.217460  2.216443  2.351028  1.829218  3.131765
   H (  8)  2.216443  2.217460  1.089131  2.351028  3.131765  1.829218
             H (  7)
   H (  8)  2.509364
 
 A cutoff of  1.0D-08 yielded   1794 shell pairs
 There are  15512 function pairs ( 18917 Cartesian)
Evaluating contribution to one-electron hamiltonian from nuclear
 Smallest overlap matrix eigenvalue = 7.18E-05

 Q-Chem warning in module mkSTV.C, line 194:

 Overlap eigenvalue is smaller than square root of threshold

 Multipole matrices computed through 2nd order

  Scale SEOQF with 1.000000e-01/1.000000e-01/1.000000e-01

 Standard Electronic Orientation quadrupole field applied
 Nucleus-field energy     =    -0.0000000005 hartrees
 Guess from superposition of atomic densities
 Warning:  Energy on first SCF cycle will be non-variational
 Long-range K will be added via erf
 Coulomb attenuation parameter = 0.38 bohr**(-1)
 An unrestricted Kohn-Sham SCF calculation will be
 performed using Pulay DIIS extrapolation
 Exchange:  wPBE + LR-HF      Correlation:  PBE
 Using SG-1 standard quadrature grid
 SCF converges when DIIS error is below 1.0E-05
 Requested basis set is G3large
 There are 60 shells and 176 basis functions
 A cutoff of  1.0D-08 yielded   1794 shell pairs
 There are  15512 function pairs ( 18917 Cartesian)
 Warning!  Inaccurate integrated density:
   Number of electrons =    23
   Numerical integral  =    24.000071447379
   Relative error      =     4.3481367277 %
 ---------------------------------------
  Cycle       Energy         DIIS Error
 ---------------------------------------
    1    -134.6865443163      3.55E-02
    2    -133.4586219572      2.74E-03
    3    -133.5001923263      1.34E-03
    4    -133.5072067884      3.80E-04
    5    -133.5086062505      1.53E-04
    6    -133.5089984921      1.23E-04
    7    -133.5091888580      4.35E-05
    8    -133.5092798365      2.44E-05
    9    -133.5093059902      1.21E-05
   10    -133.5093145548      6.54E-06 Convergence criterion met
 ---------------------------------------
 One-Electron    Energy =  -322.9345787415
 Total Coulomb   Energy =   132.6318982807
 Alpha Exchange  Energy =    -2.3032175949
 Beta  Exchange  Energy =    -2.1017408286
 DFT   Exchange  Energy =   -14.0572088153
 DFT Correlation Energy =    -0.7441414790
 Nuclear Repu.   Energy =    75.9996746239
 Nuclear Attr.   Energy =  -455.8551343608
 Kinetic         Energy =   132.9205556193
 <S^2> = 0.7544
 SCF time:  CPU 102.90 s  wall 104.52 s
 Final Alpha MO Eigenvalues
            1           2           3           4           5           6
    1 -14.5668142 -10.4038155 -10.4035493  -1.4125781  -1.0996015  -1.0242860
            7           8           9          10          11          12
    1  -0.9404266  -0.8876115  -0.7754113  -0.7562805  -0.7486403  -0.7152720
           13          14          15          16          17
    1  -0.1219937  -0.0962095  -0.0845695  -0.0837627  -0.0706579
 Final Beta MO Eigenvalues
            1           2           3           4           5           6
    1 -14.5512739 -10.4023393 -10.4020921  -1.3913178  -1.0718561  -1.0154412
            7           8           9          10          11          12
    1  -0.9207815  -0.8544500  -0.7617142  -0.7404268  -0.7245949  -0.3584573
           13          14          15          16
    1  -0.1196222  -0.0934359  -0.0834584  -0.0821913
 Analysis of SCF Wavefunction
 
 --------------------------------------------------------------
                    Orbital Energies (a.u.)
 --------------------------------------------------------------
 
 Alpha MOs
 -- Occupied --
-14.567 -10.404 -10.404  -1.413  -1.100  -1.024  -0.940  -0.888
 -0.775  -0.756  -0.749  -0.715
 -- Virtual --
 -0.122  -0.096  -0.085  -0.084  -0.071  -0.043  -0.036  -0.031
 -0.015   0.004   0.015   0.023   0.030   0.039   0.043   0.052
  0.053   0.078   0.088   0.094   0.111   0.126   0.156   0.171
  0.187   0.302   0.315   0.363   0.381   0.398   0.406   0.413
  0.427   0.448   0.459   0.462   0.489   0.543   0.558   0.621
  0.639   0.654   0.709   0.721   0.738   0.753   0.827   0.869
  0.891   0.951   0.990   1.018   1.019   1.057   1.059   1.106
  1.151   1.153   1.197   1.268   1.274   1.302   1.336   1.373
  1.390   1.422   1.475   1.493   1.531   1.622   1.657   1.740
  2.289   2.355   2.367   2.395   2.555   2.560   2.562   2.629
  2.737   2.775   2.777   2.798   2.851   2.909   2.939   2.953
  3.015   3.019   3.099   3.101   3.107   3.140   3.147   3.161
  3.308   3.315   3.341   3.367   3.472   3.578   3.612   3.620
  3.681   3.749   3.786   3.865   3.890   3.948   3.994   4.017
  4.036   4.049   4.089   4.138   4.280   4.313   4.417   4.441
  4.496   4.563   4.575   4.831   4.869   4.925   4.995   5.073
  5.075   5.307   5.346   5.383   5.419   5.447   5.520   5.682
  6.054  23.948  24.133  27.219  27.534  27.785  27.825  27.853
 28.254  35.273  37.344  37.366  37.930  40.179  40.257  40.281
 40.353  40.376  40.597  40.689  40.697  40.780  40.856  40.871
 40.937  40.938  40.961  40.974
 
 Beta MOs
 -- Occupied --
-14.551 -10.402 -10.402  -1.391  -1.072  -1.015  -0.921  -0.854
 -0.762  -0.740  -0.725
 -- Virtual --
 -0.358  -0.120  -0.093  -0.083  -0.082  -0.054  -0.042  -0.036
 -0.029  -0.011   0.009   0.022   0.024   0.036   0.043   0.045
  0.053   0.056   0.082   0.097   0.097   0.115   0.129   0.158
  0.176   0.198   0.306   0.321   0.370   0.385   0.407   0.411
  0.427   0.432   0.454   0.464   0.467   0.493   0.552   0.565
  0.626   0.641   0.672   0.712   0.736   0.746   0.760   0.837
  0.872   0.903   0.956   1.002   1.021   1.022   1.064   1.067
  1.116   1.158   1.162   1.201   1.276   1.277   1.305   1.342
  1.378   1.404   1.426   1.478   1.526   1.557   1.634   1.672
  1.766   2.296   2.366   2.375   2.398   2.566   2.566   2.568
  2.639   2.746   2.788   2.789   2.810   2.862   2.917   2.947
  2.957   3.029   3.032   3.105   3.114   3.129   3.149   3.151
  3.177   3.321   3.330   3.351   3.376   3.487   3.596   3.628
  3.630   3.695   3.759   3.804   3.870   3.898   3.968   3.999
  4.026   4.041   4.064   4.100   4.144   4.294   4.321   4.434
  4.457   4.505   4.575   4.594   4.854   4.899   4.972   5.059
  5.086   5.109   5.350   5.363   5.390   5.442   5.454   5.557
  5.701   6.080  23.950  24.134  27.224  27.539  27.786  27.825
 27.854  28.255  35.290  37.377  37.384  37.942  40.197  40.289
 40.302  40.381  40.391  40.600  40.692  40.700  40.782  40.860
 40.875  40.940  40.940  40.961  40.975
 --------------------------------------------------------------
 
          Ground-State Mulliken Net Atomic Charges

     Atom                 Charge (a.u.)    Spin (a.u.)
  --------------------------------------------------------
      1 C                    -0.046123       0.093097
      2 N                     0.138814       0.735427
      3 C                    -0.045958       0.093192
      4 H                     0.262097       0.008276
      5 H                     0.179880       0.030594
      6 H                     0.179831       0.030539
      7 H                     0.165751       0.004447
      8 H                     0.165708       0.004428
  --------------------------------------------------------
  Sum of atomic charges =     1.000000
  Sum of spin   charges =     1.000000

 -----------------------------------------------------------------
                    Cartesian Multipole Moments
 -----------------------------------------------------------------
    Charge (ESU x 10^10)
                 4.8032
    Dipole Moment (Debye)
         X      -1.0277      Y       0.0354      Z      -0.0004
       Tot       1.0283
    Quadrupole Moments (Debye-Ang)
        XX     -13.0414     XY       1.5396     YY     -13.4864
        XZ       0.0002     YZ       0.0000     ZZ     -12.5872
    Octapole Moments (Debye-Ang^2)
       XXX      -1.6556    XXY      -0.2988    XYY      -2.9671
       YYY      -4.8316    XXZ       0.0005    XYZ       0.0000
       YYZ       0.0002    XZZ       0.6416    YZZ       3.7510
       ZZZ       0.0002
    Hexadecapole Moments (Debye-Ang^3)
      XXXX     -23.8798   XXXY       0.8779   XXYY     -10.2804
      XYYY       1.3647   YYYY     -51.6840   XXXZ       0.0002
      XXYZ       0.0004   XYYZ       0.0001   YYYZ       0.0001
      XXZZ     -10.1994   XYZZ      -0.3655   YYZZ     -18.8993
      XZZZ       0.0004   YZZZ       0.0006   ZZZZ     -63.0353
 -----------------------------------------------------------------
 Total job time:  104.71s(wall), 103.08s(cpu) 
 Tue Apr 30 22:48:14 2013

        *************************************************************
        *                                                           *
        *  Thank you very much for using Q-Chem.  Have a nice day.  *
        *                                                           *
        *************************************************************


0 sent ACK to 0 
now end server 0 ... 
