Process 0 of 1 is on cl020.stfx.acenet.ca - thread support 1
initial socket setup ...start
initial socket setup ...done 
now start server 0 ... 

cmd = /usr/bin/ssh clhead /usr/local/qchem/bin/get_hostid 477557845 > /scratch/tmp/6063581.1.short.q/qchem15134/lic.dat
                  Welcome to Q-Chem
     A Quantum Leap Into The Future Of Chemistry

 Y. Shao, L. Fusti-Molnar, Y. Jung, J. Kussmann, C. Ochsenfeld,
 S. T. Brown, A. T. B. Gilbert, L. V. Slipchenko,S. V. Levchenko,
 D. P. O'Neill, R. A. DiStasio Jr., R. C. Lochan, T. Wang,
 G. J. O. Beran, N. A. Besley, J. M. Herbert, C. Y. Lin,
 T. Van Voorhis, S. H. Chien, A. Sodt, R. P. Steele, 
 V. A. Rassolov, P. E. Maslen, P. P. Korambath, R. D. Adamson,
 B. Austin, J. Baker, E. F. C. Byrd, H. Dachsel, R. J. Doerksen,
 A. Dreuw, B. D. Dunietz, A. D. Dutoi, T. R. Furlani,
 S. R. Gwaltney, A. Heyden, S. Hirata, C.-P. Hsu, G. Kedziora,
 R. Z. Khaliullin, P. Klunzinger, A. M. Lee, M. S. Lee, W. Liang,
 I. Lotan, N. Nair, B. Peters, E. I. Proynov, P. A. Pieniazek, 
 Y. M. Rhee, J. Ritchie, E. Rosta, C. D. Sherrill, 
 A. C. Simmonett, J. E. Subotnik, H. L. Woodcock III,
 W. Zhang, A. T. Bell, A. K. Chakraborty, D. M. Chipman,
 F. J. Keil, A. Warshel, W. J. Hehre, H. F. Schaefer III,
 J. Kong, A. I. Krylov, P. M. W. Gill, M. Head-Gordon,
 Q-Chem, Version 3.1, Q-Chem, Inc., Pittsburgh, PA (2007).

 Additional authors for Version 3.1: 
 Z. Gan, Y. Zhao, N. E. Schultz, D. Truhlar, E. Epifanovsky and M. Oana.

 Additional authors for Version 3.2: 
 R. Baer, B. R. Brooks, D. Casanova, J.-D. Chai, C.-L. Cheng, 
 C. Cramer, D. Crittenden, A. Ghysels, G. Hawkins, E. G. Hohenstein, 
 C. Kelley, W. Kurlancheek, D. Liotard, E. Livshits, P. Manohar, 
 A. Marenich, D. Neuhauser, R. Olson, M. A. Rohrdanz, K. S. Thanthiriwatte, 
 A. J. W. Thom, V. Vanovschi, C. F. Williams, Q. Wu and Z.-Q. You. 


 Intel X86 Linux Version

 Q-chem begins on Sun Jul  7 08:38:06 2013  

 Parallel job on  1  processors
Processing $rem in /usr/local/qchem/config/preferences.

theFileMan(): MAXOPENFILES=974 MAX_SUB_FILE_NUM=16
Maximum size of a physical file is 2.0 GB, maximum size of a tmp-file is 32.0 GB


--------------------------------------------------------------
User input:
--------------------------------------------------------------

$molecule
-1,2
F         -0.02000        0.00000        0.04316
O         -0.01707        0.00000        1.39556
F         -1.33043        0.00000        1.71817
$end

$comment
negative
$end

$xc_functional
C PBE   1.00
X wPBE  1.00
$end

$rem
SYMMETRY_DECOMPOSITION	0
exchange 		general
LRC_DFT                 true
BASIS                   g3large
omega			900
mem_static              760
max_scf_cycles          200
scf_final_print         1
sym_ignore              true
$end

--------------------------------------------------------------
 Writing REM_CC_EA            3
 ----------------------------------------------------
       Standard Nuclear Orientation (Angstroms)
    I     Atom         X            Y            Z
 ----------------------------------------------------
    1      F      -0.020000     0.000000     0.043160
    2      O      -0.017070     0.000000     1.395560
    3      F      -1.330430     0.000000     1.718170
 ----------------------------------------------------
 Nuclear Repulsion Energy =    76.5000817537 hartrees
 There are       14 alpha and       13 beta electrons
 Requested basis set is G3large
 There are 30 shells and 126 basis functions

Total QAlloc Memory Limit   2000 MB
Mega-Array Size       743 MB
MEM_STATIC part       760 MB

                       Distance Matrix (Angstroms)
             F (  1)   O (  2)
   O (  2)  1.352403
   F (  3)  2.126708  1.352402
 
 A cutoff of  1.0D-08 yielded    422 shell pairs
 There are   7641 function pairs ( 10011 Cartesian)
Evaluating contribution to one-electron hamiltonian from nuclear
 Smallest overlap matrix eigenvalue = 2.33E-03
 Multipole matrices computed through 2nd order

  Scale SEOQF with 1.000000e-01/1.000000e+00/1.000000e-01

 Standard Electronic Orientation quadrupole field applied
 Nucleus-field energy     =    -0.0000000039 hartrees
 Guess from superposition of atomic densities
 Warning:  Energy on first SCF cycle will be non-variational
 Long-range K will be added via erf
 Coulomb attenuation parameter = 0.9 bohr**(-1)
 An unrestricted Kohn-Sham SCF calculation will be
 performed using Pulay DIIS extrapolation
 Exchange:  wPBE + LR-HF      Correlation:  PBE
 Using SG-1 standard quadrature grid
 SCF converges when DIIS error is below 1.0E-05
 Requested basis set is G3large
 There are 30 shells and 126 basis functions
 A cutoff of  1.0D-08 yielded    422 shell pairs
 There are   7641 function pairs ( 10011 Cartesian)
 Warning!  Inaccurate integrated density:
   Number of electrons =    27
   Numerical integral  =    25.999982500793
   Relative error      =    -3.7037685156 %
 ---------------------------------------
  Cycle       Energy         DIIS Error
 ---------------------------------------
    1    -274.9641285118      3.40E-02
    2    -274.4493498859      6.54E-03
    3    -274.5029114597      4.12E-03
    4    -274.5212170337      9.19E-04
    5    -274.5241338482      3.81E-04
    6    -274.5254745380      1.97E-04
    7    -274.5262092389      1.52E-04
    8    -274.5267184274      1.34E-04
    9    -274.5273238950      1.53E-04
   10    -274.5262881559      1.40E-04
   11    -274.5244976968      1.11E-04
   12    -274.5244397261      7.98E-05
   13    -274.5243241101      1.60E-05
   14    -274.5243286576      8.03E-06 Convergence criterion met
 ---------------------------------------
 One-Electron    Energy =  -542.8623687861
 Total Coulomb   Energy =   221.5085895607
 Alpha Exchange  Energy =    -5.4738475799
 Beta  Exchange  Energy =    -5.0780514498
 DFT   Exchange  Energy =   -18.1885806403
 DFT Correlation Energy =    -0.9301515120
 Nuclear Repu.   Energy =    76.5000817497
 Nuclear Attr.   Energy =  -818.0548965998
 Kinetic         Energy =   275.1925278137
 <S^2> = 0.7717
 SCF time:  CPU 44.09 s  wall 44.71 s
 Final Alpha MO Eigenvalues
            1           2           3           4           5           6
    1 -24.4330958 -24.4330545 -19.0210350  -1.3567985  -1.2215411  -0.8763702
            7           8           9          10          11          12
    1  -0.5611622  -0.4731622  -0.4712055  -0.3710558  -0.3461599  -0.3337229
           13          14          15          16          17          18
    1  -0.1937770   0.0278023   0.3589678   0.3881402   0.4128318   0.4451022
           19
    1   0.4759516
 Final Beta MO Eigenvalues
            1           2           3           4           5           6
    1 -24.4250797 -24.4250483 -19.0033912  -1.3293098  -1.1902744  -0.8354738
            7           8           9          10          11          12
    1  -0.4642218  -0.4618669  -0.4575715  -0.3611105  -0.3263793  -0.2937253
           13          14          15          16          17          18
    1  -0.1746465   0.3680507   0.3803295   0.3990104   0.4469061   0.4957762
 Analysis of SCF Wavefunction
 
 --------------------------------------------------------------
                    Orbital Energies (a.u.)
 --------------------------------------------------------------
 
 Alpha MOs
 -- Occupied --
-24.433 -24.433 -19.021  -1.357  -1.222  -0.876  -0.561  -0.473
 -0.471  -0.371  -0.346  -0.334  -0.194   0.028
 -- Virtual --
  0.359   0.388   0.413   0.445   0.476   0.509   0.541   0.549
  0.549   0.575   0.615   0.739   0.790   1.392   1.408   1.434
  1.590   1.665   1.709   1.713   1.731   1.798   1.861   1.881
  1.889   1.912   2.274   2.383   2.456   2.476   2.480   2.505
  2.598   2.643   2.755   2.958   2.997   3.251   3.475   3.493
  5.284   5.416   5.462   5.495   5.504   5.509   5.519   5.581
  5.612   5.630   6.688   6.730   6.748   6.806   6.873   6.971
  7.112   7.160   7.188   7.190   7.190   7.194   7.200   7.214
  7.257   7.318   7.425   7.741   7.776   7.815   7.980   7.999
  8.061   8.732   8.930   9.627   9.628   9.629   9.658   9.929
  9.947   9.971  10.064  10.492  10.629  44.270  44.274  44.292
 44.324  44.407  46.063  46.372  46.692  50.174  50.655  50.664
 50.696  50.699  50.776  50.782  50.802  50.818  50.989  51.004
 56.129  56.146  56.153  56.207  56.503  56.625  67.176  67.192
 
 Beta MOs
 -- Occupied --
-24.425 -24.425 -19.003  -1.329  -1.190  -0.835  -0.464  -0.462
 -0.458  -0.361  -0.326  -0.294  -0.175
 -- Virtual --
  0.368   0.380   0.399   0.447   0.496   0.517   0.545   0.552
  0.554   0.584   0.586   0.638   0.742   0.794   1.410   1.440
  1.443   1.596   1.686   1.722   1.724   1.734   1.816   1.868
  1.891   1.900   1.918   2.300   2.392   2.469   2.478   2.486
  2.507   2.611   2.684   2.763   2.984   3.004   3.270   3.511
  3.511   5.303   5.419   5.473   5.516   5.527   5.534   5.551
  5.597   5.630   5.679   6.698   6.738   6.757   6.816   6.903
  6.996   7.137   7.168   7.194   7.195   7.195   7.198   7.210
  7.225   7.289   7.363   7.437   7.773   7.808   7.833   8.012
  8.029   8.106   8.767   8.964   9.637   9.639   9.639   9.669
  9.953   9.971   9.993  10.087  10.521  10.657  44.270  44.294
 44.323  44.380  44.450  46.073  46.378  46.740  50.194  50.658
 50.669  50.701  50.702  50.794  50.800  50.819  50.837  51.011
 51.026  56.135  56.151  56.158  56.213  56.520  56.641  67.185
 67.201
 --------------------------------------------------------------
 
          Ground-State Mulliken Net Atomic Charges

     Atom                 Charge (a.u.)    Spin (a.u.)
  --------------------------------------------------------
      1 F                    -0.145615       0.106777
      2 O                    -0.708518       0.785911
      3 F                    -0.145867       0.107313
  --------------------------------------------------------
  Sum of atomic charges =    -1.000000
  Sum of spin   charges =     1.000000

 -----------------------------------------------------------------
                    Cartesian Multipole Moments
 -----------------------------------------------------------------
    Charge (ESU x 10^10)
                -4.8032
    Dipole Moment (Debye)
         X       2.1141      Y      -0.0001      Z      -5.1137
       Tot       5.5335
    Quadrupole Moments (Debye-Ang)
        XX     -21.3309     XY       0.0002     YY     -17.0932
        XZ       4.0037     YZ       0.0002     ZZ     -26.7117
    Octapole Moments (Debye-Ang^2)
       XXX      29.2881    XXY      -0.0006    XYY       7.3116
       YYY      -0.0001    XXZ     -25.5786    XYZ       0.0003
       YYZ     -18.3624    XZZ      15.1574    YZZ       0.0009
       ZZZ     -71.1314
    Hexadecapole Moments (Debye-Ang^3)
      XXXX     -86.6157   XXXY       0.0007   XXYY     -15.0895
      XYYY       0.0000   YYYY     -13.5275   XXXZ      50.1954
      XXYZ      -0.0007   XYYZ      12.6734   YYYZ       0.0005
      XXZZ     -56.4984   XYZZ       0.0008   YYZZ     -34.0761
      XZZZ      52.4037   YZZZ       0.0028   ZZZZ    -215.1522
 -----------------------------------------------------------------
 Total job time:  44.87s(wall), 44.24s(cpu) 
 Sun Jul  7 08:38:51 2013

        *************************************************************
        *                                                           *
        *  Thank you very much for using Q-Chem.  Have a nice day.  *
        *                                                           *
        *************************************************************


0 sent ACK to 0 
now end server 0 ... 
 
**********************************************************************
Job 2 of 3 
**********************************************************************
 
Process 0 of 1 is on cl020.stfx.acenet.ca - thread support 1
initial socket setup ...start
initial socket setup ...done 
now start server 0 ... 

cmd = /usr/bin/ssh clhead /usr/local/qchem/bin/get_hostid 1976642478 > /scratch/tmp/6063581.1.short.q/qchem15134/lic.dat
                  Welcome to Q-Chem
     A Quantum Leap Into The Future Of Chemistry

 Y. Shao, L. Fusti-Molnar, Y. Jung, J. Kussmann, C. Ochsenfeld,
 S. T. Brown, A. T. B. Gilbert, L. V. Slipchenko,S. V. Levchenko,
 D. P. O'Neill, R. A. DiStasio Jr., R. C. Lochan, T. Wang,
 G. J. O. Beran, N. A. Besley, J. M. Herbert, C. Y. Lin,
 T. Van Voorhis, S. H. Chien, A. Sodt, R. P. Steele, 
 V. A. Rassolov, P. E. Maslen, P. P. Korambath, R. D. Adamson,
 B. Austin, J. Baker, E. F. C. Byrd, H. Dachsel, R. J. Doerksen,
 A. Dreuw, B. D. Dunietz, A. D. Dutoi, T. R. Furlani,
 S. R. Gwaltney, A. Heyden, S. Hirata, C.-P. Hsu, G. Kedziora,
 R. Z. Khaliullin, P. Klunzinger, A. M. Lee, M. S. Lee, W. Liang,
 I. Lotan, N. Nair, B. Peters, E. I. Proynov, P. A. Pieniazek, 
 Y. M. Rhee, J. Ritchie, E. Rosta, C. D. Sherrill, 
 A. C. Simmonett, J. E. Subotnik, H. L. Woodcock III,
 W. Zhang, A. T. Bell, A. K. Chakraborty, D. M. Chipman,
 F. J. Keil, A. Warshel, W. J. Hehre, H. F. Schaefer III,
 J. Kong, A. I. Krylov, P. M. W. Gill, M. Head-Gordon,
 Q-Chem, Version 3.1, Q-Chem, Inc., Pittsburgh, PA (2007).

 Additional authors for Version 3.1: 
 Z. Gan, Y. Zhao, N. E. Schultz, D. Truhlar, E. Epifanovsky and M. Oana.

 Additional authors for Version 3.2: 
 R. Baer, B. R. Brooks, D. Casanova, J.-D. Chai, C.-L. Cheng, 
 C. Cramer, D. Crittenden, A. Ghysels, G. Hawkins, E. G. Hohenstein, 
 C. Kelley, W. Kurlancheek, D. Liotard, E. Livshits, P. Manohar, 
 A. Marenich, D. Neuhauser, R. Olson, M. A. Rohrdanz, K. S. Thanthiriwatte, 
 A. J. W. Thom, V. Vanovschi, C. F. Williams, Q. Wu and Z.-Q. You. 


 Intel X86 Linux Version

 Q-chem begins on Sun Jul  7 08:38:53 2013  

 Parallel job on  1  processors
Processing $rem in /usr/local/qchem/config/preferences.

theFileMan(): MAXOPENFILES=974 MAX_SUB_FILE_NUM=16
Maximum size of a physical file is 2.0 GB, maximum size of a tmp-file is 32.0 GB


--------------------------------------------------------------
User input:
--------------------------------------------------------------

$molecule
0,1
F         -0.02000        0.00000        0.04316
O         -0.01707        0.00000        1.39556
F         -1.33043        0.00000        1.71817
$end

$comment
neutral
$end

$xc_functional
C PBE   1.00
X wPBE  1.00
$end


$rem
SYMMETRY_DECOMPOSITION	0
LRC_DFT                 true
exchange 		general
BASIS                   g3large
omega			900
mem_static              760
max_scf_cycles          200
scf_final_print         1
sym_ignore              true
$end

--------------------------------------------------------------
 Writing REM_CC_EA            3
 ----------------------------------------------------
       Standard Nuclear Orientation (Angstroms)
    I     Atom         X            Y            Z
 ----------------------------------------------------
    1      F      -0.020000     0.000000     0.043160
    2      O      -0.017070     0.000000     1.395560
    3      F      -1.330430     0.000000     1.718170
 ----------------------------------------------------
 Nuclear Repulsion Energy =    76.5000817537 hartrees
 There are       13 alpha and       13 beta electrons
 Requested basis set is G3large
 There are 30 shells and 126 basis functions

Total QAlloc Memory Limit   2000 MB
Mega-Array Size       743 MB
MEM_STATIC part       760 MB

                       Distance Matrix (Angstroms)
             F (  1)   O (  2)
   O (  2)  1.352403
   F (  3)  2.126708  1.352402
 
 A cutoff of  1.0D-08 yielded    422 shell pairs
 There are   7641 function pairs ( 10011 Cartesian)
Evaluating contribution to one-electron hamiltonian from nuclear
 Smallest overlap matrix eigenvalue = 2.33E-03
 Multipole matrices computed through 2nd order

  Scale SEOQF with 1.000000e-01/1.000000e+00/1.000000e-01

 Standard Electronic Orientation quadrupole field applied
 Nucleus-field energy     =    -0.0000000039 hartrees
 Guess from superposition of atomic densities
 Warning:  Energy on first SCF cycle will be non-variational
 Long-range K will be added via erf
 Coulomb attenuation parameter = 0.9 bohr**(-1)
 A restricted Kohn-Sham SCF calculation will be
 performed using Pulay DIIS extrapolation
 Exchange:  wPBE + LR-HF      Correlation:  PBE
 Using SG-1 standard quadrature grid
 SCF converges when DIIS error is below 1.0E-05
 Requested basis set is G3large
 There are 30 shells and 126 basis functions
 A cutoff of  1.0D-08 yielded    422 shell pairs
 There are   7641 function pairs ( 10011 Cartesian)
 ---------------------------------------
  Cycle       Energy         DIIS Error
 ---------------------------------------
    1    -274.9641285118      3.40E-02
    2    -274.4871924144      8.35E-03
    3    -274.5451279807      6.61E-03
    4    -274.5937512764      1.43E-03
    5    -274.5985554630      5.88E-04
    6    -274.6005012901      2.37E-04
    7    -274.6009688160      1.09E-04
    8    -274.6010429514      5.66E-05
    9    -274.6010613314      2.04E-05
   10    -274.6010652259      4.19E-06 Convergence criterion met
 ---------------------------------------
 One-Electron    Energy =  -533.4734708444
 Total Coulomb   Energy =   211.5940507333
 Alpha Exchange  Energy =    -5.1394057285
 Beta  Exchange  Energy =    -5.1394057285
 DFT   Exchange  Energy =   -18.0444993366
 DFT Correlation Energy =    -0.8984160710
 Nuclear Repu.   Energy =    76.5000817497
 Nuclear Attr.   Energy =  -807.5436835550
 Kinetic         Energy =   274.0702127105
 SCF time:  CPU 25.98 s  wall 26.42 s
 Final Alpha MO Eigenvalues
            1           2           3           4           5           6
    1 -24.8145936 -24.8145676 -19.4644270  -1.7157738  -1.5626829  -1.2201052
            7           8           9          10          11          12
    1  -0.8479629  -0.8276869  -0.8271899  -0.7139768  -0.6791923  -0.6659709
           13          14          15          16          17          18
    1  -0.5601619   0.0911130   0.1165246   0.1666179   0.2232024   0.2262972
 Analysis of SCF Wavefunction
 
 --------------------------------------------------------------
                    Orbital Energies (a.u.)
 --------------------------------------------------------------
 
 Alpha MOs
 -- Occupied --
-24.815 -24.815 -19.464  -1.716  -1.563  -1.220  -0.848  -0.828
 -0.827  -0.714  -0.679  -0.666  -0.560
 -- Virtual --
  0.091   0.117   0.167   0.223   0.226   0.229   0.305   0.323
  0.336   0.337   0.339   0.413   0.497   0.555   1.098   1.104
  1.115   1.275   1.372   1.391   1.418   1.428   1.481   1.562
  1.565   1.570   1.585   1.947   2.073   2.127   2.148   2.163
  2.181   2.267   2.310   2.420   2.630   2.664   2.920   3.150
  3.162   4.898   5.040   5.088   5.123   5.133   5.139   5.144
  5.210   5.242   5.266   6.340   6.384   6.403   6.461   6.522
  6.617   6.756   6.790   6.843   6.853   6.853   6.857   6.858
  6.868   6.884   6.955   7.062   7.378   7.403   7.452   7.614
  7.635   7.689   8.357   8.560   9.277   9.278   9.279   9.308
  9.577   9.597   9.620   9.713  10.143  10.278  43.833  43.845
 43.856  43.896  43.979  45.624  45.933  46.257  49.738  50.280
 50.290  50.322  50.324  50.401  50.407  50.427  50.443  50.615
 50.629  55.752  55.769  55.776  55.830  56.122  56.244  66.796
 66.812
 --------------------------------------------------------------
 
          Ground-State Mulliken Net Atomic Charges

     Atom                 Charge (a.u.)
  ----------------------------------------
      1 F                     0.034745
      2 O                    -0.069431
      3 F                     0.034686
  ----------------------------------------
  Sum of atomic charges =     0.000000

 -----------------------------------------------------------------
                    Cartesian Multipole Moments
 -----------------------------------------------------------------
    Charge (ESU x 10^10)
                 0.0000
    Dipole Moment (Debye)
         X       0.2446      Y       0.0000      Z       0.1912
       Tot       0.3104
    Quadrupole Moments (Debye-Ang)
        XX     -14.7645     XY       0.0000     YY     -14.7403
        XZ       0.3511     YZ       0.0000     ZZ     -14.2288
    Octapole Moments (Debye-Ang^2)
       XXX      19.7187    XXY       0.0000    XYY       6.5143
       YYY       0.0000    XXZ     -15.6777    XYZ       0.0000
       YYZ     -15.6715    XZZ       7.0670    YZZ       0.0001
       ZZZ     -45.8435
    Hexadecapole Moments (Debye-Ang^3)
      XXXX     -57.3049   XXXY       0.0000   XXYY     -11.6116
      XYYY       0.0000   YYYY      -9.1258   XXXZ      32.4992
      XXYZ      -0.0001   XYYZ      11.0189   YYYZ       0.0000
      XXZZ     -35.6153   XYZZ       0.0001   YYZZ     -27.4237
      XZZZ      33.8249   YZZZ       0.0001   ZZZZ    -149.0519
 -----------------------------------------------------------------
 Total job time:  26.57s(wall), 26.11s(cpu) 
 Sun Jul  7 08:39:20 2013

        *************************************************************
        *                                                           *
        *  Thank you very much for using Q-Chem.  Have a nice day.  *
        *                                                           *
        *************************************************************


0 sent ACK to 0 
now end server 0 ... 
 
**********************************************************************
Job 3 of 3 
**********************************************************************
 
Process 0 of 1 is on cl020.stfx.acenet.ca - thread support 1
initial socket setup ...start
initial socket setup ...done 
now start server 0 ... 

cmd = /usr/bin/ssh clhead /usr/local/qchem/bin/get_hostid 689057178 > /scratch/tmp/6063581.1.short.q/qchem15134/lic.dat
                  Welcome to Q-Chem
     A Quantum Leap Into The Future Of Chemistry

 Y. Shao, L. Fusti-Molnar, Y. Jung, J. Kussmann, C. Ochsenfeld,
 S. T. Brown, A. T. B. Gilbert, L. V. Slipchenko,S. V. Levchenko,
 D. P. O'Neill, R. A. DiStasio Jr., R. C. Lochan, T. Wang,
 G. J. O. Beran, N. A. Besley, J. M. Herbert, C. Y. Lin,
 T. Van Voorhis, S. H. Chien, A. Sodt, R. P. Steele, 
 V. A. Rassolov, P. E. Maslen, P. P. Korambath, R. D. Adamson,
 B. Austin, J. Baker, E. F. C. Byrd, H. Dachsel, R. J. Doerksen,
 A. Dreuw, B. D. Dunietz, A. D. Dutoi, T. R. Furlani,
 S. R. Gwaltney, A. Heyden, S. Hirata, C.-P. Hsu, G. Kedziora,
 R. Z. Khaliullin, P. Klunzinger, A. M. Lee, M. S. Lee, W. Liang,
 I. Lotan, N. Nair, B. Peters, E. I. Proynov, P. A. Pieniazek, 
 Y. M. Rhee, J. Ritchie, E. Rosta, C. D. Sherrill, 
 A. C. Simmonett, J. E. Subotnik, H. L. Woodcock III,
 W. Zhang, A. T. Bell, A. K. Chakraborty, D. M. Chipman,
 F. J. Keil, A. Warshel, W. J. Hehre, H. F. Schaefer III,
 J. Kong, A. I. Krylov, P. M. W. Gill, M. Head-Gordon,
 Q-Chem, Version 3.1, Q-Chem, Inc., Pittsburgh, PA (2007).

 Additional authors for Version 3.1: 
 Z. Gan, Y. Zhao, N. E. Schultz, D. Truhlar, E. Epifanovsky and M. Oana.

 Additional authors for Version 3.2: 
 R. Baer, B. R. Brooks, D. Casanova, J.-D. Chai, C.-L. Cheng, 
 C. Cramer, D. Crittenden, A. Ghysels, G. Hawkins, E. G. Hohenstein, 
 C. Kelley, W. Kurlancheek, D. Liotard, E. Livshits, P. Manohar, 
 A. Marenich, D. Neuhauser, R. Olson, M. A. Rohrdanz, K. S. Thanthiriwatte, 
 A. J. W. Thom, V. Vanovschi, C. F. Williams, Q. Wu and Z.-Q. You. 


 Intel X86 Linux Version

 Q-chem begins on Sun Jul  7 08:39:23 2013  

 Parallel job on  1  processors
Processing $rem in /usr/local/qchem/config/preferences.

theFileMan(): MAXOPENFILES=974 MAX_SUB_FILE_NUM=16
Maximum size of a physical file is 2.0 GB, maximum size of a tmp-file is 32.0 GB


--------------------------------------------------------------
User input:
--------------------------------------------------------------

$molecule
1,2
F         -0.02000        0.00000        0.04316
O         -0.01707        0.00000        1.39556
F         -1.33043        0.00000        1.71817
$end

$comment
positive
$end

$xc_functional
C PBE   1.00
X wPBE  1.00
$end

$rem
SYMMETRY_DECOMPOSITION	0
LRC_DFT                 true
exchange 		general
BASIS                   g3large
omega			900
mem_static              760
max_scf_cycles          200
scf_final_print         1
sym_ignore              true
$end

--------------------------------------------------------------
 Writing REM_CC_EA            3
 ----------------------------------------------------
       Standard Nuclear Orientation (Angstroms)
    I     Atom         X            Y            Z
 ----------------------------------------------------
    1      F      -0.020000     0.000000     0.043160
    2      O      -0.017070     0.000000     1.395560
    3      F      -1.330430     0.000000     1.718170
 ----------------------------------------------------
 Nuclear Repulsion Energy =    76.5000817537 hartrees
 There are       13 alpha and       12 beta electrons
 Requested basis set is G3large
 There are 30 shells and 126 basis functions

Total QAlloc Memory Limit   2000 MB
Mega-Array Size       743 MB
MEM_STATIC part       760 MB

                       Distance Matrix (Angstroms)
             F (  1)   O (  2)
   O (  2)  1.352403
   F (  3)  2.126708  1.352402
 
 A cutoff of  1.0D-08 yielded    422 shell pairs
 There are   7641 function pairs ( 10011 Cartesian)
Evaluating contribution to one-electron hamiltonian from nuclear
 Smallest overlap matrix eigenvalue = 2.33E-03
 Multipole matrices computed through 2nd order

  Scale SEOQF with 1.000000e-01/1.000000e+00/1.000000e-01

 Standard Electronic Orientation quadrupole field applied
 Nucleus-field energy     =    -0.0000000039 hartrees
 Guess from superposition of atomic densities
 Warning:  Energy on first SCF cycle will be non-variational
 Long-range K will be added via erf
 Coulomb attenuation parameter = 0.9 bohr**(-1)
 An unrestricted Kohn-Sham SCF calculation will be
 performed using Pulay DIIS extrapolation
 Exchange:  wPBE + LR-HF      Correlation:  PBE
 Using SG-1 standard quadrature grid
 SCF converges when DIIS error is below 1.0E-05
 Requested basis set is G3large
 There are 30 shells and 126 basis functions
 A cutoff of  1.0D-08 yielded    422 shell pairs
 There are   7641 function pairs ( 10011 Cartesian)
 Warning!  Inaccurate integrated density:
   Number of electrons =    25
   Numerical integral  =    25.999982500793
   Relative error      =     3.9999300032 %
 ---------------------------------------
  Cycle       Energy         DIIS Error
 ---------------------------------------
    1    -274.9641285118      3.40E-02
    2    -273.8010388399      1.23E-02
    3    -273.8994842677      1.14E-02
    4    -274.0562571659      3.25E-03
    5    -274.0719247637      7.05E-04
    6    -274.0782039805      5.04E-04
    7    -274.0817557272      3.50E-04
    8    -274.0836340944      1.70E-04
    9    -274.0845461183      8.57E-05
   10    -274.0848478494      3.65E-05
   11    -274.0849404967      2.28E-05
   12    -274.0850021507      1.06E-05
   13    -274.0850155039      4.32E-06 Convergence criterion met
 ---------------------------------------
 One-Electron    Energy =  -522.9013622885
 Total Coulomb   Energy =   201.0124835008
 Alpha Exchange  Energy =    -5.1959377317
 Beta  Exchange  Energy =    -4.7402370712
 DFT   Exchange  Energy =   -17.9042071291
 DFT Correlation Energy =    -0.8558365339
 Nuclear Repu.   Energy =    76.5000817497
 Nuclear Attr.   Energy =  -796.2095661565
 Kinetic         Energy =   273.3082038680
 <S^2> = 0.7638
 SCF time:  CPU 41.29 s  wall 42.35 s
 Final Alpha MO Eigenvalues
            1           2           3           4           5           6
    1 -25.2286879 -25.2285963 -19.9954038  -2.1437953  -1.9535595  -1.6574828
            7           8           9          10          11          12
    1  -1.2945148  -1.2478367  -1.2368973  -1.1044550  -1.0613987  -1.0553537
           13          14          15          16          17          18
    1  -1.0270156  -0.3142211  -0.2852395  -0.0728784  -0.0160469  -0.0109749
 Final Beta MO Eigenvalues
            1           2           3           4           5           6
    1 -25.2260491 -25.2259686 -19.9674228  -2.1084220  -1.9458850  -1.5896780
            7           8           9          10          11          12
    1  -1.2381455  -1.2189757  -1.1389330  -1.0531626  -1.0512197  -1.0419608
           13          14          15          16          17
    1  -0.4604051  -0.2866879  -0.2632635  -0.0716195  -0.0094056
 Analysis of SCF Wavefunction
 
 --------------------------------------------------------------
                    Orbital Energies (a.u.)
 --------------------------------------------------------------
 
 Alpha MOs
 -- Occupied --
-25.229 -25.229 -19.995  -2.144  -1.954  -1.657  -1.295  -1.248
 -1.237  -1.104  -1.061  -1.055  -1.027
 -- Virtual --
 -0.314  -0.285  -0.073  -0.016  -0.011  -0.008   0.088   0.093
  0.106   0.110   0.111   0.202   0.244   0.307   0.724   0.752
  0.766   0.926   1.002   1.021   1.039   1.130   1.132   1.215
  1.216   1.242   1.262   1.556   1.736   1.759   1.792   1.812
  1.827   1.891   1.925   2.056   2.243   2.279   2.549   2.779
  2.793   4.388   4.606   4.631   4.668   4.687   4.695   4.712
  4.749   4.763   4.819   5.959   5.992   6.010   6.085   6.124
  6.187   6.305   6.312   6.439   6.459   6.478   6.480   6.482
  6.486   6.489   6.521   6.647   6.932   6.978   7.032   7.202
  7.211   7.262   7.940   8.143   8.883   8.884   8.884   8.914
  9.190   9.195   9.219   9.326   9.754   9.887  43.282  43.290
 43.293  43.387  43.472  45.067  45.418  45.741  49.215  49.865
 49.877  49.908  49.910  49.990  49.993  50.010  50.035  50.204
 50.217  55.344  55.352  55.359  55.422  55.710  55.832  66.385
 66.400
 
 Beta MOs
 -- Occupied --
-25.226 -25.226 -19.967  -2.108  -1.946  -1.590  -1.238  -1.219
 -1.139  -1.053  -1.051  -1.042
 -- Virtual --
 -0.460  -0.287  -0.263  -0.072  -0.009  -0.007  -0.005   0.088
  0.094   0.107   0.113   0.116   0.202   0.244   0.307   0.766
  0.777   0.796   0.930   1.040   1.043   1.077   1.128   1.143
  1.230   1.233   1.246   1.263   1.589   1.737   1.762   1.801
  1.821   1.834   1.914   1.934   2.057   2.265   2.300   2.554
  2.787   2.801   4.488   4.626   4.672   4.711   4.728   4.730
  4.730   4.796   4.822   4.847   5.963   6.011   6.030   6.088
  6.130   6.228   6.362   6.385   6.464   6.467   6.488   6.489
  6.491   6.493   6.496   6.557   6.670   6.984   6.997   7.055
  7.211   7.234   7.277   7.949   8.150   8.899   8.899   8.901
  8.930   9.186   9.206   9.229   9.323   9.751   9.886  43.347
 43.359  43.370  43.405  43.487  45.132  45.437  45.761  49.243
 49.879  49.889  49.920  49.923  49.989  49.997  50.018  50.031
 50.202  50.214  55.346  55.363  55.370  55.423  55.707  55.829
 66.388  66.403
 --------------------------------------------------------------
 
          Ground-State Mulliken Net Atomic Charges

     Atom                 Charge (a.u.)    Spin (a.u.)
  --------------------------------------------------------
      1 F                     0.309226       0.044789
      2 O                     0.381554       0.910304
      3 F                     0.309220       0.044907
  --------------------------------------------------------
  Sum of atomic charges =     1.000000
  Sum of spin   charges =     1.000000

 -----------------------------------------------------------------
                    Cartesian Multipole Moments
 -----------------------------------------------------------------
    Charge (ESU x 10^10)
                 4.8032
    Dipole Moment (Debye)
         X      -1.5353      Y       0.0003      Z       5.5661
       Tot       5.7740
    Quadrupole Moments (Debye-Ang)
        XX     -10.4034     XY       0.0004     YY     -12.5153
        XZ      -2.8441     YZ       0.0008     ZZ      -3.9161
    Octapole Moments (Debye-Ang^2)
       XXX      13.3255    XXY      -0.0002    XYY       5.9105
       YYY       0.0002    XXZ      -8.8540    XYZ       0.0005
       YYZ     -13.0087    XZZ       0.7197    YZZ       0.0015
       ZZZ     -27.1962
    Hexadecapole Moments (Debye-Ang^3)
      XXXX     -43.4187   XXXY       0.0006   XXYY      -9.8931
      XYYY       0.0002   YYYY      -6.7184   XXXZ      21.2854
      XXYZ      -0.0002   XYYZ       9.9509   YYYZ       0.0004
      XXZZ     -22.2384   XYZZ       0.0009   YYZZ     -22.5115
      XZZZ      20.4662   YZZZ       0.0029   ZZZZ    -110.3180
 -----------------------------------------------------------------
 Total job time:  42.50s(wall), 41.44s(cpu) 
 Sun Jul  7 08:40:05 2013

        *************************************************************
        *                                                           *
        *  Thank you very much for using Q-Chem.  Have a nice day.  *
        *                                                           *
        *************************************************************


0 sent ACK to 0 
now end server 0 ... 
