Process 0 of 1 is on cl170.stfx.acenet.ca - thread support 1
initial socket setup ...start
initial socket setup ...done 
now start server 0 ... 

cmd = /usr/bin/ssh clhead /usr/local/qchem/bin/get_hostid 30582131 > /scratch/tmp/6063711.1.medium.q/qchem25822/lic.dat
                  Welcome to Q-Chem
     A Quantum Leap Into The Future Of Chemistry

 Y. Shao, L. Fusti-Molnar, Y. Jung, J. Kussmann, C. Ochsenfeld,
 S. T. Brown, A. T. B. Gilbert, L. V. Slipchenko,S. V. Levchenko,
 D. P. O'Neill, R. A. DiStasio Jr., R. C. Lochan, T. Wang,
 G. J. O. Beran, N. A. Besley, J. M. Herbert, C. Y. Lin,
 T. Van Voorhis, S. H. Chien, A. Sodt, R. P. Steele, 
 V. A. Rassolov, P. E. Maslen, P. P. Korambath, R. D. Adamson,
 B. Austin, J. Baker, E. F. C. Byrd, H. Dachsel, R. J. Doerksen,
 A. Dreuw, B. D. Dunietz, A. D. Dutoi, T. R. Furlani,
 S. R. Gwaltney, A. Heyden, S. Hirata, C.-P. Hsu, G. Kedziora,
 R. Z. Khaliullin, P. Klunzinger, A. M. Lee, M. S. Lee, W. Liang,
 I. Lotan, N. Nair, B. Peters, E. I. Proynov, P. A. Pieniazek, 
 Y. M. Rhee, J. Ritchie, E. Rosta, C. D. Sherrill, 
 A. C. Simmonett, J. E. Subotnik, H. L. Woodcock III,
 W. Zhang, A. T. Bell, A. K. Chakraborty, D. M. Chipman,
 F. J. Keil, A. Warshel, W. J. Hehre, H. F. Schaefer III,
 J. Kong, A. I. Krylov, P. M. W. Gill, M. Head-Gordon,
 Q-Chem, Version 3.1, Q-Chem, Inc., Pittsburgh, PA (2007).

 Additional authors for Version 3.1: 
 Z. Gan, Y. Zhao, N. E. Schultz, D. Truhlar, E. Epifanovsky and M. Oana.

 Additional authors for Version 3.2: 
 R. Baer, B. R. Brooks, D. Casanova, J.-D. Chai, C.-L. Cheng, 
 C. Cramer, D. Crittenden, A. Ghysels, G. Hawkins, E. G. Hohenstein, 
 C. Kelley, W. Kurlancheek, D. Liotard, E. Livshits, P. Manohar, 
 A. Marenich, D. Neuhauser, R. Olson, M. A. Rohrdanz, K. S. Thanthiriwatte, 
 A. J. W. Thom, V. Vanovschi, C. F. Williams, Q. Wu and Z.-Q. You. 


 Intel X86 Linux Version

 Q-chem begins on Sun Jul  7 08:40:03 2013  

 Parallel job on  1  processors
Processing $rem in /usr/local/qchem/config/preferences.

theFileMan(): MAXOPENFILES=974 MAX_SUB_FILE_NUM=16
Maximum size of a physical file is 2.0 GB, maximum size of a tmp-file is 32.0 GB


--------------------------------------------------------------
User input:
--------------------------------------------------------------

$molecule
-1,2
C         -0.00239        0.00000        0.00366
C          0.00239        0.00000        1.52136
O          1.01667        0.00000       -0.61795
H         -1.00159        0.00000       -0.46287
O         -1.01667        0.00000        2.14296
H          1.00159        0.00000        1.98789
$end

$comment
negative
$end

$xc_functional
C PBE   1.00
X wPBE  1.00
$end

$rem
SYMMETRY_DECOMPOSITION	0
exchange 		general
LRC_DFT                 true
BASIS                   g3large
omega			700
mem_static              760
max_scf_cycles          200
scf_final_print         1
sym_ignore              true
$end

--------------------------------------------------------------
 Writing REM_CC_EA            6
 ----------------------------------------------------
       Standard Nuclear Orientation (Angstroms)
    I     Atom         X            Y            Z
 ----------------------------------------------------
    1      C      -0.002390     0.000000     0.003660
    2      C       0.002390     0.000000     1.521360
    3      O       1.016670     0.000000    -0.617950
    4      H      -1.001590     0.000000    -0.462870
    5      O      -1.016670     0.000000     2.142960
    6      H       1.001590     0.000000     1.987890
 ----------------------------------------------------
 Nuclear Repulsion Energy =   102.6576218305 hartrees
 There are       16 alpha and       15 beta electrons
 Requested basis set is G3large
 There are 52 shells and 188 basis functions

Total QAlloc Memory Limit   2000 MB
Mega-Array Size       743 MB
MEM_STATIC part       760 MB

                       Distance Matrix (Angstroms)
             C (  1)   C (  2)   O (  3)   H (  4)   O (  5)
   C (  2)  1.517708
   O (  3)  1.193684  2.367575
   H (  4)  1.102747  2.223768  2.024209
   O (  5)  2.367566  1.193679  3.428862  2.605874
   H (  6)  2.223768  1.102747  2.605884  3.165273  2.024209
 
 A cutoff of  1.0D-08 yielded   1239 shell pairs
 There are  16161 function pairs ( 20529 Cartesian)
Evaluating contribution to one-electron hamiltonian from nuclear
 Smallest overlap matrix eigenvalue = 1.78E-04
 Multipole matrices computed through 2nd order

  Scale SEOQF with 1.000000e-01/1.000000e-01/1.000000e-01

 Standard Electronic Orientation quadrupole field applied
 Nucleus-field energy     =    -0.0000000055 hartrees
 Guess from superposition of atomic densities
 Warning:  Energy on first SCF cycle will be non-variational
 Long-range K will be added via erf
 Coulomb attenuation parameter = 0.7 bohr**(-1)
 An unrestricted Kohn-Sham SCF calculation will be
 performed using Pulay DIIS extrapolation
 Exchange:  wPBE + LR-HF      Correlation:  PBE
 Using SG-1 standard quadrature grid
 SCF converges when DIIS error is below 1.0E-05
 Requested basis set is G3large
 There are 52 shells and 188 basis functions
 A cutoff of  1.0D-08 yielded   1239 shell pairs
 There are  16161 function pairs ( 20529 Cartesian)
 Warning!  Inaccurate integrated density:
   Number of electrons =    31
   Numerical integral  =    29.999861636644
   Relative error      =    -3.2262527850 %
 ---------------------------------------
  Cycle       Energy         DIIS Error
 ---------------------------------------
    1    -228.9123294474      3.79E-02
    2    -227.5778499707      7.15E-03
    3    -227.6261463866      7.01E-03
    4    -227.7704359161      4.62E-04
    5    -227.7733878844      1.66E-04
    6    -227.7739945030      6.04E-05
    7    -227.7741696042      3.39E-05
    8    -227.7742514473      1.67E-05
    9    -227.7742803951      6.13E-06 Convergence criterion met
 ---------------------------------------
 One-Electron    Energy =  -521.7769931560
 Total Coulomb   Energy =   220.2730226620
 Alpha Exchange  Energy =    -4.9525573399
 Beta  Exchange  Energy =    -4.6499063928
 DFT   Exchange  Energy =   -18.2966647558
 DFT Correlation Energy =    -1.0288032375
 Nuclear Repu.   Energy =   102.6576218250
 Nuclear Attr.   Energy =  -749.1179700392
 Kinetic         Energy =   227.3409768832
 <S^2> = 0.7670
 SCF time:  CPU 90.83 s  wall 91.43 s
 Final Alpha MO Eigenvalues
            1           2           3           4           5           6
    1 -18.8647276 -18.8646788 -10.1108332 -10.1102801  -1.0879311  -1.0692015
            7           8           9          10          11          12
    1  -0.6762022  -0.5587938  -0.4387026  -0.4310013  -0.4018735  -0.3903593
           13          14          15          16          17          18
    1  -0.3476735  -0.2520338  -0.1725978  -0.0604479   0.1775738   0.1781492
           19          20          21
    1   0.2393428   0.2567510   0.2625469
 Final Beta MO Eigenvalues
            1           2           3           4           5           6
    1 -18.8572922 -18.8572474 -10.1085251 -10.1081107  -1.0727139  -1.0542202
            7           8           9          10          11          12
    1  -0.6446255  -0.5502042  -0.4344170  -0.4195052  -0.3817587  -0.3383774
           13          14          15          16          17          18
    1  -0.2755249  -0.2432441  -0.1639198   0.1776711   0.1784718   0.2396072
           19          20
    1   0.2476358   0.2571079
 Analysis of SCF Wavefunction
 
 --------------------------------------------------------------
                    Orbital Energies (a.u.)
 --------------------------------------------------------------
 
 Alpha MOs
 -- Occupied --
-18.865 -18.865 -10.111 -10.110  -1.088  -1.069  -0.676  -0.559
 -0.439  -0.431  -0.402  -0.390  -0.348  -0.252  -0.173  -0.060
 -- Virtual --
  0.178   0.178   0.239   0.257   0.263   0.265   0.278   0.312
  0.317   0.350   0.352   0.436   0.442   0.453   0.476   0.499
  0.520   0.535   0.539   0.553   0.584   0.686   0.727   0.747
  0.819   0.845   0.869   0.873   0.894   0.943   0.949   0.950
  1.026   1.046   1.102   1.141   1.172   1.316   1.317   1.356
  1.362   1.385   1.410   1.424   1.434   1.474   1.486   1.490
  1.535   1.569   1.631   1.697   1.750   1.865   1.887   1.924
  2.029   2.111   2.114   2.162   2.211   2.329   2.409   2.494
  2.598   2.827   2.839   2.866   2.971   3.020   3.032   3.096
  3.161   3.258   3.315   3.318   3.326   3.419   3.452   3.500
  3.545   3.640   3.660   3.721   3.749   3.763   3.781   3.846
  3.919   3.960   4.062   4.068   4.090   4.222   4.260   4.276
  4.483   4.545   4.589   4.612   4.620   4.891   5.047   5.062
  5.424   5.432   5.433   5.479   5.511   5.532   5.534   5.570
  5.719   5.824   5.917   5.935   5.942   5.948   6.237   6.306
  6.726   6.744   6.967   7.242   7.271   7.289   7.290   7.387
  7.430   7.436   7.621   7.679   7.860   7.899   8.047   8.117
 24.867  24.995  27.573  27.692  28.046  28.542  28.592  28.885
 41.232  41.328  41.379  41.434  41.458  41.463  41.535  41.539
 41.689  41.698  44.137  44.157  44.178  44.188  44.273  44.297
 44.305  44.348  44.424  44.446  46.127  46.133  46.235  46.272
 46.959  46.994  50.489  50.522
 
 Beta MOs
 -- Occupied --
-18.857 -18.857 -10.109 -10.108  -1.073  -1.054  -0.645  -0.550
 -0.434  -0.420  -0.382  -0.338  -0.276  -0.243  -0.164
 -- Virtual --
  0.178   0.178   0.240   0.248   0.257   0.274   0.278   0.300
  0.312   0.323   0.351   0.393   0.438   0.443   0.455   0.508
  0.513   0.521   0.537   0.540   0.554   0.585   0.692   0.730
  0.757   0.821   0.865   0.885   0.886   0.898   0.946   0.961
  0.962   1.045   1.049   1.105   1.146   1.183   1.323   1.325
  1.360   1.363   1.397   1.412   1.427   1.453   1.476   1.488
  1.511   1.538   1.586   1.636   1.701   1.753   1.869   1.898
  1.931   2.048   2.125   2.130   2.179   2.218   2.347   2.416
  2.512   2.601   2.830   2.845   2.874   2.986   3.023   3.043
  3.110   3.178   3.263   3.324   3.326   3.330   3.427   3.458
  3.515   3.555   3.647   3.669   3.730   3.755   3.776   3.786
  3.856   3.923   3.972   4.073   4.074   4.093   4.223   4.265
  4.280   4.494   4.548   4.594   4.617   4.624   4.894   5.051
  5.064   5.438   5.458   5.464   5.497   5.531   5.549   5.549
  5.577   5.728   5.832   5.934   5.948   5.957   5.961   6.240
  6.309   6.744   6.762   6.972   7.256   7.301   7.317   7.319
  7.393   7.444   7.449   7.648   7.707   7.865   7.905   8.059
  8.129  24.869  24.997  27.580  27.699  28.048  28.544  28.593
 28.886  41.238  41.334  41.381  41.434  41.463  41.468  41.539
 41.543  41.689  41.698  44.157  44.178  44.196  44.206  44.291
 44.307  44.315  44.350  44.430  44.453  46.148  46.153  46.240
 46.277  46.963  46.999  50.497  50.530
 --------------------------------------------------------------
 
          Ground-State Mulliken Net Atomic Charges

     Atom                 Charge (a.u.)    Spin (a.u.)
  --------------------------------------------------------
      1 C                    -0.052867       0.274808
      2 C                    -0.052848       0.274792
      3 O                    -0.481183       0.251659
      4 H                     0.034045      -0.026460
      5 O                    -0.481196       0.251652
      6 H                     0.034049      -0.026451
  --------------------------------------------------------
  Sum of atomic charges =    -1.000000
  Sum of spin   charges =     1.000000

 -----------------------------------------------------------------
                    Cartesian Multipole Moments
 -----------------------------------------------------------------
    Charge (ESU x 10^10)
                -4.8032
    Dipole Moment (Debye)
         X       0.0001      Y       0.0000      Z      -3.6625
       Tot       3.6625
    Quadrupole Moments (Debye-Ang)
        XX     -32.5298     XY      -0.0002     YY     -25.7694
        XZ       9.4112     YZ      -0.0009     ZZ     -39.3480
    Octapole Moments (Debye-Ang^2)
       XXX      -0.0002    XXY       0.0000    XYY      -0.0001
       YYY       0.0000    XXZ     -24.8041    XYZ      -0.0002
       YYZ     -19.6492    XZZ      14.3522    YZZ      -0.0013
       ZZZ     -85.7500
    Hexadecapole Moments (Debye-Ang^3)
      XXXX    -128.1169   XXXY      -0.0019   XXYY     -24.8309
      XYYY      -0.0027   YYYY     -31.0760   XXXZ      56.4578
      XXYZ      -0.0020   XYYZ      14.6734   YYYZ      -0.0038
      XXZZ     -89.6672   XYZZ      -0.0016   YYZZ     -57.2159
      XZZZ      84.2667   YZZZ      -0.0049   ZZZZ    -383.6283
 -----------------------------------------------------------------
 Total job time:  91.66s(wall), 91.04s(cpu) 
 Sun Jul  7 08:41:35 2013

        *************************************************************
        *                                                           *
        *  Thank you very much for using Q-Chem.  Have a nice day.  *
        *                                                           *
        *************************************************************


0 sent ACK to 0 
now end server 0 ... 
 
**********************************************************************
Job 2 of 3 
**********************************************************************
 
Process 0 of 1 is on cl170.stfx.acenet.ca - thread support 1
initial socket setup ...start
initial socket setup ...done 
now start server 0 ... 

cmd = /usr/bin/ssh clhead /usr/local/qchem/bin/get_hostid 116351982 > /scratch/tmp/6063711.1.medium.q/qchem25822/lic.dat
                  Welcome to Q-Chem
     A Quantum Leap Into The Future Of Chemistry

 Y. Shao, L. Fusti-Molnar, Y. Jung, J. Kussmann, C. Ochsenfeld,
 S. T. Brown, A. T. B. Gilbert, L. V. Slipchenko,S. V. Levchenko,
 D. P. O'Neill, R. A. DiStasio Jr., R. C. Lochan, T. Wang,
 G. J. O. Beran, N. A. Besley, J. M. Herbert, C. Y. Lin,
 T. Van Voorhis, S. H. Chien, A. Sodt, R. P. Steele, 
 V. A. Rassolov, P. E. Maslen, P. P. Korambath, R. D. Adamson,
 B. Austin, J. Baker, E. F. C. Byrd, H. Dachsel, R. J. Doerksen,
 A. Dreuw, B. D. Dunietz, A. D. Dutoi, T. R. Furlani,
 S. R. Gwaltney, A. Heyden, S. Hirata, C.-P. Hsu, G. Kedziora,
 R. Z. Khaliullin, P. Klunzinger, A. M. Lee, M. S. Lee, W. Liang,
 I. Lotan, N. Nair, B. Peters, E. I. Proynov, P. A. Pieniazek, 
 Y. M. Rhee, J. Ritchie, E. Rosta, C. D. Sherrill, 
 A. C. Simmonett, J. E. Subotnik, H. L. Woodcock III,
 W. Zhang, A. T. Bell, A. K. Chakraborty, D. M. Chipman,
 F. J. Keil, A. Warshel, W. J. Hehre, H. F. Schaefer III,
 J. Kong, A. I. Krylov, P. M. W. Gill, M. Head-Gordon,
 Q-Chem, Version 3.1, Q-Chem, Inc., Pittsburgh, PA (2007).

 Additional authors for Version 3.1: 
 Z. Gan, Y. Zhao, N. E. Schultz, D. Truhlar, E. Epifanovsky and M. Oana.

 Additional authors for Version 3.2: 
 R. Baer, B. R. Brooks, D. Casanova, J.-D. Chai, C.-L. Cheng, 
 C. Cramer, D. Crittenden, A. Ghysels, G. Hawkins, E. G. Hohenstein, 
 C. Kelley, W. Kurlancheek, D. Liotard, E. Livshits, P. Manohar, 
 A. Marenich, D. Neuhauser, R. Olson, M. A. Rohrdanz, K. S. Thanthiriwatte, 
 A. J. W. Thom, V. Vanovschi, C. F. Williams, Q. Wu and Z.-Q. You. 


 Intel X86 Linux Version

 Q-chem begins on Sun Jul  7 08:41:38 2013  

 Parallel job on  1  processors
Processing $rem in /usr/local/qchem/config/preferences.

theFileMan(): MAXOPENFILES=974 MAX_SUB_FILE_NUM=16
Maximum size of a physical file is 2.0 GB, maximum size of a tmp-file is 32.0 GB


--------------------------------------------------------------
User input:
--------------------------------------------------------------

$molecule
0,1
C         -0.00239        0.00000        0.00366
C          0.00239        0.00000        1.52136
O          1.01667        0.00000       -0.61795
H         -1.00159        0.00000       -0.46287
O         -1.01667        0.00000        2.14296
H          1.00159        0.00000        1.98789
$end

$comment
neutral
$end

$xc_functional
C PBE   1.00
X wPBE  1.00
$end


$rem
SYMMETRY_DECOMPOSITION	0
LRC_DFT                 true
exchange 		general
BASIS                   g3large
omega			700
mem_static              760
max_scf_cycles          200
scf_final_print         1
sym_ignore              true
$end

--------------------------------------------------------------
 Writing REM_CC_EA            6
 ----------------------------------------------------
       Standard Nuclear Orientation (Angstroms)
    I     Atom         X            Y            Z
 ----------------------------------------------------
    1      C      -0.002390     0.000000     0.003660
    2      C       0.002390     0.000000     1.521360
    3      O       1.016670     0.000000    -0.617950
    4      H      -1.001590     0.000000    -0.462870
    5      O      -1.016670     0.000000     2.142960
    6      H       1.001590     0.000000     1.987890
 ----------------------------------------------------
 Nuclear Repulsion Energy =   102.6576218305 hartrees
 There are       15 alpha and       15 beta electrons
 Requested basis set is G3large
 There are 52 shells and 188 basis functions

Total QAlloc Memory Limit   2000 MB
Mega-Array Size       743 MB
MEM_STATIC part       760 MB

                       Distance Matrix (Angstroms)
             C (  1)   C (  2)   O (  3)   H (  4)   O (  5)
   C (  2)  1.517708
   O (  3)  1.193684  2.367575
   H (  4)  1.102747  2.223768  2.024209
   O (  5)  2.367566  1.193679  3.428862  2.605874
   H (  6)  2.223768  1.102747  2.605884  3.165273  2.024209
 
 A cutoff of  1.0D-08 yielded   1239 shell pairs
 There are  16161 function pairs ( 20529 Cartesian)
Evaluating contribution to one-electron hamiltonian from nuclear
 Smallest overlap matrix eigenvalue = 1.78E-04
 Multipole matrices computed through 2nd order

  Scale SEOQF with 1.000000e-01/1.000000e-01/1.000000e-01

 Standard Electronic Orientation quadrupole field applied
 Nucleus-field energy     =    -0.0000000055 hartrees
 Guess from superposition of atomic densities
 Warning:  Energy on first SCF cycle will be non-variational
 Long-range K will be added via erf
 Coulomb attenuation parameter = 0.7 bohr**(-1)
 A restricted Kohn-Sham SCF calculation will be
 performed using Pulay DIIS extrapolation
 Exchange:  wPBE + LR-HF      Correlation:  PBE
 Using SG-1 standard quadrature grid
 SCF converges when DIIS error is below 1.0E-05
 Requested basis set is G3large
 There are 52 shells and 188 basis functions
 A cutoff of  1.0D-08 yielded   1239 shell pairs
 There are  16161 function pairs ( 20529 Cartesian)
 ---------------------------------------
  Cycle       Energy         DIIS Error
 ---------------------------------------
    1    -228.9123294474      3.79E-02
    2    -227.5255155372      7.32E-03
    3    -227.5373576849      8.23E-03
    4    -227.7369065752      5.92E-04
    5    -227.7404163862      2.30E-04
    6    -227.7410815285      7.25E-05
    7    -227.7411924097      2.00E-05
    8    -227.7411968434      5.84E-06 Convergence criterion met
 ---------------------------------------
 One-Electron    Energy =  -513.5556160694
 Total Coulomb   Energy =   211.7541963981
 Alpha Exchange  Energy =    -4.6937000076
 Beta  Exchange  Energy =    -4.6937000076
 DFT   Exchange  Energy =   -18.2148722390
 DFT Correlation Energy =    -0.9951267429
 Nuclear Repu.   Energy =   102.6576218250
 Nuclear Attr.   Energy =  -740.5625441400
 Kinetic         Energy =   227.0069280706
 SCF time:  CPU 65.51 s  wall 66.07 s
 Final Alpha MO Eigenvalues
            1           2           3           4           5           6
    1 -19.1559988 -19.1559924 -10.3970876 -10.3966537  -1.3591300  -1.3395628
            7           8           9          10          11          12
    1  -0.9390873  -0.8182131  -0.7073677  -0.6942161  -0.6530641  -0.6322177
           13          14          15          16          17          18
    1  -0.5692427  -0.5188203  -0.4377593  -0.0078952   0.0470171   0.0519489
           19          20
    1   0.0939076   0.1032342
 Analysis of SCF Wavefunction
 
 --------------------------------------------------------------
                    Orbital Energies (a.u.)
 --------------------------------------------------------------
 
 Alpha MOs
 -- Occupied --
-19.156 -19.156 -10.397 -10.397  -1.359  -1.340  -0.939  -0.818
 -0.707  -0.694  -0.653  -0.632  -0.569  -0.519  -0.438
 -- Virtual --
 -0.008   0.047   0.052   0.094   0.103   0.104   0.117   0.134
  0.154   0.163   0.169   0.194   0.253   0.254   0.269   0.296
  0.328   0.341   0.349   0.361   0.379   0.396   0.446   0.511
  0.512   0.600   0.620   0.638   0.649   0.679   0.703   0.707
  0.724   0.790   0.825   0.864   0.895   0.931   1.067   1.085
  1.122   1.138   1.144   1.184   1.200   1.212   1.239   1.257
  1.261   1.294   1.320   1.387   1.455   1.513   1.631   1.647
  1.674   1.778   1.863   1.865   1.913   1.948   2.074   2.158
  2.241   2.348   2.578   2.588   2.612   2.694   2.767   2.767
  2.823   2.884   2.993   3.045   3.046   3.050   3.155   3.184
  3.225   3.278   3.372   3.387   3.450   3.480   3.486   3.521
  3.572   3.656   3.690   3.790   3.803   3.824   3.955   3.992
  4.008   4.207   4.290   4.330   4.344   4.348   4.625   4.779
  4.799   5.158   5.168   5.169   5.213   5.245   5.266   5.268
  5.303   5.451   5.559   5.648   5.667   5.671   5.678   5.971
  6.041   6.452   6.471   6.693   6.973   7.003   7.021   7.022
  7.114   7.163   7.164   7.353   7.412   7.591   7.629   7.778
  7.847  24.583  24.709  27.287  27.407  27.760  28.257  28.307
 28.600  40.946  41.042  41.094  41.148  41.172  41.177  41.248
 41.253  41.403  41.412  43.852  43.871  43.891  43.901  43.986
 44.010  44.016  44.059  44.135  44.158  45.840  45.845  45.946
 45.983  46.668  46.704  50.200  50.233
 --------------------------------------------------------------
 
          Ground-State Mulliken Net Atomic Charges

     Atom                 Charge (a.u.)
  ----------------------------------------
      1 C                     0.127835
      2 C                     0.127842
      3 O                    -0.252323
      4 H                     0.124486
      5 O                    -0.252327
      6 H                     0.124488
  ----------------------------------------
  Sum of atomic charges =     0.000000

 -----------------------------------------------------------------
                    Cartesian Multipole Moments
 -----------------------------------------------------------------
    Charge (ESU x 10^10)
                 0.0000
    Dipole Moment (Debye)
         X       0.0000      Y       0.0000      Z       0.0000
       Tot       0.0000
    Quadrupole Moments (Debye-Ang)
        XX     -25.3721     XY      -0.0008     YY     -21.1005
        XZ       6.6155     YZ      -0.0006     ZZ     -26.4367
    Octapole Moments (Debye-Ang^2)
       XXX       0.0000    XXY       0.0000    XYY       0.0000
       YYY       0.0000    XXZ     -19.3464    XYZ      -0.0006
       YYZ     -16.0893    XZZ      10.0888    YZZ      -0.0008
       ZZZ     -60.4744
    Hexadecapole Moments (Debye-Ang^3)
      XXXX    -102.2377   XXXY      -0.0024   XXYY     -18.9928
      XYYY      -0.0004   YYYY     -17.8940   XXXZ      48.9996
      XXYZ       0.0003   XYYZ      13.1169   YYYZ      -0.0008
      XXZZ     -67.6316   XYZZ      -0.0007   YYZZ     -46.5145
      XZZZ      67.0608   YZZZ      -0.0038   ZZZZ    -300.6052
 -----------------------------------------------------------------
 Total job time:  66.28s(wall), 65.71s(cpu) 
 Sun Jul  7 08:42:45 2013

        *************************************************************
        *                                                           *
        *  Thank you very much for using Q-Chem.  Have a nice day.  *
        *                                                           *
        *************************************************************


0 sent ACK to 0 
now end server 0 ... 
 
**********************************************************************
Job 3 of 3 
**********************************************************************
 
Process 0 of 1 is on cl170.stfx.acenet.ca - thread support 1
initial socket setup ...start
initial socket setup ...done 
now start server 0 ... 

cmd = /usr/bin/ssh clhead /usr/local/qchem/bin/get_hostid 1685566338 > /scratch/tmp/6063711.1.medium.q/qchem25822/lic.dat
                  Welcome to Q-Chem
     A Quantum Leap Into The Future Of Chemistry

 Y. Shao, L. Fusti-Molnar, Y. Jung, J. Kussmann, C. Ochsenfeld,
 S. T. Brown, A. T. B. Gilbert, L. V. Slipchenko,S. V. Levchenko,
 D. P. O'Neill, R. A. DiStasio Jr., R. C. Lochan, T. Wang,
 G. J. O. Beran, N. A. Besley, J. M. Herbert, C. Y. Lin,
 T. Van Voorhis, S. H. Chien, A. Sodt, R. P. Steele, 
 V. A. Rassolov, P. E. Maslen, P. P. Korambath, R. D. Adamson,
 B. Austin, J. Baker, E. F. C. Byrd, H. Dachsel, R. J. Doerksen,
 A. Dreuw, B. D. Dunietz, A. D. Dutoi, T. R. Furlani,
 S. R. Gwaltney, A. Heyden, S. Hirata, C.-P. Hsu, G. Kedziora,
 R. Z. Khaliullin, P. Klunzinger, A. M. Lee, M. S. Lee, W. Liang,
 I. Lotan, N. Nair, B. Peters, E. I. Proynov, P. A. Pieniazek, 
 Y. M. Rhee, J. Ritchie, E. Rosta, C. D. Sherrill, 
 A. C. Simmonett, J. E. Subotnik, H. L. Woodcock III,
 W. Zhang, A. T. Bell, A. K. Chakraborty, D. M. Chipman,
 F. J. Keil, A. Warshel, W. J. Hehre, H. F. Schaefer III,
 J. Kong, A. I. Krylov, P. M. W. Gill, M. Head-Gordon,
 Q-Chem, Version 3.1, Q-Chem, Inc., Pittsburgh, PA (2007).

 Additional authors for Version 3.1: 
 Z. Gan, Y. Zhao, N. E. Schultz, D. Truhlar, E. Epifanovsky and M. Oana.

 Additional authors for Version 3.2: 
 R. Baer, B. R. Brooks, D. Casanova, J.-D. Chai, C.-L. Cheng, 
 C. Cramer, D. Crittenden, A. Ghysels, G. Hawkins, E. G. Hohenstein, 
 C. Kelley, W. Kurlancheek, D. Liotard, E. Livshits, P. Manohar, 
 A. Marenich, D. Neuhauser, R. Olson, M. A. Rohrdanz, K. S. Thanthiriwatte, 
 A. J. W. Thom, V. Vanovschi, C. F. Williams, Q. Wu and Z.-Q. You. 


 Intel X86 Linux Version

 Q-chem begins on Sun Jul  7 08:42:47 2013  

 Parallel job on  1  processors
Processing $rem in /usr/local/qchem/config/preferences.

theFileMan(): MAXOPENFILES=974 MAX_SUB_FILE_NUM=16
Maximum size of a physical file is 2.0 GB, maximum size of a tmp-file is 32.0 GB


--------------------------------------------------------------
User input:
--------------------------------------------------------------

$molecule
1,2
C         -0.00239        0.00000        0.00366
C          0.00239        0.00000        1.52136
O          1.01667        0.00000       -0.61795
H         -1.00159        0.00000       -0.46287
O         -1.01667        0.00000        2.14296
H          1.00159        0.00000        1.98789
$end

$comment
positive
$end

$xc_functional
C PBE   1.00
X wPBE  1.00
$end

$rem
SYMMETRY_DECOMPOSITION	0
LRC_DFT                 true
exchange 		general
BASIS                   g3large
omega			700
mem_static              760
max_scf_cycles          200
scf_final_print         1
sym_ignore              true
$end

--------------------------------------------------------------
 Writing REM_CC_EA            6
 ----------------------------------------------------
       Standard Nuclear Orientation (Angstroms)
    I     Atom         X            Y            Z
 ----------------------------------------------------
    1      C      -0.002390     0.000000     0.003660
    2      C       0.002390     0.000000     1.521360
    3      O       1.016670     0.000000    -0.617950
    4      H      -1.001590     0.000000    -0.462870
    5      O      -1.016670     0.000000     2.142960
    6      H       1.001590     0.000000     1.987890
 ----------------------------------------------------
 Nuclear Repulsion Energy =   102.6576218305 hartrees
 There are       15 alpha and       14 beta electrons
 Requested basis set is G3large
 There are 52 shells and 188 basis functions

Total QAlloc Memory Limit   2000 MB
Mega-Array Size       743 MB
MEM_STATIC part       760 MB

                       Distance Matrix (Angstroms)
             C (  1)   C (  2)   O (  3)   H (  4)   O (  5)
   C (  2)  1.517708
   O (  3)  1.193684  2.367575
   H (  4)  1.102747  2.223768  2.024209
   O (  5)  2.367566  1.193679  3.428862  2.605874
   H (  6)  2.223768  1.102747  2.605884  3.165273  2.024209
 
 A cutoff of  1.0D-08 yielded   1239 shell pairs
 There are  16161 function pairs ( 20529 Cartesian)
Evaluating contribution to one-electron hamiltonian from nuclear
 Smallest overlap matrix eigenvalue = 1.78E-04
 Multipole matrices computed through 2nd order

  Scale SEOQF with 1.000000e-01/1.000000e-01/1.000000e-01

 Standard Electronic Orientation quadrupole field applied
 Nucleus-field energy     =    -0.0000000055 hartrees
 Guess from superposition of atomic densities
 Warning:  Energy on first SCF cycle will be non-variational
 Long-range K will be added via erf
 Coulomb attenuation parameter = 0.7 bohr**(-1)
 An unrestricted Kohn-Sham SCF calculation will be
 performed using Pulay DIIS extrapolation
 Exchange:  wPBE + LR-HF      Correlation:  PBE
 Using SG-1 standard quadrature grid
 SCF converges when DIIS error is below 1.0E-05
 Requested basis set is G3large
 There are 52 shells and 188 basis functions
 A cutoff of  1.0D-08 yielded   1239 shell pairs
 There are  16161 function pairs ( 20529 Cartesian)
 Warning!  Inaccurate integrated density:
   Number of electrons =    29
   Numerical integral  =    29.999861636644
   Relative error      =     3.4477987470 %
 ---------------------------------------
  Cycle       Energy         DIIS Error
 ---------------------------------------
    1    -228.9123294474      3.79E-02
    2    -227.0834410515      6.91E-03
    3    -227.1068833632      8.10E-03
    4    -227.3168416880      8.55E-04
    5    -227.3214385685      2.78E-04
    6    -227.3227511781      9.18E-05
    7    -227.3230344549      2.81E-05
    8    -227.3230926976      1.26E-05
    9    -227.3231286426      9.47E-06 Convergence criterion met
 ---------------------------------------
 One-Electron    Energy =  -504.6394154461
 Total Coulomb   Energy =   202.8087145623
 Alpha Exchange  Energy =    -4.7435465731
 Beta  Exchange  Energy =    -4.3525139740
 DFT   Exchange  Energy =   -18.0953407916
 DFT Correlation Energy =    -0.9586482451
 Nuclear Repu.   Energy =   102.6576218250
 Nuclear Attr.   Energy =  -731.1920760644
 Kinetic         Energy =   226.5526606183
 <S^2> = 0.7716
 SCF time:  CPU 91.22 s  wall 91.86 s
 Final Alpha MO Eigenvalues
            1           2           3           4           5           6
    1 -19.4904911 -19.4901419 -10.6978577 -10.6974076  -1.6702027  -1.6516570
            7           8           9          10          11          12
    1  -1.2495032  -1.1090824  -1.0140941  -0.9966457  -0.9515741  -0.9244834
           13          14          15          16          17          18
    1  -0.8688827  -0.8453441  -0.7624973  -0.2903333  -0.1356310  -0.1032505
           19          20
    1  -0.0968753  -0.0691452
 Final Beta MO Eigenvalues
            1           2           3           4           5           6
    1 -19.4798494 -19.4795054 -10.6976270 -10.6972764  -1.6489521  -1.6284975
            7           8           9          10          11          12
    1  -1.2144253  -1.0796371  -0.9724111  -0.9695607  -0.9261157  -0.9171059
           13          14          15          16          17          18
    1  -0.8557457  -0.7060010  -0.3982295  -0.2825125  -0.1358346  -0.1021192
           19
    1  -0.0943305
 Analysis of SCF Wavefunction
 
 --------------------------------------------------------------
                    Orbital Energies (a.u.)
 --------------------------------------------------------------
 
 Alpha MOs
 -- Occupied --
-19.490 -19.490 -10.698 -10.697  -1.670  -1.652  -1.250  -1.109
 -1.014  -0.997  -0.952  -0.924  -0.869  -0.845  -0.762
 -- Virtual --
 -0.290  -0.136  -0.103  -0.097  -0.069  -0.062  -0.044  -0.020
 -0.012  -0.001   0.015   0.040   0.047   0.059   0.077   0.098
  0.132   0.152   0.159   0.169   0.190   0.197   0.214   0.284
  0.290   0.366   0.384   0.397   0.410   0.444   0.458   0.469
  0.482   0.542   0.597   0.624   0.638   0.675   0.798   0.838
  0.870   0.890   0.896   0.945   0.958   0.970   0.983   1.005
  1.016   1.038   1.055   1.118   1.190   1.262   1.378   1.388
  1.403   1.493   1.585   1.591   1.630   1.656   1.797   1.878
  1.969   2.066   2.304   2.312   2.334   2.399   2.483   2.487
  2.543   2.600   2.706   2.754   2.764   2.764   2.873   2.896
  2.941   2.995   3.089   3.101   3.166   3.192   3.199   3.233
  3.286   3.368   3.404   3.505   3.518   3.537   3.660   3.697
  3.716   3.912   4.004   4.043   4.046   4.052   4.330   4.479
  4.500   4.851   4.858   4.862   4.905   4.935   4.951   4.959
  4.971   5.139   5.262   5.352   5.363   5.371   5.375   5.660
  5.731   6.152   6.173   6.374   6.656   6.671   6.688   6.689
  6.809   6.841   6.861   7.051   7.110   7.268   7.301   7.470
  7.539  24.284  24.409  26.989  27.108  27.456  27.958  28.008
 28.298  40.644  40.742  40.793  40.845  40.870  40.875  40.948
 40.953  41.101  41.110  43.509  43.531  43.549  43.559  43.661
 43.674  43.684  43.716  43.801  43.824  45.511  45.517  45.601
 45.637  46.340  46.375  49.868  49.901
 
 Beta MOs
 -- Occupied --
-19.480 -19.480 -10.698 -10.697  -1.649  -1.628  -1.214  -1.080
 -0.972  -0.970  -0.926  -0.917  -0.856  -0.706
 -- Virtual --
 -0.398  -0.283  -0.136  -0.102  -0.094  -0.068  -0.062  -0.041
 -0.017  -0.013   0.000   0.020   0.042   0.052   0.068   0.079
  0.100   0.142   0.153   0.164   0.174   0.197   0.215   0.219
  0.289   0.295   0.382   0.386   0.397   0.417   0.447   0.460
  0.472   0.491   0.541   0.601   0.626   0.641   0.679   0.802
  0.845   0.877   0.891   0.902   0.950   0.967   0.976   0.996
  1.011   1.031   1.048   1.059   1.134   1.204   1.267   1.386
  1.396   1.413   1.515   1.603   1.605   1.651   1.672   1.801
  1.892   1.973   2.084   2.316   2.322   2.343   2.408   2.493
  2.499   2.541   2.602   2.719   2.762   2.764   2.768   2.878
  2.904   2.939   2.996   3.093   3.106   3.167   3.196   3.197
  3.242   3.286   3.379   3.405   3.506   3.522   3.543   3.668
  3.708   3.723   3.918   4.019   4.057   4.058   4.060   4.341
  4.495   4.517   4.870   4.878   4.884   4.929   4.960   4.979
  4.983   5.014   5.164   5.276   5.363   5.379   5.385   5.389
  5.682   5.752   6.159   6.179   6.397   6.682   6.715   6.732
  6.733   6.819   6.870   6.875   7.061   7.121   7.302   7.339
  7.486   7.555  24.284  24.410  26.987  27.107  27.459  27.958
 28.007  28.300  40.645  40.742  40.793  40.847  40.871  40.877
 40.947  40.952  41.102  41.111  43.535  43.555  43.576  43.586
 43.665  43.689  43.698  43.742  43.816  43.838  45.519  45.525
 45.628  45.664  46.347  46.382  49.879  49.912
 --------------------------------------------------------------
 
          Ground-State Mulliken Net Atomic Charges

     Atom                 Charge (a.u.)    Spin (a.u.)
  --------------------------------------------------------
      1 C                     0.198765      -0.009054
      2 C                     0.198540      -0.009063
      3 O                     0.062850       0.416710
      4 H                     0.238308       0.092289
      5 O                     0.063225       0.416825
      6 H                     0.238311       0.092293
  --------------------------------------------------------
  Sum of atomic charges =     1.000000
  Sum of spin   charges =     1.000000

 -----------------------------------------------------------------
                    Cartesian Multipole Moments
 -----------------------------------------------------------------
    Charge (ESU x 10^10)
                 4.8032
    Dipole Moment (Debye)
         X      -0.0017      Y       0.0000      Z       3.6641
       Tot       3.6641
    Quadrupole Moments (Debye-Ang)
        XX     -17.9902     XY       0.0049     YY     -19.0603
        XZ       3.9653     YZ       0.0179     ZZ     -12.5539
    Octapole Moments (Debye-Ang^2)
       XXX      -0.0015    XXY       0.0000    XYY       0.0000
       YYY       0.0000    XXZ     -13.7155    XYZ       0.0038
       YYZ     -14.5339    XZZ       6.0451    YZZ       0.0274
       ZZZ     -32.9752
    Hexadecapole Moments (Debye-Ang^3)
      XXXX     -79.6767   XXXY       0.0374   XXYY     -16.0391
      XYYY       0.0013   YYYY     -14.4901   XXXZ      42.5744
      XXYZ      -0.0089   XYYZ      12.0858   YYYZ       0.0101
      XXZZ     -47.6104   XYZZ      -0.0349   YYZZ     -40.9087
      XZZZ      50.5317   YZZZ       0.1264   ZZZZ    -213.1181
 -----------------------------------------------------------------
 Total job time:  92.07s(wall), 91.42s(cpu) 
 Sun Jul  7 08:44:20 2013

        *************************************************************
        *                                                           *
        *  Thank you very much for using Q-Chem.  Have a nice day.  *
        *                                                           *
        *************************************************************


0 sent ACK to 0 
now end server 0 ... 
