Process 0 of 1 is on cl132 - thread support 1
initial socket setup ...start
initial socket setup ...done 
now start server 0 ... 

cmd = /usr/bin/ssh clhead /usr/local/qchem/bin/get_hostid 906831230 > /tmp/1603298.1.medium.q/qchem32112/lic.dat

cmd = /usr/bin/ssh clhead /usr/local/qchem/bin/get_hostid 906831230 > /tmp/1603298.1.medium.q/qchem32112/lic.dat

cmd = /usr/bin/ssh clhead /usr/local/qchem/bin/get_hostid 906831230 > /tmp/1603298.1.medium.q/qchem32112/lic.dat

cmd = /usr/bin/ssh clhead /usr/local/qchem/bin/get_hostid 906831230 > /tmp/1603298.1.medium.q/qchem32112/lic.dat

cmd = /usr/bin/ssh clhead /usr/local/qchem/bin/get_hostid 906831230 > /tmp/1603298.1.medium.q/qchem32112/lic.dat
                  Welcome to Q-Chem
     A Quantum Leap Into The Future Of Chemistry

 Y. Shao, L. Fusti-Molnar, Y. Jung, J. Kussmann, C. Ochsenfeld,
 S. T. Brown, A. T. B. Gilbert, L. V. Slipchenko,S. V. Levchenko,
 D. P. O'Neill, R. A. DiStasio Jr., R. C. Lochan, T. Wang,
 G. J. O. Beran, N. A. Besley, J. M. Herbert, C. Y. Lin,
 T. Van Voorhis, S. H. Chien, A. Sodt, R. P. Steele, 
 V. A. Rassolov, P. E. Maslen, P. P. Korambath, R. D. Adamson,
 B. Austin, J. Baker, E. F. C. Byrd, H. Dachsel, R. J. Doerksen,
 A. Dreuw, B. D. Dunietz, A. D. Dutoi, T. R. Furlani,
 S. R. Gwaltney, A. Heyden, S. Hirata, C.-P. Hsu, G. Kedziora,
 R. Z. Khaliullin, P. Klunzinger, A. M. Lee, M. S. Lee, W. Liang,
 I. Lotan, N. Nair, B. Peters, E. I. Proynov, P. A. Pieniazek, 
 Y. M. Rhee, J. Ritchie, E. Rosta, C. D. Sherrill, 
 A. C. Simmonett, J. E. Subotnik, H. L. Woodcock III,
 W. Zhang, A. T. Bell, A. K. Chakraborty, D. M. Chipman,
 F. J. Keil, A. Warshel, W. J. Hehre, H. F. Schaefer III,
 J. Kong, A. I. Krylov, P. M. W. Gill, M. Head-Gordon,
 Q-Chem, Version 3.1, Q-Chem, Inc., Pittsburgh, PA (2007).

 Additional authors for Version 3.1: 
 Z. Gan, Y. Zhao, N. E. Schultz, D. Truhlar, E. Epifanovsky and M. Oana.

 Additional authors for Version 3.2: 
 R. Baer, B. R. Brooks, D. Casanova, J.-D. Chai, C.-L. Cheng, 
 C. Cramer, D. Crittenden, A. Ghysels, G. Hawkins, E. G. Hohenstein, 
 C. Kelley, W. Kurlancheek, D. Liotard, E. Livshits, P. Manohar, 
 A. Marenich, D. Neuhauser, R. Olson, M. A. Rohrdanz, K. S. Thanthiriwatte, 
 A. J. W. Thom, V. Vanovschi, C. F. Williams, Q. Wu and Z.-Q. You. 


 Intel X86 Linux Version

 Q-chem begins on Wed Mar 26 11:00:25 2014  

 Parallel job on  1  processors
Processing $rem in /usr/local/qchem/config/preferences.

theFileMan(): MAXOPENFILES=974 MAX_SUB_FILE_NUM=16
Maximum size of a physical file is 2.0 GB, maximum size of a tmp-file is 32.0 GB


--------------------------------------------------------------
User input:
--------------------------------------------------------------

$molecule
-1,2
C         -0.00013        0.00000        0.01487
Si        -0.00043        0.00000        1.87462
H          1.01782        0.00000       -0.37208
H         -0.50853       -0.88134       -0.37324
H         -0.50853        0.88134       -0.37324
H         -1.38712        0.00000        2.39962
H          0.69345       -1.20137        2.39767
H          0.69345        1.20137        2.39767
$end

$comment
negative
$end

$xc_functional
C PBE   1.00
X wPBE  1.00
$end

$rem
SYMMETRY_DECOMPOSITION	0
exchange 		general
LRC_DFT                 true
BASIS                   g3large
omega			360
mem_static              760
max_scf_cycles          200
scf_final_print         1
sym_ignore              true
$end

--------------------------------------------------------------
 Writing REM_CC_EA            8
 ----------------------------------------------------
       Standard Nuclear Orientation (Angstroms)
    I     Atom         X            Y            Z
 ----------------------------------------------------
    1      C      -0.000130     0.000000     0.014870
    2      Si     -0.000430     0.000000     1.874620
    3      H       1.017820     0.000000    -0.372080
    4      H      -0.508530    -0.881340    -0.373240
    5      H      -0.508530     0.881340    -0.373240
    6      H      -1.387120     0.000000     2.399620
    7      H       0.693450    -1.201370     2.397670
    8      H       0.693450     1.201370     2.397670
 ----------------------------------------------------
 Nuclear Repulsion Energy =    63.1402175305 hartrees
 There are       14 alpha and       13 beta electrons
 Requested basis set is G3large
 There are 65 shells and 168 basis functions

Total QAlloc Memory Limit   2000 MB
Mega-Array Size       743 MB
MEM_STATIC part       760 MB

                       Distance Matrix (Angstroms)
             C (  1)   Si(  2)   H (  3)   H (  4)   H (  5)   H (  6)
   Si(  2)  1.859750
   H (  3)  1.089014  2.466677
   H (  4)  1.088972  2.467347  1.762528
   H (  5)  1.088972  2.467347  1.762528  1.762680
   H (  6)  2.758763  1.482745  3.669613  3.039315  3.039315
   H (  7)  2.757187  1.482680  3.036449  3.037288  3.668839  2.402512
   H (  8)  2.757187  1.482680  3.036449  3.668839  3.037288  2.402512
             H (  7)
   H (  8)  2.402740
 
 A cutoff of  1.0D-08 yielded   2044 shell pairs
 There are  13820 function pairs ( 17231 Cartesian)
Evaluating contribution to one-electron hamiltonian from nuclear
 Smallest overlap matrix eigenvalue = 1.35E-04
 Multipole matrices computed through 2nd order

  Scale SEOQF with 1.000000e-01/1.000000e-01/1.000000e-01

 Standard Electronic Orientation quadrupole field applied
 Nucleus-field energy     =    -0.0000000067 hartrees
 Guess from superposition of atomic densities
 Warning:  Energy on first SCF cycle will be non-variational
 Long-range K will be added via erf
 Coulomb attenuation parameter = 0.36 bohr**(-1)
 An unrestricted Kohn-Sham SCF calculation will be
 performed using Pulay DIIS extrapolation
 Exchange:  wPBE + LR-HF      Correlation:  PBE
 Using SG-1 standard quadrature grid
 SCF converges when DIIS error is below 1.0E-05
 Requested basis set is G3large
 There are 65 shells and 168 basis functions
 A cutoff of  1.0D-08 yielded   2044 shell pairs
 There are  13820 function pairs ( 17231 Cartesian)
 Warning!  Inaccurate integrated density:
   Number of electrons =    27
   Numerical integral  =    25.999985127030
   Relative error      =    -3.7037587888 %
 ---------------------------------------
  Cycle       Energy         DIIS Error
 ---------------------------------------
    1    -331.2412131806      2.76E-02
    2    -330.9740276459      3.48E-03
    3    -331.0198433404      2.71E-03
    4    -331.0491212570      3.47E-04
    5    -331.0539451683      1.72E-04
    6    -331.0562019014      9.60E-05
    7    -331.0572373738      4.00E-05
    8    -331.0575164097      1.72E-05
    9    -331.0575778646      7.53E-06 Convergence criterion met
 ---------------------------------------
 One-Electron    Energy =  -584.9308753678
 Total Coulomb   Energy =   219.2576503137
 Alpha Exchange  Energy =    -2.4515867328
 Beta  Exchange  Energy =    -2.3855795813
 DFT   Exchange  Energy =   -22.8004007181
 DFT Correlation Energy =    -0.8870033022
 Nuclear Repu.   Energy =    63.1402175238
 Nuclear Attr.   Energy =  -915.3301339671
 Kinetic         Energy =   330.3992585993
 <S^2> = 0.7502
 SCF time:  CPU 95.44 s  wall 97.12 s
 Final Alpha MO Eigenvalues
            1           2           3           4           5           6
    1 -65.4517109  -9.9198404  -5.1133493  -3.5172801  -3.5172654  -3.5159144
            7           8           9          10          11          12
    1  -0.6939035  -0.5207878  -0.3863579  -0.3862749  -0.3129922  -0.3129511
           13          14          15          16          17          18
    1  -0.2994439   0.0276521   0.1481104   0.1507859   0.1508708   0.1758301
           19
    1   0.1881833
 Final Beta MO Eigenvalues
            1           2           3           4           5           6
    1 -65.4516228  -9.9192296  -5.1132487  -3.5172199  -3.5172052  -3.5156592
            7           8           9          10          11          12
    1  -0.6923940  -0.5191202  -0.3854296  -0.3853447  -0.3128516  -0.3128075
           13          14          15          16          17          18
    1  -0.2981441   0.1386084   0.1545624   0.1653444   0.1655717   0.1824940
 Analysis of SCF Wavefunction
 
 --------------------------------------------------------------
                    Orbital Energies (a.u.)
 --------------------------------------------------------------
 
 Alpha MOs
 -- Occupied --
-65.452  -9.920  -5.113  -3.517  -3.517  -3.516  -0.694  -0.521
 -0.386  -0.386  -0.313  -0.313  -0.299   0.028
 -- Virtual --
  0.148   0.151   0.151   0.176   0.188   0.188   0.200   0.200
  0.256   0.267   0.268   0.268   0.300   0.300   0.302   0.314
  0.347   0.364   0.364   0.427   0.427   0.477   0.477   0.479
  0.483   0.527   0.527   0.609   0.629   0.629   0.641   0.666
  0.710   0.710   0.724   0.762   0.762   0.770   0.811   0.811
  0.875   0.904   0.915   0.915   0.958   0.958   1.031   1.036
  1.036   1.071   1.087   1.127   1.205   1.205   1.262   1.262
  1.305   1.344   1.344   1.410   1.410   1.464   1.505   1.533
  1.533   1.538   1.547   1.548   1.634   1.634   1.702   1.702
  1.712   1.759   1.759   1.803   1.850   2.341   2.383   2.391
  2.391   2.453   2.454   2.565   2.737   2.738   2.841   3.050
  3.050   3.174   3.199   3.328   3.338   3.338   3.453   3.453
  3.553   3.553   3.596   3.768   3.768   3.884   3.885   3.908
  4.012   4.014   4.122   4.155   4.155   4.283   4.284   4.285
  4.331   4.352   4.352   4.463   4.463   4.469   4.593   4.606
  4.606   4.667   4.717   4.862   4.863   5.278   5.893   5.893
  6.445  11.581  11.581  11.919  17.704  17.788  17.884  17.967
 18.024  22.318  22.333  22.341  22.341  22.348  22.349  22.374
 24.266  27.967  28.225  28.225  41.095  41.110  41.333  41.375
 41.420 141.239
 
 Beta MOs
 -- Occupied --
-65.452  -9.919  -5.113  -3.517  -3.517  -3.516  -0.692  -0.519
 -0.385  -0.385  -0.313  -0.313  -0.298
 -- Virtual --
  0.139   0.155   0.165   0.166   0.182   0.190   0.190   0.202
  0.202   0.255   0.265   0.265   0.271   0.298   0.300   0.300
  0.316   0.347   0.364   0.364   0.428   0.428   0.475   0.477
  0.477   0.482   0.526   0.526   0.609   0.626   0.627   0.639
  0.667   0.709   0.709   0.724   0.762   0.762   0.769   0.809
  0.809   0.872   0.903   0.915   0.916   0.958   0.958   1.031
  1.036   1.036   1.072   1.088   1.127   1.205   1.205   1.263
  1.263   1.305   1.345   1.345   1.410   1.410   1.465   1.506
  1.533   1.533   1.538   1.547   1.548   1.634   1.634   1.702
  1.702   1.711   1.759   1.759   1.804   1.850   2.341   2.384
  2.392   2.393   2.454   2.454   2.565   2.737   2.738   2.841
  3.050   3.050   3.175   3.199   3.328   3.339   3.339   3.453
  3.454   3.553   3.553   3.597   3.769   3.769   3.884   3.886
  3.910   4.012   4.014   4.123   4.155   4.155   4.282   4.284
  4.284   4.331   4.351   4.351   4.463   4.463   4.469   4.593
  4.606   4.606   4.667   4.717   4.863   4.863   5.278   5.893
  5.894   6.445  11.581  11.581  11.919  17.704  17.788  17.884
 17.968  18.024  22.318  22.333  22.341  22.341  22.348  22.349
 22.374  24.267  27.968  28.226  28.226  41.095  41.110  41.333
 41.375  41.420 141.239
 --------------------------------------------------------------
 
          Ground-State Mulliken Net Atomic Charges

     Atom                 Charge (a.u.)    Spin (a.u.)
  --------------------------------------------------------
      1 C                     2.702214      -2.936849
      2 Si                    0.718401      -0.490886
      3 H                    -1.199695       1.300534
      4 H                    -1.213010       1.314373
      5 H                    -1.183280       1.283564
      6 H                    -0.274773       0.176428
      7 H                    -0.275291       0.177246
      8 H                    -0.274566       0.175590
  --------------------------------------------------------
  Sum of atomic charges =    -1.000000
  Sum of spin   charges =     1.000000

 -----------------------------------------------------------------
                    Cartesian Multipole Moments
 -----------------------------------------------------------------
    Charge (ESU x 10^10)
                -4.8032
    Dipole Moment (Debye)
         X      -0.0038      Y       0.1189      Z       1.9932
       Tot       1.9967
    Quadrupole Moments (Debye-Ang)
        XX     -49.4897     XY      -0.0810     YY     -49.4821
        XZ      -0.0025     YZ      -0.0524     ZZ     -48.0981
    Octapole Moments (Debye-Ang^2)
       XXX      -1.4227    XXY       0.4681    XYY       1.3697
       YYY       1.4045    XXZ     -19.9957    XYZ       0.0397
       YYZ     -19.9936    XZZ       0.0021    YZZ       0.4330
       ZZZ     -71.8733
    Hexadecapole Moments (Debye-Ang^3)
      XXXX    -373.1364   XXXY      -0.6349   XXYY    -124.3507
      XYYY      -0.7121   YYYY    -373.0085   XXXZ       7.3709
      XXYZ      -0.0787   XYYZ      -7.3420   YYYZ      -0.2361
      XXZZ    -180.2493   XYZZ      -0.2078   YYZZ    -180.2272
      XZZZ       0.0381   YZZZ      -0.2298   ZZZZ    -670.7633
 -----------------------------------------------------------------
 Total job time:  97.36s(wall), 95.62s(cpu) 
 Wed Mar 26 11:02:02 2014

        *************************************************************
        *                                                           *
        *  Thank you very much for using Q-Chem.  Have a nice day.  *
        *                                                           *
        *************************************************************


0 sent ACK to 0 
now end server 0 ... 
 
**********************************************************************
Job 2 of 3 
**********************************************************************
 
Process 0 of 1 is on cl132 - thread support 1
initial socket setup ...start
initial socket setup ...done 
now start server 0 ... 

cmd = /usr/bin/ssh clhead /usr/local/qchem/bin/get_hostid 254582599 > /tmp/1603298.1.medium.q/qchem32112/lic.dat

cmd = /usr/bin/ssh clhead /usr/local/qchem/bin/get_hostid 254582599 > /tmp/1603298.1.medium.q/qchem32112/lic.dat

cmd = /usr/bin/ssh clhead /usr/local/qchem/bin/get_hostid 254582599 > /tmp/1603298.1.medium.q/qchem32112/lic.dat

cmd = /usr/bin/ssh clhead /usr/local/qchem/bin/get_hostid 254582599 > /tmp/1603298.1.medium.q/qchem32112/lic.dat

cmd = /usr/bin/ssh clhead /usr/local/qchem/bin/get_hostid 254582599 > /tmp/1603298.1.medium.q/qchem32112/lic.dat
                  Welcome to Q-Chem
     A Quantum Leap Into The Future Of Chemistry

 Y. Shao, L. Fusti-Molnar, Y. Jung, J. Kussmann, C. Ochsenfeld,
 S. T. Brown, A. T. B. Gilbert, L. V. Slipchenko,S. V. Levchenko,
 D. P. O'Neill, R. A. DiStasio Jr., R. C. Lochan, T. Wang,
 G. J. O. Beran, N. A. Besley, J. M. Herbert, C. Y. Lin,
 T. Van Voorhis, S. H. Chien, A. Sodt, R. P. Steele, 
 V. A. Rassolov, P. E. Maslen, P. P. Korambath, R. D. Adamson,
 B. Austin, J. Baker, E. F. C. Byrd, H. Dachsel, R. J. Doerksen,
 A. Dreuw, B. D. Dunietz, A. D. Dutoi, T. R. Furlani,
 S. R. Gwaltney, A. Heyden, S. Hirata, C.-P. Hsu, G. Kedziora,
 R. Z. Khaliullin, P. Klunzinger, A. M. Lee, M. S. Lee, W. Liang,
 I. Lotan, N. Nair, B. Peters, E. I. Proynov, P. A. Pieniazek, 
 Y. M. Rhee, J. Ritchie, E. Rosta, C. D. Sherrill, 
 A. C. Simmonett, J. E. Subotnik, H. L. Woodcock III,
 W. Zhang, A. T. Bell, A. K. Chakraborty, D. M. Chipman,
 F. J. Keil, A. Warshel, W. J. Hehre, H. F. Schaefer III,
 J. Kong, A. I. Krylov, P. M. W. Gill, M. Head-Gordon,
 Q-Chem, Version 3.1, Q-Chem, Inc., Pittsburgh, PA (2007).

 Additional authors for Version 3.1: 
 Z. Gan, Y. Zhao, N. E. Schultz, D. Truhlar, E. Epifanovsky and M. Oana.

 Additional authors for Version 3.2: 
 R. Baer, B. R. Brooks, D. Casanova, J.-D. Chai, C.-L. Cheng, 
 C. Cramer, D. Crittenden, A. Ghysels, G. Hawkins, E. G. Hohenstein, 
 C. Kelley, W. Kurlancheek, D. Liotard, E. Livshits, P. Manohar, 
 A. Marenich, D. Neuhauser, R. Olson, M. A. Rohrdanz, K. S. Thanthiriwatte, 
 A. J. W. Thom, V. Vanovschi, C. F. Williams, Q. Wu and Z.-Q. You. 


 Intel X86 Linux Version

 Q-chem begins on Wed Mar 26 11:02:06 2014  

 Parallel job on  1  processors
Processing $rem in /usr/local/qchem/config/preferences.

theFileMan(): MAXOPENFILES=974 MAX_SUB_FILE_NUM=16
Maximum size of a physical file is 2.0 GB, maximum size of a tmp-file is 32.0 GB


--------------------------------------------------------------
User input:
--------------------------------------------------------------

$molecule
0,1
C         -0.00013        0.00000        0.01487
Si        -0.00043        0.00000        1.87462
H          1.01782        0.00000       -0.37208
H         -0.50853       -0.88134       -0.37324
H         -0.50853        0.88134       -0.37324
H         -1.38712        0.00000        2.39962
H          0.69345       -1.20137        2.39767
H          0.69345        1.20137        2.39767
$end

$comment
neutral
$end

$xc_functional
C PBE   1.00
X wPBE  1.00
$end


$rem
SYMMETRY_DECOMPOSITION	0
LRC_DFT                 true
exchange 		general
BASIS                   g3large
omega			360
mem_static              760
max_scf_cycles          200
scf_final_print         1
sym_ignore              true
$end

--------------------------------------------------------------
 Writing REM_CC_EA            8
 ----------------------------------------------------
       Standard Nuclear Orientation (Angstroms)
    I     Atom         X            Y            Z
 ----------------------------------------------------
    1      C      -0.000130     0.000000     0.014870
    2      Si     -0.000430     0.000000     1.874620
    3      H       1.017820     0.000000    -0.372080
    4      H      -0.508530    -0.881340    -0.373240
    5      H      -0.508530     0.881340    -0.373240
    6      H      -1.387120     0.000000     2.399620
    7      H       0.693450    -1.201370     2.397670
    8      H       0.693450     1.201370     2.397670
 ----------------------------------------------------
 Nuclear Repulsion Energy =    63.1402175305 hartrees
 There are       13 alpha and       13 beta electrons
 Requested basis set is G3large
 There are 65 shells and 168 basis functions

Total QAlloc Memory Limit   2000 MB
Mega-Array Size       743 MB
MEM_STATIC part       760 MB

                       Distance Matrix (Angstroms)
             C (  1)   Si(  2)   H (  3)   H (  4)   H (  5)   H (  6)
   Si(  2)  1.859750
   H (  3)  1.089014  2.466677
   H (  4)  1.088972  2.467347  1.762528
   H (  5)  1.088972  2.467347  1.762528  1.762680
   H (  6)  2.758763  1.482745  3.669613  3.039315  3.039315
   H (  7)  2.757187  1.482680  3.036449  3.037288  3.668839  2.402512
   H (  8)  2.757187  1.482680  3.036449  3.668839  3.037288  2.402512
             H (  7)
   H (  8)  2.402740
 
 A cutoff of  1.0D-08 yielded   2044 shell pairs
 There are  13820 function pairs ( 17231 Cartesian)
Evaluating contribution to one-electron hamiltonian from nuclear
 Smallest overlap matrix eigenvalue = 1.35E-04
 Multipole matrices computed through 2nd order

  Scale SEOQF with 1.000000e-01/1.000000e-01/1.000000e-01

 Standard Electronic Orientation quadrupole field applied
 Nucleus-field energy     =    -0.0000000067 hartrees
 Guess from superposition of atomic densities
 Warning:  Energy on first SCF cycle will be non-variational
 Long-range K will be added via erf
 Coulomb attenuation parameter = 0.36 bohr**(-1)
 A restricted Kohn-Sham SCF calculation will be
 performed using Pulay DIIS extrapolation
 Exchange:  wPBE + LR-HF      Correlation:  PBE
 Using SG-1 standard quadrature grid
 SCF converges when DIIS error is below 1.0E-05
 Requested basis set is G3large
 There are 65 shells and 168 basis functions
 A cutoff of  1.0D-08 yielded   2044 shell pairs
 There are  13820 function pairs ( 17231 Cartesian)
 ---------------------------------------
  Cycle       Energy         DIIS Error
 ---------------------------------------
    1    -331.2412131806      2.76E-02
    2    -331.0554587709      2.86E-03
    3    -331.0786187812      1.77E-03
    4    -331.0890913120      2.55E-04
    5    -331.0894232187      5.29E-05
    6    -331.0894420417      1.40E-05
    7    -331.0894430409      2.86E-06 Convergence criterion met
 ---------------------------------------
 One-Electron    Energy =  -581.4807447791
 Total Coulomb   Energy =   215.6995401940
 Alpha Exchange  Energy =    -2.3870674238
 Beta  Exchange  Energy =    -2.3870674238
 DFT   Exchange  Energy =   -22.7953466077
 DFT Correlation Energy =    -0.8789745244
 Nuclear Repu.   Energy =    63.1402175238
 Nuclear Attr.   Energy =  -911.8196770470
 Kinetic         Energy =   330.3389322679
 SCF time:  CPU 58.89 s  wall 60.23 s
 Final Alpha MO Eigenvalues
            1           2           3           4           5           6
    1 -65.5801911 -10.0659188  -5.2419274  -3.6455890  -3.6455778  -3.6449674
            7           8           9          10          11          12
    1  -0.8370813  -0.6490343  -0.5294284  -0.5293940  -0.4402928  -0.4402871
           13          14          15          16          17          18
    1  -0.4362045   0.0380073   0.0608643   0.0675375   0.0675503   0.0856024
 Analysis of SCF Wavefunction
 
 --------------------------------------------------------------
                    Orbital Energies (a.u.)
 --------------------------------------------------------------
 
 Alpha MOs
 -- Occupied --
-65.580 -10.066  -5.242  -3.646  -3.646  -3.645  -0.837  -0.649
 -0.529  -0.529  -0.440  -0.440  -0.436
 -- Virtual --
  0.038   0.061   0.068   0.068   0.086   0.094   0.094   0.103
  0.103   0.155   0.156   0.156   0.160   0.183   0.183   0.190
  0.202   0.232   0.235   0.235   0.300   0.300   0.355   0.360
  0.360   0.363   0.410   0.410   0.492   0.499   0.499   0.514
  0.540   0.581   0.581   0.601   0.632   0.632   0.642   0.676
  0.676   0.739   0.775   0.787   0.788   0.833   0.833   0.904
  0.913   0.913   0.939   0.944   0.998   1.069   1.070   1.133
  1.133   1.175   1.200   1.200   1.287   1.287   1.326   1.371
  1.397   1.397   1.414   1.418   1.418   1.493   1.494   1.563
  1.564   1.576   1.633   1.633   1.671   1.712   2.214   2.254
  2.259   2.259   2.324   2.324   2.438   2.594   2.594   2.698
  2.925   2.925   3.028   3.056   3.197   3.197   3.202   3.308
  3.308   3.410   3.410   3.459   3.626   3.626   3.750   3.751
  3.764   3.885   3.886   3.978   4.015   4.015   4.158   4.160
  4.160   4.207   4.222   4.222   4.320   4.321   4.341   4.447
  4.461   4.462   4.521   4.588   4.734   4.734   5.132   5.746
  5.746   6.315  11.452  11.452  11.790  17.576  17.660  17.755
 17.839  17.895  22.190  22.204  22.212  22.212  22.219  22.220
 22.246  24.120  27.822  28.079  28.079  40.949  40.964  41.187
 41.229  41.274 141.111
 --------------------------------------------------------------
 
          Ground-State Mulliken Net Atomic Charges

     Atom                 Charge (a.u.)
  ----------------------------------------
      1 C                    -0.284816
      2 Si                    0.213928
      3 H                     0.098756
      4 H                     0.098729
      5 H                     0.098682
      6 H                    -0.075001
      7 H                    -0.075110
      8 H                    -0.075167
  ----------------------------------------
  Sum of atomic charges =     0.000000

 -----------------------------------------------------------------
                    Cartesian Multipole Moments
 -----------------------------------------------------------------
    Charge (ESU x 10^10)
                 0.0000
    Dipole Moment (Debye)
         X      -0.0010      Y       0.0000      Z      -0.8221
       Tot       0.8221
    Quadrupole Moments (Debye-Ang)
        XX     -22.8903     XY       0.0000     YY     -22.8910
        XZ      -0.0021     YZ      -0.0001     ZZ     -25.1314
    Octapole Moments (Debye-Ang^2)
       XXX       1.6269    XXY      -0.0001    XYY      -1.6081
       YYY      -0.0002    XXZ     -31.5698    XYZ      -0.0003
       YYZ     -31.5732    XZZ       0.0006    YZZ      -0.0003
       ZZZ     -92.8830
    Hexadecapole Moments (Debye-Ang^3)
      XXXX     -56.2639   XXXY       0.0000   XXYY     -18.7558
      XYYY      -0.0003   YYYY     -56.2720   XXXZ       1.1938
      XXYZ      -0.0003   XYYZ      -1.1522   YYYZ      -0.0007
      XXZZ     -80.7721   XYZZ      -0.0010   YYZZ     -80.7776
      XZZZ       0.0316   YZZZ      -0.0010   ZZZZ    -407.9030
 -----------------------------------------------------------------
 Total job time:  60.44s(wall), 59.05s(cpu) 
 Wed Mar 26 11:03:07 2014

        *************************************************************
        *                                                           *
        *  Thank you very much for using Q-Chem.  Have a nice day.  *
        *                                                           *
        *************************************************************


0 sent ACK to 0 
now end server 0 ... 
 
**********************************************************************
Job 3 of 3 
**********************************************************************
 
Process 0 of 1 is on cl132 - thread support 1
initial socket setup ...start
initial socket setup ...done 
now start server 0 ... 

cmd = /usr/bin/ssh clhead /usr/local/qchem/bin/get_hostid 884048875 > /tmp/1603298.1.medium.q/qchem32112/lic.dat

cmd = /usr/bin/ssh clhead /usr/local/qchem/bin/get_hostid 884048875 > /tmp/1603298.1.medium.q/qchem32112/lic.dat

cmd = /usr/bin/ssh clhead /usr/local/qchem/bin/get_hostid 884048875 > /tmp/1603298.1.medium.q/qchem32112/lic.dat

cmd = /usr/bin/ssh clhead /usr/local/qchem/bin/get_hostid 884048875 > /tmp/1603298.1.medium.q/qchem32112/lic.dat

cmd = /usr/bin/ssh clhead /usr/local/qchem/bin/get_hostid 884048875 > /tmp/1603298.1.medium.q/qchem32112/lic.dat
                  Welcome to Q-Chem
     A Quantum Leap Into The Future Of Chemistry

 Y. Shao, L. Fusti-Molnar, Y. Jung, J. Kussmann, C. Ochsenfeld,
 S. T. Brown, A. T. B. Gilbert, L. V. Slipchenko,S. V. Levchenko,
 D. P. O'Neill, R. A. DiStasio Jr., R. C. Lochan, T. Wang,
 G. J. O. Beran, N. A. Besley, J. M. Herbert, C. Y. Lin,
 T. Van Voorhis, S. H. Chien, A. Sodt, R. P. Steele, 
 V. A. Rassolov, P. E. Maslen, P. P. Korambath, R. D. Adamson,
 B. Austin, J. Baker, E. F. C. Byrd, H. Dachsel, R. J. Doerksen,
 A. Dreuw, B. D. Dunietz, A. D. Dutoi, T. R. Furlani,
 S. R. Gwaltney, A. Heyden, S. Hirata, C.-P. Hsu, G. Kedziora,
 R. Z. Khaliullin, P. Klunzinger, A. M. Lee, M. S. Lee, W. Liang,
 I. Lotan, N. Nair, B. Peters, E. I. Proynov, P. A. Pieniazek, 
 Y. M. Rhee, J. Ritchie, E. Rosta, C. D. Sherrill, 
 A. C. Simmonett, J. E. Subotnik, H. L. Woodcock III,
 W. Zhang, A. T. Bell, A. K. Chakraborty, D. M. Chipman,
 F. J. Keil, A. Warshel, W. J. Hehre, H. F. Schaefer III,
 J. Kong, A. I. Krylov, P. M. W. Gill, M. Head-Gordon,
 Q-Chem, Version 3.1, Q-Chem, Inc., Pittsburgh, PA (2007).

 Additional authors for Version 3.1: 
 Z. Gan, Y. Zhao, N. E. Schultz, D. Truhlar, E. Epifanovsky and M. Oana.

 Additional authors for Version 3.2: 
 R. Baer, B. R. Brooks, D. Casanova, J.-D. Chai, C.-L. Cheng, 
 C. Cramer, D. Crittenden, A. Ghysels, G. Hawkins, E. G. Hohenstein, 
 C. Kelley, W. Kurlancheek, D. Liotard, E. Livshits, P. Manohar, 
 A. Marenich, D. Neuhauser, R. Olson, M. A. Rohrdanz, K. S. Thanthiriwatte, 
 A. J. W. Thom, V. Vanovschi, C. F. Williams, Q. Wu and Z.-Q. You. 


 Intel X86 Linux Version

 Q-chem begins on Wed Mar 26 11:03:11 2014  

 Parallel job on  1  processors
Processing $rem in /usr/local/qchem/config/preferences.

theFileMan(): MAXOPENFILES=974 MAX_SUB_FILE_NUM=16
Maximum size of a physical file is 2.0 GB, maximum size of a tmp-file is 32.0 GB


--------------------------------------------------------------
User input:
--------------------------------------------------------------

$molecule
1,2
C         -0.00013        0.00000        0.01487
Si        -0.00043        0.00000        1.87462
H          1.01782        0.00000       -0.37208
H         -0.50853       -0.88134       -0.37324
H         -0.50853        0.88134       -0.37324
H         -1.38712        0.00000        2.39962
H          0.69345       -1.20137        2.39767
H          0.69345        1.20137        2.39767
$end

$comment
positive
$end

$xc_functional
C PBE   1.00
X wPBE  1.00
$end

$rem
SYMMETRY_DECOMPOSITION	0
LRC_DFT                 true
exchange 		general
BASIS                   g3large
omega			360
mem_static              760
max_scf_cycles          200
scf_final_print         1
sym_ignore              true
$end

--------------------------------------------------------------
 Writing REM_CC_EA            8
 ----------------------------------------------------
       Standard Nuclear Orientation (Angstroms)
    I     Atom         X            Y            Z
 ----------------------------------------------------
    1      C      -0.000130     0.000000     0.014870
    2      Si     -0.000430     0.000000     1.874620
    3      H       1.017820     0.000000    -0.372080
    4      H      -0.508530    -0.881340    -0.373240
    5      H      -0.508530     0.881340    -0.373240
    6      H      -1.387120     0.000000     2.399620
    7      H       0.693450    -1.201370     2.397670
    8      H       0.693450     1.201370     2.397670
 ----------------------------------------------------
 Nuclear Repulsion Energy =    63.1402175305 hartrees
 There are       13 alpha and       12 beta electrons
 Requested basis set is G3large
 There are 65 shells and 168 basis functions

Total QAlloc Memory Limit   2000 MB
Mega-Array Size       743 MB
MEM_STATIC part       760 MB

                       Distance Matrix (Angstroms)
             C (  1)   Si(  2)   H (  3)   H (  4)   H (  5)   H (  6)
   Si(  2)  1.859750
   H (  3)  1.089014  2.466677
   H (  4)  1.088972  2.467347  1.762528
   H (  5)  1.088972  2.467347  1.762528  1.762680
   H (  6)  2.758763  1.482745  3.669613  3.039315  3.039315
   H (  7)  2.757187  1.482680  3.036449  3.037288  3.668839  2.402512
   H (  8)  2.757187  1.482680  3.036449  3.668839  3.037288  2.402512
             H (  7)
   H (  8)  2.402740
 
 A cutoff of  1.0D-08 yielded   2044 shell pairs
 There are  13820 function pairs ( 17231 Cartesian)
Evaluating contribution to one-electron hamiltonian from nuclear
 Smallest overlap matrix eigenvalue = 1.35E-04
 Multipole matrices computed through 2nd order

  Scale SEOQF with 1.000000e-01/1.000000e-01/1.000000e-01

 Standard Electronic Orientation quadrupole field applied
 Nucleus-field energy     =    -0.0000000067 hartrees
 Guess from superposition of atomic densities
 Warning:  Energy on first SCF cycle will be non-variational
 Long-range K will be added via erf
 Coulomb attenuation parameter = 0.36 bohr**(-1)
 An unrestricted Kohn-Sham SCF calculation will be
 performed using Pulay DIIS extrapolation
 Exchange:  wPBE + LR-HF      Correlation:  PBE
 Using SG-1 standard quadrature grid
 SCF converges when DIIS error is below 1.0E-05
 Requested basis set is G3large
 There are 65 shells and 168 basis functions
 A cutoff of  1.0D-08 yielded   2044 shell pairs
 There are  13820 function pairs ( 17231 Cartesian)
 Warning!  Inaccurate integrated density:
   Number of electrons =    25
   Numerical integral  =    25.999985127030
   Relative error      =     3.9999405081 %
 ---------------------------------------
  Cycle       Energy         DIIS Error
 ---------------------------------------
    1    -331.2412131806      2.76E-02
    2    -330.5823856035      3.28E-03
    3    -330.6266216038      2.17E-03
    4    -330.6436841923      3.69E-04
    5    -330.6445066993      7.25E-05
    6    -330.6446060414      2.62E-05
    7    -330.6446315916      1.04E-05
    8    -330.6446460896      8.33E-06 Convergence criterion met
 ---------------------------------------
 One-Electron    Energy =  -574.6637512920
 Total Coulomb   Energy =   208.9924045910
 Alpha Exchange  Energy =    -2.3989820942
 Beta  Exchange  Energy =    -2.2021800089
 DFT   Exchange  Energy =   -22.6671839391
 DFT Correlation Energy =    -0.8451708703
 Nuclear Repu.   Energy =    63.1402175238
 Nuclear Attr.   Energy =  -904.7300338930
 Kinetic         Energy =   330.0662826011
 <S^2> = 0.7655
 SCF time:  CPU 81.68 s  wall 83.17 s
 Final Alpha MO Eigenvalues
            1           2           3           4           5           6
    1 -65.8697133 -10.2849125  -5.5309801  -3.9411888  -3.9321448  -3.9306057
            7           8           9          10          11          12
    1  -1.0615432  -0.9444310  -0.8002428  -0.7492304  -0.7292458  -0.6982643
           13          14          15          16          17          18
    1  -0.6694358  -0.1275859  -0.1097659  -0.1074839  -0.1013814  -0.0713992
 Final Beta MO Eigenvalues
            1           2           3           4           5           6
    1 -65.8689500 -10.2843193  -5.5301016  -3.9377717  -3.9320768  -3.9303344
            7           8           9          10          11          12
    1  -1.0540866  -0.8889767  -0.7419604  -0.7276948  -0.6754032  -0.6657948
           13          14          15          16          17
    1  -0.4460911  -0.1218163  -0.0999505  -0.0965310  -0.0858442
 Analysis of SCF Wavefunction
 
 --------------------------------------------------------------
                    Orbital Energies (a.u.)
 --------------------------------------------------------------
 
 Alpha MOs
 -- Occupied --
-65.870 -10.285  -5.531  -3.941  -3.932  -3.931  -1.062  -0.944
 -0.800  -0.749  -0.729  -0.698  -0.669
 -- Virtual --
 -0.128  -0.110  -0.107  -0.101  -0.071  -0.065  -0.062  -0.037
 -0.029  -0.027  -0.022  -0.013   0.011   0.017   0.017   0.022
  0.047   0.055   0.058   0.060   0.103   0.106   0.152   0.169
  0.173   0.190   0.221   0.225   0.272   0.301   0.305   0.309
  0.316   0.355   0.367   0.389   0.407   0.417   0.443   0.483
  0.484   0.543   0.553   0.562   0.569   0.592   0.598   0.648
  0.668   0.682   0.716   0.735   0.766   0.848   0.856   0.887
  0.910   0.938   0.997   1.002   1.025   1.050   1.104   1.148
  1.161   1.166   1.168   1.188   1.198   1.272   1.283   1.328
  1.347   1.359   1.380   1.403   1.437   1.510   1.922   1.980
  1.989   2.006   2.047   2.053   2.159   2.375   2.383   2.479
  2.578   2.654   2.817   2.838   2.910   2.962   2.973   3.091
  3.097   3.185   3.189   3.215   3.400   3.401   3.490   3.494
  3.548   3.570   3.615   3.747   3.760   3.766   3.803   3.815
  3.870   3.896   3.958   3.971   4.047   4.095   4.098   4.226
  4.236   4.246   4.300   4.308   4.427   4.471   4.919   5.531
  5.539   6.032  11.157  11.168  11.507  17.285  17.370  17.469
 17.550  17.606  21.899  21.915  21.921  21.927  21.931  21.932
 21.958  23.901  27.602  27.859  27.861  40.730  40.745  40.968
 41.009  41.055 140.822
 
 Beta MOs
 -- Occupied --
-65.869 -10.284  -5.530  -3.938  -3.932  -3.930  -1.054  -0.889
 -0.742  -0.728  -0.675  -0.666
 -- Virtual --
 -0.446  -0.122  -0.100  -0.097  -0.086  -0.068  -0.064  -0.059
 -0.027  -0.025  -0.024  -0.020  -0.011   0.013   0.020   0.023
  0.035   0.048   0.060   0.060   0.061   0.107   0.110   0.167
  0.171   0.175   0.192   0.225   0.228   0.289   0.312   0.314
  0.317   0.318   0.369   0.372   0.392   0.421   0.422   0.447
  0.486   0.487   0.547   0.562   0.565   0.574   0.603   0.605
  0.673   0.683   0.684   0.719   0.745   0.777   0.858   0.860
  0.907   0.916   0.955   1.002   1.005   1.048   1.061   1.118
  1.158   1.170   1.173   1.185   1.196   1.200   1.281   1.285
  1.346   1.353   1.362   1.395   1.408   1.437   1.512   1.940
  1.988   2.002   2.006   2.060   2.062   2.174   2.382   2.385
  2.489   2.655   2.680   2.822   2.841   2.948   2.969   2.974
  3.097   3.100   3.189   3.191   3.218   3.403   3.404   3.496
  3.497   3.549   3.611   3.627   3.766   3.789   3.790   3.880
  3.892   3.908   3.945   3.977   3.982   4.081   4.105   4.106
  4.239   4.246   4.251   4.314   4.327   4.465   4.483   4.924
  5.538   5.542   6.039  11.164  11.169  11.507  17.287  17.372
 17.470  17.552  17.607  21.900  21.916  21.922  21.927  21.932
 21.932  21.958  23.902  27.603  27.862  27.862  40.730  40.747
 40.969  41.010  41.056 140.823
 --------------------------------------------------------------
 
          Ground-State Mulliken Net Atomic Charges

     Atom                 Charge (a.u.)    Spin (a.u.)
  --------------------------------------------------------
      1 C                    -0.194237       0.031604
      2 Si                    0.394278       0.122536
      3 H                     0.153780       0.021430
      4 H                     0.162787       0.042928
      5 H                     0.145799       0.003242
      6 H                     0.107113       0.257530
      7 H                     0.051573       0.028034
      8 H                     0.178905       0.492697
  --------------------------------------------------------
  Sum of atomic charges =     1.000000
  Sum of spin   charges =     1.000000

 -----------------------------------------------------------------
                    Cartesian Multipole Moments
 -----------------------------------------------------------------
    Charge (ESU x 10^10)
                 4.8032
    Dipole Moment (Debye)
         X       0.0117      Y       1.0792      Z       7.6417
       Tot       7.7176
    Quadrupole Moments (Debye-Ang)
        XX     -16.2102     XY       1.6700     YY     -16.1347
        XZ       0.0468     YZ       3.0568     ZZ      -1.1873
    Octapole Moments (Debye-Ang^2)
       XXX      -0.7182    XXY       0.7807    XYY       0.7764
       YYY       2.3531    XXZ     -18.7449    XYZ       3.6058
       YYZ     -18.5785    XZZ       0.0983    YZZ       7.3545
       ZZZ     -31.9759
    Hexadecapole Moments (Debye-Ang^3)
      XXXX     -35.6240   XXXY       2.2336   XXYY     -11.8178
      XYYY       2.6688   YYYY     -35.4383   XXXZ      -5.1418
      XXYZ       2.0717   XYYZ       5.2985   YYYZ       6.2392
      XXZZ     -45.9194   XYZZ       9.0012   YYZZ     -45.4962
      XZZZ       0.2341   YZZZ      19.2311   ZZZZ    -231.6487
 -----------------------------------------------------------------
 Total job time:  83.39s(wall), 81.85s(cpu) 
 Wed Mar 26 11:04:34 2014

        *************************************************************
        *                                                           *
        *  Thank you very much for using Q-Chem.  Have a nice day.  *
        *                                                           *
        *************************************************************


0 sent ACK to 0 
now end server 0 ... 
