Process 0 of 1 is on cl211.stfx.acenet.ca - thread support 1
initial socket setup ...start
initial socket setup ...done 
now start server 0 ... 

cmd = /usr/bin/ssh clhead /usr/local/qchem/bin/get_hostid 1297930369 > /globalscratch/itamblyn/bnl/g297_b3lyp_neut_g03Large_worked/g2g71056/omega800/qchem13491/lic.dat
                  Welcome to Q-Chem
     A Quantum Leap Into The Future Of Chemistry

 Y. Shao, L. Fusti-Molnar, Y. Jung, J. Kussmann, C. Ochsenfeld,
 S. T. Brown, A. T. B. Gilbert, L. V. Slipchenko,S. V. Levchenko,
 D. P. O'Neill, R. A. DiStasio Jr., R. C. Lochan, T. Wang,
 G. J. O. Beran, N. A. Besley, J. M. Herbert, C. Y. Lin,
 T. Van Voorhis, S. H. Chien, A. Sodt, R. P. Steele, 
 V. A. Rassolov, P. E. Maslen, P. P. Korambath, R. D. Adamson,
 B. Austin, J. Baker, E. F. C. Byrd, H. Dachsel, R. J. Doerksen,
 A. Dreuw, B. D. Dunietz, A. D. Dutoi, T. R. Furlani,
 S. R. Gwaltney, A. Heyden, S. Hirata, C.-P. Hsu, G. Kedziora,
 R. Z. Khaliullin, P. Klunzinger, A. M. Lee, M. S. Lee, W. Liang,
 I. Lotan, N. Nair, B. Peters, E. I. Proynov, P. A. Pieniazek, 
 Y. M. Rhee, J. Ritchie, E. Rosta, C. D. Sherrill, 
 A. C. Simmonett, J. E. Subotnik, H. L. Woodcock III,
 W. Zhang, A. T. Bell, A. K. Chakraborty, D. M. Chipman,
 F. J. Keil, A. Warshel, W. J. Hehre, H. F. Schaefer III,
 J. Kong, A. I. Krylov, P. M. W. Gill, M. Head-Gordon,
 Q-Chem, Version 3.1, Q-Chem, Inc., Pittsburgh, PA (2007).

 Additional authors for Version 3.1: 
 Z. Gan, Y. Zhao, N. E. Schultz, D. Truhlar, E. Epifanovsky and M. Oana.

 Additional authors for Version 3.2: 
 R. Baer, B. R. Brooks, D. Casanova, J.-D. Chai, C.-L. Cheng, 
 C. Cramer, D. Crittenden, A. Ghysels, G. Hawkins, E. G. Hohenstein, 
 C. Kelley, W. Kurlancheek, D. Liotard, E. Livshits, P. Manohar, 
 A. Marenich, D. Neuhauser, R. Olson, M. A. Rohrdanz, K. S. Thanthiriwatte, 
 A. J. W. Thom, V. Vanovschi, C. F. Williams, Q. Wu and Z.-Q. You. 


 Intel X86 Linux Version

 Q-chem begins on Tue Apr 12 21:28:27 2011  

 Parallel job on  1  processors
Processing $rem in /usr/local/qchem/config/preferences.

theFileMan(): MAXOPENFILES=974 MAX_SUB_FILE_NUM=16
Maximum size of a physical file is 2.0 GB, maximum size of a tmp-file is 32.0 GB


--------------------------------------------------------------
User input:
--------------------------------------------------------------

$molecule
-1,2
Al
X,1,1.
X,1,1.,2,90.
F,1,R2,2,ALPHA,3,0.,0
F,1,R2,2,ALPHA,3,120.,0
F,1,R2,2,ALPHA,3,-120.,0

 R2=1.63908394
 ALPHA=90.

$end

$comment
negative
$end

$xc_functional
   X HF 1.0
   X BNL 1.0
   C LYP 1.0
$end

$rem
SYMMETRY_DECOMPOSITION	0
exchange 		general
BASIS                   g3large
omega			800
separate_jk		true
mem_static              760
max_scf_cycles          200
scf_final_print         1
sym_ignore              true
$end

--------------------------------------------------------------
 Writing REM_CC_EA            4
 ----------------------------------------------------
       Standard Nuclear Orientation (Angstroms)
    I     Atom         X            Y            Z
 ----------------------------------------------------
    1      Al      0.000000     0.000000     0.000000
    2      F       1.639084     0.000000     0.000000
    3      F      -0.819542    -1.419488     0.000000
    4      F      -0.819542     1.419488     0.000000
 ----------------------------------------------------
 Nuclear Repulsion Energy =   158.6146393645 hartrees
 There are       21 alpha and       20 beta electrons
 Requested basis set is G3large
 There are 49 shells and 192 basis functions

Total QAlloc Memory Limit   2000 MB
Mega-Array Size       743 MB
MEM_STATIC part       760 MB

                       Distance Matrix (Angstroms)
             Al(  1)   F (  2)   F (  3)
   F (  2)  1.639084
   F (  3)  1.639084  2.838977
   F (  4)  1.639084  2.838977  2.838977
 
 A cutoff of  1.0D-08 yielded   1006 shell pairs
 There are  15883 function pairs ( 21463 Cartesian)
Evaluating contribution to one-electron hamiltonian from nuclear
 Smallest overlap matrix eigenvalue = 5.02E-04
 Multipole matrices computed through 2nd order

  Scale SEOQF with 1.000000e-01/1.000000e-01/1.000000e-01

 Standard Electronic Orientation quadrupole field applied
 Nucleus-field energy     =     0.0000000039 hartrees
 Guess from superposition of atomic densities
 Warning:  Energy on first SCF cycle will be non-variational
 An unrestricted hybrid HF-DFT SCF calculation will be
 performed using Pulay DIIS extrapolation
 Exchange:     1.0000 Hartree-Fock + 1.0000 BNL
 Correlation:  1.0000 LYP
 Using SG-1 standard quadrature grid
 SCF converges when DIIS error is below 1.0E-05
 Warning!  Inaccurate integrated density:
   Number of electrons =    41
   Numerical integral  =    40.000057820568
   Relative error      =    -2.4388833645 %
 ---------------------------------------
  Cycle       Energy         DIIS Error
 ---------------------------------------
    1    -539.1455145608      2.68E-02
    2    -539.1393176586      6.68E-03
    3    -539.2029701116      6.18E-03
    4    -539.2909349336      3.63E-04
    5    -539.2936134782      1.20E-04
    6    -539.2943581314      5.68E-05
    7    -539.2945588731      2.85E-05
    8    -539.2946028005      1.48E-05
    9    -539.2946101783      4.38E-06 Convergence criterion met
 ---------------------------------------
 One-Electron    Energy = -1080.3600335243
 Total Coulomb   Energy =   429.7650746771
 Alpha Exchange  Energy =    -7.5740363227
 Beta  Exchange  Energy =    -7.4550355771
 DFT   Exchange  Energy =   -30.7158543375
 DFT Correlation Energy =    -1.5693644622
 Nuclear Repu.   Energy =   158.6146393683
 Nuclear Attr.   Energy = -1618.0541626504
 Kinetic         Energy =   537.6941291262
 <S^2> = 0.7508
 SCF time:  CPU 95.16 s  wall 106.29 s
 Final Alpha MO Eigenvalues
            1           2           3           4           5           6
    1 -55.3857472 -24.2601361 -24.2601263 -24.2601030  -4.1916154  -2.7735207
            7           8           9          10          11          12
    1  -2.7702995  -2.7702819  -1.2466472  -1.2320648  -1.2320506  -0.5294445
           13          14          15          16          17          18
    1  -0.4881903  -0.4881747  -0.4632067  -0.4543011  -0.4542645  -0.4416735
           19          20          21          22          23          24
    1  -0.4416674  -0.4265884   0.0008918   0.1516009   0.1658054   0.1658061
           25          26
    1   0.2422045   0.2512415
 Final Beta MO Eigenvalues
            1           2           3           4           5           6
    1 -55.3850524 -24.2590175 -24.2590071 -24.2589897  -4.1904884  -2.7723540
            7           8           9          10          11          12
    1  -2.7696245  -2.7696060  -1.2427946  -1.2280149  -1.2280087  -0.5259313
           13          14          15          16          17          18
    1  -0.4848968  -0.4848870  -0.4606308  -0.4519704  -0.4519320  -0.4425741
           19          20          21          22          23          24
    1  -0.4425675  -0.4258618   0.1524589   0.1550939   0.1589977   0.1590154
           25
    1   0.2648398
 Analysis of SCF Wavefunction
 
 --------------------------------------------------------------
                    Orbital Energies (a.u.)
 --------------------------------------------------------------
 
 Alpha MOs
 -- Occupied --
-55.386 -24.260 -24.260 -24.260  -4.192  -2.774  -2.770  -2.770
 -1.247  -1.232  -1.232  -0.529  -0.488  -0.488  -0.463  -0.454
 -0.454  -0.442  -0.442  -0.427   0.001
 -- Virtual --
  0.152   0.166   0.166   0.242   0.251   0.313   0.313   0.355
  0.393   0.393   0.405   0.405   0.438   0.498   0.500   0.530
  0.530   0.533   0.533   0.554   0.562   0.563   0.563   0.638
  0.638   0.732   0.754   0.754   0.765   0.767   0.767   0.774
  0.774   0.876   0.928   0.928   1.019   1.071   1.165   1.165
  1.169   1.309   1.309   1.682   1.688   1.689   1.711   1.711
  1.750   1.872   1.877   1.878   1.913   1.974   1.974   1.979
  2.144   2.144   2.338   2.366   2.366   2.373   2.470   2.470
  2.507   2.511   2.511   2.652   2.739   2.739   2.852   2.852
  2.905   3.140   3.267   3.267   3.460   3.463   3.471   3.517
  3.642   3.642   5.524   6.588   6.588   6.640   6.658   6.658
  6.745   6.755   6.755   6.963   7.062   7.081   7.081   7.086
  7.086   7.089   7.090   7.095   7.095   7.102   7.103   7.104
  7.171   7.173   7.176   7.180   7.180   7.232   7.232   7.420
  7.513   8.384   9.019   9.019   9.485   9.526   9.526   9.562
  9.562   9.602   9.734   9.744   9.744   9.783   9.783   9.982
 10.430  10.508  10.508  13.582  13.668  13.668  13.725  13.877
 19.814  19.833  19.833  19.839  19.841  19.879  19.929  50.465
 50.477  50.498  50.508  50.539  50.539  50.563  50.589  50.601
 50.629  50.629  50.670  50.781  50.809  50.844  56.142  56.142
 56.173  56.195  56.195  56.249  56.296  56.296  56.398  67.391
 67.391  67.419 121.674
 
 Beta MOs
 -- Occupied --
-55.385 -24.259 -24.259 -24.259  -4.190  -2.772  -2.770  -2.770
 -1.243  -1.228  -1.228  -0.526  -0.485  -0.485  -0.461  -0.452
 -0.452  -0.443  -0.443  -0.426
 -- Virtual --
  0.152   0.155   0.159   0.159   0.265   0.270   0.309   0.309
  0.344   0.383   0.383   0.394   0.395   0.432   0.488   0.491
  0.521   0.521   0.523   0.523   0.543   0.556   0.556   0.561
  0.627   0.628   0.724   0.739   0.739   0.747   0.752   0.753
  0.768   0.768   0.868   0.924   0.924   1.010   1.059   1.160
  1.160   1.164   1.309   1.309   1.680   1.687   1.687   1.708
  1.708   1.746   1.869   1.875   1.875   1.911   1.970   1.970
  1.972   2.137   2.137   2.336   2.364   2.364   2.373   2.470
  2.470   2.506   2.511   2.511   2.652   2.739   2.739   2.852
  2.852   2.902   3.138   3.265   3.265   3.460   3.463   3.471
  3.517   3.640   3.641   5.525   6.588   6.588   6.639   6.659
  6.659   6.745   6.756   6.756   6.964   7.063   7.081   7.082
  7.086   7.087   7.089   7.091   7.095   7.096   7.103   7.104
  7.105   7.172   7.175   7.178   7.181   7.182   7.233   7.234
  7.421   7.515   8.384   9.020   9.020   9.486   9.527   9.527
  9.563   9.563   9.603   9.736   9.747   9.747   9.785   9.785
  9.984  10.431  10.510  10.510  13.582  13.669  13.669  13.726
 13.877  19.814  19.833  19.834  19.839  19.841  19.879  19.930
 50.465  50.478  50.499  50.509  50.540  50.540  50.565  50.591
 50.602  50.631  50.631  50.672  50.783  50.810  50.846  56.142
 56.142  56.173  56.196  56.196  56.250  56.297  56.297  56.400
 67.393  67.393  67.420 121.675
 --------------------------------------------------------------
 
          Ground-State Mulliken Net Atomic Charges

     Atom                 Charge (a.u.)    Spin (a.u.)
  --------------------------------------------------------
      1 Al                    0.707400       0.286976
      2 F                    -0.569399       0.238074
      3 F                    -0.568966       0.237402
      4 F                    -0.569034       0.237548
  --------------------------------------------------------
  Sum of atomic charges =    -1.000000
  Sum of spin   charges =     1.000000

 -----------------------------------------------------------------
                    Cartesian Multipole Moments
 -----------------------------------------------------------------
    Charge (ESU x 10^10)
                -4.8032
    Dipole Moment (Debye)
         X      -0.0017      Y      -0.0009      Z       0.0089
       Tot       0.0091
    Quadrupole Moments (Debye-Ang)
        XX     -42.3688     XY      -0.0001     YY     -42.3715
        XZ       0.0001     YZ       0.0002     ZZ     -38.1782
    Octapole Moments (Debye-Ang^2)
       XXX      -7.5319    XXY      -0.0035    XYY       7.5102
       YYY      -0.0105    XXZ       0.0186    XYZ       0.0000
       YYZ       0.0186    XZZ      -0.0068    YZZ      -0.0040
       ZZZ       0.0735
    Hexadecapole Moments (Debye-Ang^3)
      XXXX    -245.0686   XXXY      -0.0007   XXYY     -81.6981
      XYYY      -0.0008   YYYY    -245.0982   XXXZ      -0.0013
      XXYZ       0.0003   XYYZ       0.0018   YYYZ       0.0008
      XXZZ     -62.8381   XYZZ      -0.0002   YYZZ     -62.8440
      XZZZ       0.0004   YZZZ       0.0010   ZZZZ    -151.7001
 -----------------------------------------------------------------
 Total job time:  107.51s(wall), 95.40s(cpu) 
 Tue Apr 12 21:30:14 2011

        *************************************************************
        *                                                           *
        *  Thank you very much for using Q-Chem.  Have a nice day.  *
        *                                                           *
        *************************************************************


0 sent ACK to 0 
now end server 0 ... 
 
**********************************************************************
Job 2 of 3 
**********************************************************************
 
Process 0 of 1 is on cl211.stfx.acenet.ca - thread support 1
initial socket setup ...start
initial socket setup ...done 
now start server 0 ... 

cmd = /usr/bin/ssh clhead /usr/local/qchem/bin/get_hostid 51187062 > /globalscratch/itamblyn/bnl/g297_b3lyp_neut_g03Large_worked/g2g71056/omega800/qchem13491/lic.dat
                  Welcome to Q-Chem
     A Quantum Leap Into The Future Of Chemistry

 Y. Shao, L. Fusti-Molnar, Y. Jung, J. Kussmann, C. Ochsenfeld,
 S. T. Brown, A. T. B. Gilbert, L. V. Slipchenko,S. V. Levchenko,
 D. P. O'Neill, R. A. DiStasio Jr., R. C. Lochan, T. Wang,
 G. J. O. Beran, N. A. Besley, J. M. Herbert, C. Y. Lin,
 T. Van Voorhis, S. H. Chien, A. Sodt, R. P. Steele, 
 V. A. Rassolov, P. E. Maslen, P. P. Korambath, R. D. Adamson,
 B. Austin, J. Baker, E. F. C. Byrd, H. Dachsel, R. J. Doerksen,
 A. Dreuw, B. D. Dunietz, A. D. Dutoi, T. R. Furlani,
 S. R. Gwaltney, A. Heyden, S. Hirata, C.-P. Hsu, G. Kedziora,
 R. Z. Khaliullin, P. Klunzinger, A. M. Lee, M. S. Lee, W. Liang,
 I. Lotan, N. Nair, B. Peters, E. I. Proynov, P. A. Pieniazek, 
 Y. M. Rhee, J. Ritchie, E. Rosta, C. D. Sherrill, 
 A. C. Simmonett, J. E. Subotnik, H. L. Woodcock III,
 W. Zhang, A. T. Bell, A. K. Chakraborty, D. M. Chipman,
 F. J. Keil, A. Warshel, W. J. Hehre, H. F. Schaefer III,
 J. Kong, A. I. Krylov, P. M. W. Gill, M. Head-Gordon,
 Q-Chem, Version 3.1, Q-Chem, Inc., Pittsburgh, PA (2007).

 Additional authors for Version 3.1: 
 Z. Gan, Y. Zhao, N. E. Schultz, D. Truhlar, E. Epifanovsky and M. Oana.

 Additional authors for Version 3.2: 
 R. Baer, B. R. Brooks, D. Casanova, J.-D. Chai, C.-L. Cheng, 
 C. Cramer, D. Crittenden, A. Ghysels, G. Hawkins, E. G. Hohenstein, 
 C. Kelley, W. Kurlancheek, D. Liotard, E. Livshits, P. Manohar, 
 A. Marenich, D. Neuhauser, R. Olson, M. A. Rohrdanz, K. S. Thanthiriwatte, 
 A. J. W. Thom, V. Vanovschi, C. F. Williams, Q. Wu and Z.-Q. You. 


 Intel X86 Linux Version

 Q-chem begins on Tue Apr 12 21:30:17 2011  

 Parallel job on  1  processors
Processing $rem in /usr/local/qchem/config/preferences.

theFileMan(): MAXOPENFILES=974 MAX_SUB_FILE_NUM=16
Maximum size of a physical file is 2.0 GB, maximum size of a tmp-file is 32.0 GB


--------------------------------------------------------------
User input:
--------------------------------------------------------------

$molecule
0,1
Al
X,1,1.
X,1,1.,2,90.
F,1,R2,2,ALPHA,3,0.,0
F,1,R2,2,ALPHA,3,120.,0
F,1,R2,2,ALPHA,3,-120.,0

 R2=1.63908394
 ALPHA=90.

$end

$comment
neutral
$end

$xc_functional
   X HF 1.0
   X BNL 1.0
   C LYP 1.0
$end

$rem
SYMMETRY_DECOMPOSITION	0
exchange 		general
BASIS                   g3large
omega			800
separate_jk		true
mem_static              760
max_scf_cycles          200
scf_final_print         1
sym_ignore              true
$end

--------------------------------------------------------------
 Writing REM_CC_EA            4
 ----------------------------------------------------
       Standard Nuclear Orientation (Angstroms)
    I     Atom         X            Y            Z
 ----------------------------------------------------
    1      Al      0.000000     0.000000     0.000000
    2      F       1.639084     0.000000     0.000000
    3      F      -0.819542    -1.419488     0.000000
    4      F      -0.819542     1.419488     0.000000
 ----------------------------------------------------
 Nuclear Repulsion Energy =   158.6146393645 hartrees
 There are       20 alpha and       20 beta electrons
 Requested basis set is G3large
 There are 49 shells and 192 basis functions

Total QAlloc Memory Limit   2000 MB
Mega-Array Size       743 MB
MEM_STATIC part       760 MB

                       Distance Matrix (Angstroms)
             Al(  1)   F (  2)   F (  3)
   F (  2)  1.639084
   F (  3)  1.639084  2.838977
   F (  4)  1.639084  2.838977  2.838977
 
 A cutoff of  1.0D-08 yielded   1006 shell pairs
 There are  15883 function pairs ( 21463 Cartesian)
Evaluating contribution to one-electron hamiltonian from nuclear
 Smallest overlap matrix eigenvalue = 5.02E-04
 Multipole matrices computed through 2nd order

  Scale SEOQF with 1.000000e-01/1.000000e-01/1.000000e-01

 Standard Electronic Orientation quadrupole field applied
 Nucleus-field energy     =     0.0000000039 hartrees
 Guess from superposition of atomic densities
 Warning:  Energy on first SCF cycle will be non-variational
 A restricted hybrid HF-DFT SCF calculation will be
 performed using Pulay DIIS extrapolation
 Exchange:     1.0000 Hartree-Fock + 1.0000 BNL
 Correlation:  1.0000 LYP
 Using SG-1 standard quadrature grid
 SCF converges when DIIS error is below 1.0E-05
 ---------------------------------------
  Cycle       Energy         DIIS Error
 ---------------------------------------
    1    -539.1455145608      2.68E-02
    2    -539.1799939815      6.14E-03
    3    -539.2309479646      5.38E-03
    4    -539.2962398165      3.04E-04
    5    -539.2969225769      8.66E-05
    6    -539.2970071310      2.72E-05
    7    -539.2970130809      1.29E-05
    8    -539.2970132628      3.27E-06 Convergence criterion met
 ---------------------------------------
 One-Electron    Energy = -1072.0151738215
 Total Coulomb   Energy =   421.2752056752
 Alpha Exchange  Energy =    -7.4611969476
 Beta  Exchange  Energy =    -7.4611969476
 DFT   Exchange  Energy =   -30.6955892141
 DFT Correlation Energy =    -1.5537013754
 Nuclear Repu.   Energy =   158.6146393683
 Nuclear Attr.   Energy = -1609.4481853220
 Kinetic         Energy =   537.4330115004
 SCF time:  CPU 69.44 s  wall 78.94 s
 Final Alpha MO Eigenvalues
            1           2           3           4           5           6
    1 -55.6181599 -24.4633523 -24.4633354 -24.4633004  -4.4235799  -3.0075086
            7           8           9          10          11          12
    1  -3.0015183  -3.0014999  -1.4472291  -1.4316463  -1.4316210  -0.7283255
           13          14          15          16          17          18
    1  -0.6857031  -0.6856824  -0.6633297  -0.6522772  -0.6522521  -0.6438058
           19          20          21          22          23          24
    1  -0.6437859  -0.6257795  -0.0003275   0.0323755   0.0541763   0.0541850
           25
    1   0.0967711
 Analysis of SCF Wavefunction
 
 --------------------------------------------------------------
                    Orbital Energies (a.u.)
 --------------------------------------------------------------
 
 Alpha MOs
 -- Occupied --
-55.618 -24.463 -24.463 -24.463  -4.424  -3.008  -3.002  -3.001
 -1.447  -1.432  -1.432  -0.728  -0.686  -0.686  -0.663  -0.652
 -0.652  -0.644  -0.644  -0.626
 -- Virtual --
  0.000   0.032   0.054   0.054   0.097   0.103   0.167   0.167
  0.194   0.222   0.222   0.237   0.237   0.259   0.342   0.346
  0.352   0.352   0.367   0.367   0.373   0.389   0.389   0.389
  0.473   0.473   0.541   0.565   0.565   0.567   0.574   0.574
  0.598   0.598   0.692   0.708   0.708   0.832   0.855   0.953
  0.958   0.959   1.098   1.098   1.500   1.505   1.505   1.518
  1.518   1.554   1.681   1.690   1.690   1.706   1.757   1.757
  1.757   1.922   1.922   2.135   2.171   2.171   2.175   2.269
  2.269   2.305   2.311   2.311   2.448   2.535   2.535   2.637
  2.637   2.696   2.905   3.046   3.046   3.243   3.246   3.268
  3.311   3.437   3.437   5.309   6.388   6.388   6.440   6.458
  6.458   6.547   6.556   6.556   6.762   6.862   6.881   6.882
  6.887   6.887   6.890   6.891   6.895   6.896   6.902   6.903
  6.903   6.968   6.972   6.975   6.979   6.980   7.030   7.031
  7.218   7.307   8.153   8.796   8.796   9.285   9.326   9.326
  9.362   9.362   9.402   9.532   9.544   9.544   9.582   9.582
  9.782  10.229  10.303  10.304  13.348  13.435  13.436  13.495
 13.646  19.580  19.599  19.600  19.606  19.608  19.648  19.699
 50.263  50.275  50.296  50.306  50.337  50.337  50.361  50.387
 50.398  50.427  50.427  50.468  50.579  50.606  50.641  55.939
 55.939  55.970  55.992  55.993  56.047  56.093  56.093  56.195
 67.188  67.188  67.216 121.442
 --------------------------------------------------------------
 
          Ground-State Mulliken Net Atomic Charges

     Atom                 Charge (a.u.)
  ----------------------------------------
      1 Al                    0.790952
      2 F                    -0.263500
      3 F                    -0.263728
      4 F                    -0.263724
  ----------------------------------------
  Sum of atomic charges =     0.000000

 -----------------------------------------------------------------
                    Cartesian Multipole Moments
 -----------------------------------------------------------------
    Charge (ESU x 10^10)
                 0.0000
    Dipole Moment (Debye)
         X       0.0009      Y       0.0000      Z       0.0000
       Tot       0.0009
    Quadrupole Moments (Debye-Ang)
        XX     -31.4640     XY       0.0001     YY     -31.4643
        XZ       0.0000     YZ       0.0000     ZZ     -20.8778
    Octapole Moments (Debye-Ang^2)
       XXX      -6.9229    XXY       0.0000    XYY       6.9248
       YYY      -0.0002    XXZ       0.0000    XYZ       0.0000
       YYZ       0.0000    XZZ       0.0000    YZZ      -0.0001
       ZZZ       0.0000
    Hexadecapole Moments (Debye-Ang^3)
      XXXX    -163.1567   XXXY       0.0007   XXYY     -54.3881
      XYYY       0.0005   YYYY    -163.1601   XXXZ       0.0001
      XXYZ       0.0000   XYYZ       0.0000   YYYZ       0.0001
      XXZZ     -27.6464   XYZZ       0.0002   YYZZ     -27.6463
      XZZZ       0.0001   YZZZ       0.0001   ZZZZ     -15.4333
 -----------------------------------------------------------------
 Total job time:  80.28s(wall), 69.68s(cpu) 
 Tue Apr 12 21:31:37 2011

        *************************************************************
        *                                                           *
        *  Thank you very much for using Q-Chem.  Have a nice day.  *
        *                                                           *
        *************************************************************


0 sent ACK to 0 
now end server 0 ... 
 
**********************************************************************
Job 3 of 3 
**********************************************************************
 
Process 0 of 1 is on cl211.stfx.acenet.ca - thread support 1
initial socket setup ...start
initial socket setup ...done 
now start server 0 ... 

cmd = /usr/bin/ssh clhead /usr/local/qchem/bin/get_hostid 283449966 > /globalscratch/itamblyn/bnl/g297_b3lyp_neut_g03Large_worked/g2g71056/omega800/qchem13491/lic.dat
                  Welcome to Q-Chem
     A Quantum Leap Into The Future Of Chemistry

 Y. Shao, L. Fusti-Molnar, Y. Jung, J. Kussmann, C. Ochsenfeld,
 S. T. Brown, A. T. B. Gilbert, L. V. Slipchenko,S. V. Levchenko,
 D. P. O'Neill, R. A. DiStasio Jr., R. C. Lochan, T. Wang,
 G. J. O. Beran, N. A. Besley, J. M. Herbert, C. Y. Lin,
 T. Van Voorhis, S. H. Chien, A. Sodt, R. P. Steele, 
 V. A. Rassolov, P. E. Maslen, P. P. Korambath, R. D. Adamson,
 B. Austin, J. Baker, E. F. C. Byrd, H. Dachsel, R. J. Doerksen,
 A. Dreuw, B. D. Dunietz, A. D. Dutoi, T. R. Furlani,
 S. R. Gwaltney, A. Heyden, S. Hirata, C.-P. Hsu, G. Kedziora,
 R. Z. Khaliullin, P. Klunzinger, A. M. Lee, M. S. Lee, W. Liang,
 I. Lotan, N. Nair, B. Peters, E. I. Proynov, P. A. Pieniazek, 
 Y. M. Rhee, J. Ritchie, E. Rosta, C. D. Sherrill, 
 A. C. Simmonett, J. E. Subotnik, H. L. Woodcock III,
 W. Zhang, A. T. Bell, A. K. Chakraborty, D. M. Chipman,
 F. J. Keil, A. Warshel, W. J. Hehre, H. F. Schaefer III,
 J. Kong, A. I. Krylov, P. M. W. Gill, M. Head-Gordon,
 Q-Chem, Version 3.1, Q-Chem, Inc., Pittsburgh, PA (2007).

 Additional authors for Version 3.1: 
 Z. Gan, Y. Zhao, N. E. Schultz, D. Truhlar, E. Epifanovsky and M. Oana.

 Additional authors for Version 3.2: 
 R. Baer, B. R. Brooks, D. Casanova, J.-D. Chai, C.-L. Cheng, 
 C. Cramer, D. Crittenden, A. Ghysels, G. Hawkins, E. G. Hohenstein, 
 C. Kelley, W. Kurlancheek, D. Liotard, E. Livshits, P. Manohar, 
 A. Marenich, D. Neuhauser, R. Olson, M. A. Rohrdanz, K. S. Thanthiriwatte, 
 A. J. W. Thom, V. Vanovschi, C. F. Williams, Q. Wu and Z.-Q. You. 


 Intel X86 Linux Version

 Q-chem begins on Tue Apr 12 21:31:40 2011  

 Parallel job on  1  processors
Processing $rem in /usr/local/qchem/config/preferences.

theFileMan(): MAXOPENFILES=974 MAX_SUB_FILE_NUM=16
Maximum size of a physical file is 2.0 GB, maximum size of a tmp-file is 32.0 GB


--------------------------------------------------------------
User input:
--------------------------------------------------------------

$molecule
1,2
Al
X,1,1.
X,1,1.,2,90.
F,1,R2,2,ALPHA,3,0.,0
F,1,R2,2,ALPHA,3,120.,0
F,1,R2,2,ALPHA,3,-120.,0

 R2=1.63908394
 ALPHA=90.

$end

$comment
positive
$end

$xc_functional
   X HF 1.0
   X BNL 1.0
   C LYP 1.0
$end

$rem
SYMMETRY_DECOMPOSITION	0
exchange 		general
BASIS                   g3large
omega			800
separate_jk		true
mem_static              760
max_scf_cycles          200
scf_final_print         1
sym_ignore              true
$end

--------------------------------------------------------------
 Writing REM_CC_EA            4
 ----------------------------------------------------
       Standard Nuclear Orientation (Angstroms)
    I     Atom         X            Y            Z
 ----------------------------------------------------
    1      Al      0.000000     0.000000     0.000000
    2      F       1.639084     0.000000     0.000000
    3      F      -0.819542    -1.419488     0.000000
    4      F      -0.819542     1.419488     0.000000
 ----------------------------------------------------
 Nuclear Repulsion Energy =   158.6146393645 hartrees
 There are       20 alpha and       19 beta electrons
 Requested basis set is G3large
 There are 49 shells and 192 basis functions

Total QAlloc Memory Limit   2000 MB
Mega-Array Size       743 MB
MEM_STATIC part       760 MB

                       Distance Matrix (Angstroms)
             Al(  1)   F (  2)   F (  3)
   F (  2)  1.639084
   F (  3)  1.639084  2.838977
   F (  4)  1.639084  2.838977  2.838977
 
 A cutoff of  1.0D-08 yielded   1006 shell pairs
 There are  15883 function pairs ( 21463 Cartesian)
Evaluating contribution to one-electron hamiltonian from nuclear
 Smallest overlap matrix eigenvalue = 5.02E-04
 Multipole matrices computed through 2nd order

  Scale SEOQF with 1.000000e-01/1.000000e-01/1.000000e-01

 Standard Electronic Orientation quadrupole field applied
 Nucleus-field energy     =     0.0000000039 hartrees
 Guess from superposition of atomic densities
 Warning:  Energy on first SCF cycle will be non-variational
 An unrestricted hybrid HF-DFT SCF calculation will be
 performed using Pulay DIIS extrapolation
 Exchange:     1.0000 Hartree-Fock + 1.0000 BNL
 Correlation:  1.0000 LYP
 Using SG-1 standard quadrature grid
 SCF converges when DIIS error is below 1.0E-05
 Warning!  Inaccurate integrated density:
   Number of electrons =    39
   Numerical integral  =    40.000057820568
   Relative error      =     2.5642508220 %
 ---------------------------------------
  Cycle       Energy         DIIS Error
 ---------------------------------------
    1    -539.1455145608      2.68E-02
    2    -538.5476755883      6.18E-03
    3    -538.5527135787      7.16E-03
    4    -538.6913796571      7.75E-04
    5    -538.6947834282      2.92E-04
    6    -538.6958415529      1.73E-04
    7    -538.6964280127      9.21E-05
    8    -538.6969067387      6.72E-05
    9    -538.6972473266      5.05E-05
   10    -538.6975443484      3.73E-05
   11    -538.6977432156      2.88E-05
   12    -538.6979231067      2.02E-05
   13    -538.6980257376      1.36E-05
   14    -538.6980543883      8.42E-06 Convergence criterion met
 ---------------------------------------
 One-Electron    Energy = -1059.4535689315
 Total Coulomb   Energy =   408.8712439829
 Alpha Exchange  Energy =    -7.5225672490
 Beta  Exchange  Energy =    -7.1189872093
 DFT   Exchange  Energy =   -30.5779031376
 DFT Correlation Energy =    -1.5109112121
 Nuclear Repu.   Energy =   158.6146393683
 Nuclear Attr.   Energy = -1596.5008256125
 Kinetic         Energy =   537.0472566810
 <S^2> = 0.7534
 SCF time:  CPU 146.72 s  wall 165.78 s
 Final Alpha MO Eigenvalues
            1           2           3           4           5           6
    1 -55.9122988 -25.0643024 -24.6883840 -24.6881924  -4.7172480  -3.2992044
            7           8           9          10          11          12
    1  -3.2988068  -3.2924374  -1.9947675  -1.6614119  -1.6507553  -1.2631284
           13          14          15          16          17          18
    1  -1.2189646  -1.1767154  -0.9285725  -0.8956393  -0.8760934  -0.8708494
           19          20          21          22          23          24
    1  -0.8573865  -0.8528776  -0.2324670  -0.1777305  -0.1073394  -0.1039016
           25
    1  -0.0616808
 Final Beta MO Eigenvalues
            1           2           3           4           5           6
    1 -55.9124919 -25.0326263 -24.6869963 -24.6868180  -4.7174692  -3.2993722
            7           8           9          10          11          12
    1  -3.2990482  -3.2927068  -1.8937408  -1.6576779  -1.6469631  -1.1829313
           13          14          15          16          17          18
    1  -1.1396508  -0.9258259  -0.8916124  -0.8693641  -0.8606671  -0.8557824
           19          20          21          22          23          24
    1  -0.8441938  -0.5671953  -0.2288209  -0.1755733  -0.1027222  -0.0955145
 Analysis of SCF Wavefunction
 
 --------------------------------------------------------------
                    Orbital Energies (a.u.)
 --------------------------------------------------------------
 
 Alpha MOs
 -- Occupied --
-55.912 -25.064 -24.688 -24.688  -4.717  -3.299  -3.299  -3.292
 -1.995  -1.661  -1.651  -1.263  -1.219  -1.177  -0.929  -0.896
 -0.876  -0.871  -0.857  -0.853
 -- Virtual --
 -0.232  -0.178  -0.107  -0.104  -0.062  -0.060  -0.023  -0.012
  0.008   0.014   0.017   0.036   0.057   0.081   0.111   0.122
  0.133   0.151   0.152   0.171   0.198   0.203   0.212   0.222
  0.277   0.299   0.309   0.347   0.353   0.359   0.364   0.366
  0.375   0.413   0.429   0.454   0.490   0.594   0.621   0.640
  0.700   0.720   0.818   0.832   1.125   1.136   1.199   1.311
  1.318   1.340   1.366   1.399   1.438   1.472   1.486   1.490
  1.513   1.611   1.672   1.717   1.759   1.813   1.922   1.965
  2.008   2.028   2.062   2.073   2.175   2.180   2.290   2.304
  2.377   2.437   2.626   2.739   2.796   2.873   2.928   2.996
  3.022   3.156   3.197   5.016   5.871   5.914   6.043   6.173
  6.209   6.276   6.282   6.311   6.319   6.333   6.335   6.349
  6.445   6.468   6.494   6.576   6.662   6.673   6.673   6.674
  6.675   6.682   6.699   6.700   6.755   6.757   6.776   6.808
  6.945   7.014   7.863   8.458   8.524   8.722   8.742   8.969
  9.019   9.094   9.130   9.150   9.158   9.317   9.331   9.362
  9.505   9.761  10.036  10.072  13.057  13.141  13.146  13.201
 13.353  19.287  19.305  19.309  19.313  19.315  19.353  19.404
 49.651  49.695  49.754  49.834  50.013  50.044  50.064  50.092
 50.114  50.155  50.184  50.202  50.226  50.354  50.400  55.364
 55.392  55.514  55.716  55.737  55.792  55.802  55.858  55.940
 66.598  66.964  66.983 121.148
 
 Beta MOs
 -- Occupied --
-55.912 -25.033 -24.687 -24.687  -4.717  -3.299  -3.299  -3.293
 -1.894  -1.658  -1.647  -1.183  -1.140  -0.926  -0.892  -0.869
 -0.861  -0.856  -0.844
 -- Virtual --
 -0.567  -0.229  -0.176  -0.103  -0.096  -0.060  -0.060  -0.012
 -0.011   0.010   0.016   0.018   0.038   0.061   0.081   0.116
  0.125   0.135   0.153   0.157   0.171   0.199   0.204   0.213
  0.222   0.280   0.300   0.311   0.349   0.356   0.360   0.365
  0.367   0.376   0.416   0.431   0.454   0.490   0.602   0.622
  0.648   0.701   0.721   0.820   0.836   1.139   1.148   1.239
  1.313   1.319   1.341   1.378   1.414   1.441   1.475   1.491
  1.493   1.514   1.619   1.673   1.760   1.814   1.845   1.933
  1.967   2.024   2.035   2.065   2.076   2.180   2.203   2.296
  2.306   2.379   2.439   2.626   2.741   2.797   2.890   2.939
  3.000   3.026   3.160   3.199   5.020   5.907   6.013   6.071
  6.175   6.211   6.280   6.299   6.328   6.383   6.390   6.394
  6.400   6.458   6.510   6.522   6.588   6.664   6.675   6.676
  6.677   6.678   6.686   6.701   6.702   6.757   6.759   6.778
  6.809   6.952   7.021   7.864   8.469   8.525   8.823   8.843
  9.048   9.050   9.100   9.148   9.155   9.163   9.321   9.333
  9.364   9.515   9.802  10.039  10.074  13.057  13.141  13.146
 13.201  13.353  19.287  19.305  19.309  19.313  19.315  19.353
 19.404  49.735  49.779  49.835  49.865  50.048  50.060  50.069
 50.095  50.117  50.161  50.186  50.204  50.231  50.357  50.403
 55.387  55.454  55.536  55.717  55.738  55.795  55.804  55.860
 55.942  66.635  66.966  66.984 121.148
 --------------------------------------------------------------
 
          Ground-State Mulliken Net Atomic Charges

     Atom                 Charge (a.u.)    Spin (a.u.)
  --------------------------------------------------------
      1 Al                    0.735203      -0.045932
      2 F                    -0.119429       0.041513
      3 F                    -0.119849       0.041516
      4 F                     0.504075       0.962902
  --------------------------------------------------------
  Sum of atomic charges =     1.000000
  Sum of spin   charges =     1.000000

 -----------------------------------------------------------------
                    Cartesian Multipole Moments
 -----------------------------------------------------------------
    Charge (ESU x 10^10)
                 4.8032
    Dipole Moment (Debye)
         X      -2.7272      Y       4.7265      Z       0.0000
       Tot       5.4569
    Quadrupole Moments (Debye-Ang)
        XX     -24.9062     XY      -3.8280     YY     -20.4845
        XZ       0.0513     YZ       0.0298     ZZ     -19.1459
    Octapole Moments (Debye-Ang^2)
       XXX      -9.4402    XXY       4.2218    XYY      -0.3076
       YYY      12.6755    XXZ      -0.0958    XYZ       0.0551
       YYZ       0.0959    XZZ      -0.8211    YZZ       1.4232
       ZZZ      -0.0001
    Hexadecapole Moments (Debye-Ang^3)
      XXXX    -141.3876   XXXY      -7.5444   XXYY     -43.6629
      XYYY      -8.5282   YYYY    -122.8157   XXXZ       0.1208
      XXYZ      -0.1033   XYYZ       0.0400   YYYZ       0.1973
      XXZZ     -25.1902   XYZZ      -1.1910   YYZZ     -23.8153
      XZZZ       0.0171   YZZZ       0.0100   ZZZZ     -12.8118
 -----------------------------------------------------------------
 Total job time:  167.18s(wall), 146.98s(cpu) 
 Tue Apr 12 21:34:27 2011

        *************************************************************
        *                                                           *
        *  Thank you very much for using Q-Chem.  Have a nice day.  *
        *                                                           *
        *************************************************************


0 sent ACK to 0 
now end server 0 ... 
