Process 0 of 1 is on cl189.stfx.acenet.ca - thread support 1
initial socket setup ...start
initial socket setup ...done 
now start server 0 ... 

cmd = /usr/bin/ssh clhead /usr/local/qchem/bin/get_hostid 1990515941 > /scratch/tmp/6027601.1.medium.q/qchem17014/lic.dat
                  Welcome to Q-Chem
     A Quantum Leap Into The Future Of Chemistry

 Y. Shao, L. Fusti-Molnar, Y. Jung, J. Kussmann, C. Ochsenfeld,
 S. T. Brown, A. T. B. Gilbert, L. V. Slipchenko,S. V. Levchenko,
 D. P. O'Neill, R. A. DiStasio Jr., R. C. Lochan, T. Wang,
 G. J. O. Beran, N. A. Besley, J. M. Herbert, C. Y. Lin,
 T. Van Voorhis, S. H. Chien, A. Sodt, R. P. Steele, 
 V. A. Rassolov, P. E. Maslen, P. P. Korambath, R. D. Adamson,
 B. Austin, J. Baker, E. F. C. Byrd, H. Dachsel, R. J. Doerksen,
 A. Dreuw, B. D. Dunietz, A. D. Dutoi, T. R. Furlani,
 S. R. Gwaltney, A. Heyden, S. Hirata, C.-P. Hsu, G. Kedziora,
 R. Z. Khaliullin, P. Klunzinger, A. M. Lee, M. S. Lee, W. Liang,
 I. Lotan, N. Nair, B. Peters, E. I. Proynov, P. A. Pieniazek, 
 Y. M. Rhee, J. Ritchie, E. Rosta, C. D. Sherrill, 
 A. C. Simmonett, J. E. Subotnik, H. L. Woodcock III,
 W. Zhang, A. T. Bell, A. K. Chakraborty, D. M. Chipman,
 F. J. Keil, A. Warshel, W. J. Hehre, H. F. Schaefer III,
 J. Kong, A. I. Krylov, P. M. W. Gill, M. Head-Gordon,
 Q-Chem, Version 3.1, Q-Chem, Inc., Pittsburgh, PA (2007).

 Additional authors for Version 3.1: 
 Z. Gan, Y. Zhao, N. E. Schultz, D. Truhlar, E. Epifanovsky and M. Oana.

 Additional authors for Version 3.2: 
 R. Baer, B. R. Brooks, D. Casanova, J.-D. Chai, C.-L. Cheng, 
 C. Cramer, D. Crittenden, A. Ghysels, G. Hawkins, E. G. Hohenstein, 
 C. Kelley, W. Kurlancheek, D. Liotard, E. Livshits, P. Manohar, 
 A. Marenich, D. Neuhauser, R. Olson, M. A. Rohrdanz, K. S. Thanthiriwatte, 
 A. J. W. Thom, V. Vanovschi, C. F. Williams, Q. Wu and Z.-Q. You. 


 Intel X86 Linux Version

 Q-chem begins on Mon Jun  3 17:03:40 2013  

 Parallel job on  1  processors
Processing $rem in /usr/local/qchem/config/preferences.

theFileMan(): MAXOPENFILES=974 MAX_SUB_FILE_NUM=16
Maximum size of a physical file is 2.0 GB, maximum size of a tmp-file is 32.0 GB


--------------------------------------------------------------
User input:
--------------------------------------------------------------

$molecule
-1,1
C
H,1,CH
H,1,CH,2,120.
H,1,CH,2,120.,3,180.,0

CH=1.08274368

$end

$comment
negative
$end

$xc_functional
C PBE   1.00
X wPBE  1.00
$end

$rem
SYMMETRY_DECOMPOSITION	0
exchange 		general
LRC_DFT                 true
BASIS                   g3large
omega			500
mem_static              760
max_scf_cycles          200
scf_final_print         1
sym_ignore              true
$end

--------------------------------------------------------------
 Writing REM_CC_EA            4
 ----------------------------------------------------
       Standard Nuclear Orientation (Angstroms)
    I     Atom         X            Y            Z
 ----------------------------------------------------
    1      C       0.000000     0.000000     0.000000
    2      H       0.000000     0.000000     1.082744
    3      H       0.937684     0.000000    -0.541372
    4      H      -0.937684     0.000000    -0.541372
 ----------------------------------------------------
 Nuclear Repulsion Energy =     9.6437890173 hartrees
 There are        5 alpha and        5 beta electrons
 Requested basis set is G3large
 There are 28 shells and 72 basis functions

Total QAlloc Memory Limit   2000 MB
Mega-Array Size       743 MB
MEM_STATIC part       760 MB

                       Distance Matrix (Angstroms)
             C (  1)   H (  2)   H (  3)
   H (  2)  1.082744
   H (  3)  1.082744  1.875367
   H (  4)  1.082744  1.875367  1.875367
 
 A cutoff of  1.0D-08 yielded    406 shell pairs
 There are   2724 function pairs (  3216 Cartesian)
Evaluating contribution to one-electron hamiltonian from nuclear
 Smallest overlap matrix eigenvalue = 2.92E-03
 Multipole matrices computed through 2nd order

  Scale SEOQF with 1.000000e-01/1.000000e-01/1.000000e-01

 Standard Electronic Orientation quadrupole field applied
 Nucleus-field energy     =    -0.0000000001 hartrees
 Guess from superposition of atomic densities
 Warning:  Energy on first SCF cycle will be non-variational
 Long-range K will be added via erf
 Coulomb attenuation parameter = 0.5 bohr**(-1)
 A restricted Kohn-Sham SCF calculation will be
 performed using Pulay DIIS extrapolation
 Exchange:  wPBE + LR-HF      Correlation:  PBE
 Using SG-1 standard quadrature grid
 SCF converges when DIIS error is below 1.0E-05
 Requested basis set is G3large
 There are 28 shells and 72 basis functions
 A cutoff of  1.0D-08 yielded    406 shell pairs
 There are   2724 function pairs (  3216 Cartesian)
 Warning!  Inaccurate integrated density:
   Number of electrons =    10
   Numerical integral  =     8.999995709326
   Relative error      =   -10.0000429067 %
 ---------------------------------------
  Cycle       Energy         DIIS Error
 ---------------------------------------
    1     -39.7536097396      3.83E-02
    2     -39.7013272030      1.16E-02
    3     -39.7728464546      8.13E-03
    4     -39.8157627966      6.67E-04
    5     -39.8166867064      2.81E-04
    6     -39.8169221284      6.03E-05
    7     -39.8169418972      1.09E-05
    8     -39.8169427964      3.71E-06 Convergence criterion met
 ---------------------------------------
 One-Electron    Energy =   -74.2409669380
 Total Coulomb   Energy =    31.4198168422
 Alpha Exchange  Energy =    -1.1020125615
 Beta  Exchange  Energy =    -1.1020125615
 DFT   Exchange  Energy =    -4.1446298169
 DFT Correlation Energy =    -0.2909267778
 Nuclear Repu.   Energy =     9.6437890172
 Nuclear Attr.   Energy =  -113.8408900301
 Kinetic         Energy =    39.5999230921
 SCF time:  CPU 7.70 s  wall 9.52 s
 Final Alpha MO Eigenvalues
            1           2           3           4           5           6
    1  -9.8563553  -0.5576314  -0.2765492  -0.2765439  -0.0210932   0.1859256
            7           8           9          10
    1   0.2068945   0.2068958   0.3172277   0.3196391
 Analysis of SCF Wavefunction
 
 --------------------------------------------------------------
                    Orbital Energies (a.u.)
 --------------------------------------------------------------
 
 Alpha MOs
 -- Occupied --
 -9.856  -0.558  -0.277  -0.277  -0.021
 -- Virtual --
  0.186   0.207   0.207   0.317   0.320   0.320   0.357   0.451
  0.484   0.484   0.759   0.759   0.845   0.937   0.938   0.940
  0.946   0.946   0.998   1.204   1.291   1.326   1.326   1.359
  1.471   1.471   1.704   1.704   1.816   1.816   1.931   2.807
  2.883   2.883   3.134   3.293   3.293   3.338   3.456   3.526
  3.526   3.561   3.610   3.611   3.804   3.804   4.150   4.150
  4.389   4.542   4.542   4.577   4.577   4.589   5.231   5.702
  5.959   5.959  24.480  27.580  28.460  28.460  41.310  41.357
 41.499  41.500  41.617
 --------------------------------------------------------------
 
          Ground-State Mulliken Net Atomic Charges

     Atom                 Charge (a.u.)
  ----------------------------------------
      1 C                    -1.175341
      2 H                     0.058442
      3 H                     0.058448
      4 H                     0.058451
  ----------------------------------------
  Sum of atomic charges =    -1.000000

 -----------------------------------------------------------------
                    Cartesian Multipole Moments
 -----------------------------------------------------------------
    Charge (ESU x 10^10)
                -4.8032
    Dipole Moment (Debye)
         X       0.0000      Y       0.0000      Z       0.0000
       Tot       0.0001
    Quadrupole Moments (Debye-Ang)
        XX     -12.2458     XY       0.0056     YY     -20.0347
        XZ       0.0000     YZ      -0.0002     ZZ     -12.2459
    Octapole Moments (Debye-Ang^2)
       XXX       0.0000    XXY       0.0000    XYY       0.0000
       YYY      -0.0001    XXZ      -0.3836    XYZ      -0.0018
       YYZ       0.0000    XZZ       0.0000    YZZ      -0.0001
       ZZZ       0.3836
    Hexadecapole Moments (Debye-Ang^3)
      XXXX     -32.6222   XXXY       0.0321   XXYY     -17.9151
      XYYY       0.0309   YYYY     -72.7211   XXXZ       0.0000
      XXYZ      -0.0004   XYYZ       0.0000   YYYZ      -0.0012
      XXZZ     -10.8741   XYZZ       0.0107   YYZZ     -17.9151
      XZZZ       0.0000   YZZZ      -0.0012   ZZZZ     -32.6223
 -----------------------------------------------------------------
 Total job time:  9.69s(wall), 7.77s(cpu) 
 Mon Jun  3 17:03:50 2013

        *************************************************************
        *                                                           *
        *  Thank you very much for using Q-Chem.  Have a nice day.  *
        *                                                           *
        *************************************************************


0 sent ACK to 0 
now end server 0 ... 
 
**********************************************************************
Job 2 of 3 
**********************************************************************
 
Process 0 of 1 is on cl189.stfx.acenet.ca - thread support 1
initial socket setup ...start
initial socket setup ...done 
now start server 0 ... 

cmd = /usr/bin/ssh clhead /usr/local/qchem/bin/get_hostid 491209430 > /scratch/tmp/6027601.1.medium.q/qchem17014/lic.dat
                  Welcome to Q-Chem
     A Quantum Leap Into The Future Of Chemistry

 Y. Shao, L. Fusti-Molnar, Y. Jung, J. Kussmann, C. Ochsenfeld,
 S. T. Brown, A. T. B. Gilbert, L. V. Slipchenko,S. V. Levchenko,
 D. P. O'Neill, R. A. DiStasio Jr., R. C. Lochan, T. Wang,
 G. J. O. Beran, N. A. Besley, J. M. Herbert, C. Y. Lin,
 T. Van Voorhis, S. H. Chien, A. Sodt, R. P. Steele, 
 V. A. Rassolov, P. E. Maslen, P. P. Korambath, R. D. Adamson,
 B. Austin, J. Baker, E. F. C. Byrd, H. Dachsel, R. J. Doerksen,
 A. Dreuw, B. D. Dunietz, A. D. Dutoi, T. R. Furlani,
 S. R. Gwaltney, A. Heyden, S. Hirata, C.-P. Hsu, G. Kedziora,
 R. Z. Khaliullin, P. Klunzinger, A. M. Lee, M. S. Lee, W. Liang,
 I. Lotan, N. Nair, B. Peters, E. I. Proynov, P. A. Pieniazek, 
 Y. M. Rhee, J. Ritchie, E. Rosta, C. D. Sherrill, 
 A. C. Simmonett, J. E. Subotnik, H. L. Woodcock III,
 W. Zhang, A. T. Bell, A. K. Chakraborty, D. M. Chipman,
 F. J. Keil, A. Warshel, W. J. Hehre, H. F. Schaefer III,
 J. Kong, A. I. Krylov, P. M. W. Gill, M. Head-Gordon,
 Q-Chem, Version 3.1, Q-Chem, Inc., Pittsburgh, PA (2007).

 Additional authors for Version 3.1: 
 Z. Gan, Y. Zhao, N. E. Schultz, D. Truhlar, E. Epifanovsky and M. Oana.

 Additional authors for Version 3.2: 
 R. Baer, B. R. Brooks, D. Casanova, J.-D. Chai, C.-L. Cheng, 
 C. Cramer, D. Crittenden, A. Ghysels, G. Hawkins, E. G. Hohenstein, 
 C. Kelley, W. Kurlancheek, D. Liotard, E. Livshits, P. Manohar, 
 A. Marenich, D. Neuhauser, R. Olson, M. A. Rohrdanz, K. S. Thanthiriwatte, 
 A. J. W. Thom, V. Vanovschi, C. F. Williams, Q. Wu and Z.-Q. You. 


 Intel X86 Linux Version

 Q-chem begins on Mon Jun  3 17:03:53 2013  

 Parallel job on  1  processors
Processing $rem in /usr/local/qchem/config/preferences.

theFileMan(): MAXOPENFILES=974 MAX_SUB_FILE_NUM=16
Maximum size of a physical file is 2.0 GB, maximum size of a tmp-file is 32.0 GB


--------------------------------------------------------------
User input:
--------------------------------------------------------------

$molecule
0,2
C
H,1,CH
H,1,CH,2,120.
H,1,CH,2,120.,3,180.,0

CH=1.08274368

$end

$comment
neutral
$end

$xc_functional
C PBE   1.00
X wPBE  1.00
$end


$rem
SYMMETRY_DECOMPOSITION	0
LRC_DFT                 true
exchange 		general
BASIS                   g3large
omega			500
mem_static              760
max_scf_cycles          200
scf_final_print         1
sym_ignore              true
$end

--------------------------------------------------------------
 Writing REM_CC_EA            4
 ----------------------------------------------------
       Standard Nuclear Orientation (Angstroms)
    I     Atom         X            Y            Z
 ----------------------------------------------------
    1      C       0.000000     0.000000     0.000000
    2      H       0.000000     0.000000     1.082744
    3      H       0.937684     0.000000    -0.541372
    4      H      -0.937684     0.000000    -0.541372
 ----------------------------------------------------
 Nuclear Repulsion Energy =     9.6437890173 hartrees
 There are        5 alpha and        4 beta electrons
 Requested basis set is G3large
 There are 28 shells and 72 basis functions

Total QAlloc Memory Limit   2000 MB
Mega-Array Size       743 MB
MEM_STATIC part       760 MB

                       Distance Matrix (Angstroms)
             C (  1)   H (  2)   H (  3)
   H (  2)  1.082744
   H (  3)  1.082744  1.875367
   H (  4)  1.082744  1.875367  1.875367
 
 A cutoff of  1.0D-08 yielded    406 shell pairs
 There are   2724 function pairs (  3216 Cartesian)
Evaluating contribution to one-electron hamiltonian from nuclear
 Smallest overlap matrix eigenvalue = 2.92E-03
 Multipole matrices computed through 2nd order

  Scale SEOQF with 1.000000e-01/1.000000e-01/1.000000e-01

 Standard Electronic Orientation quadrupole field applied
 Nucleus-field energy     =    -0.0000000001 hartrees
 Guess from superposition of atomic densities
 Warning:  Energy on first SCF cycle will be non-variational
 Long-range K will be added via erf
 Coulomb attenuation parameter = 0.5 bohr**(-1)
 An unrestricted Kohn-Sham SCF calculation will be
 performed using Pulay DIIS extrapolation
 Exchange:  wPBE + LR-HF      Correlation:  PBE
 Using SG-1 standard quadrature grid
 SCF converges when DIIS error is below 1.0E-05
 Requested basis set is G3large
 There are 28 shells and 72 basis functions
 A cutoff of  1.0D-08 yielded    406 shell pairs
 There are   2724 function pairs (  3216 Cartesian)
 ---------------------------------------
  Cycle       Energy         DIIS Error
 ---------------------------------------
    1     -39.7536097396      3.83E-02
    2     -39.8094786256      3.28E-03
    3     -39.8260914905      1.30E-03
    4     -39.8295464858      5.37E-04
    5     -39.8310694668      1.90E-04
    6     -39.8314312197      4.81E-05
    7     -39.8314554823      1.23E-05
    8     -39.8314567407      3.18E-06 Convergence criterion met
 ---------------------------------------
 One-Electron    Energy =   -71.6366459850
 Total Coulomb   Energy =    28.6388129647
 Alpha Exchange  Energy =    -1.1482811262
 Beta  Exchange  Energy =    -0.9326923155
 DFT   Exchange  Energy =    -4.1362541714
 DFT Correlation Energy =    -0.2601851245
 Nuclear Repu.   Energy =     9.6437890172
 Nuclear Attr.   Energy =  -111.2332584998
 Kinetic         Energy =    39.5966125148
 <S^2> = 0.7552
 SCF time:  CPU 9.05 s  wall 9.33 s
 Final Alpha MO Eigenvalues
            1           2           3           4           5           6
    1 -10.1665404  -0.8698780  -0.5642523  -0.5642512  -0.3770337   0.0436470
            7           8           9          10
    1   0.0728035   0.0728045   0.1246631   0.1518858
 Final Beta MO Eigenvalues
            1           2           3           4           5           6
    1 -10.1527654  -0.8163118  -0.5539745  -0.5539726   0.0365196   0.0453065
            7           8           9
    1   0.0732880   0.0732881   0.1524307
 Analysis of SCF Wavefunction
 
 --------------------------------------------------------------
                    Orbital Energies (a.u.)
 --------------------------------------------------------------
 
 Alpha MOs
 -- Occupied --
-10.167  -0.870  -0.564  -0.564  -0.377
 -- Virtual --
  0.044   0.073   0.073   0.125   0.152   0.152   0.183   0.237
  0.275   0.276   0.523   0.523   0.586   0.649   0.662   0.662
  0.693   0.693   0.751   0.957   1.009   1.074   1.074   1.098
  1.197   1.197   1.452   1.452   1.558   1.558   1.664   2.537
  2.597   2.597   2.790   2.980   2.980   3.058   3.131   3.210
  3.210   3.227   3.323   3.323   3.470   3.470   3.868   3.868
  4.104   4.264   4.264   4.285   4.285   4.302   4.952   5.410
  5.675   5.675  24.170  27.255  28.153  28.153  40.987  41.053
 41.181  41.182  41.313
 
 Beta MOs
 -- Occupied --
-10.153  -0.816  -0.554  -0.554
 -- Virtual --
  0.037   0.045   0.073   0.073   0.152   0.152   0.166   0.192
  0.252   0.280   0.280   0.526   0.526   0.616   0.702   0.702
  0.703   0.703   0.716   0.774   0.956   1.046   1.080   1.080
  1.113   1.223   1.223   1.457   1.457   1.566   1.566   1.682
  2.541   2.616   2.616   2.871   3.016   3.016   3.060   3.189
  3.252   3.252   3.310   3.333   3.333   3.534   3.534   3.875
  3.876   4.110   4.265   4.265   4.301   4.301   4.313   4.952
  5.431   5.680   5.681  24.186  27.293  28.163  28.163  41.023
 41.059  41.208  41.208  41.318
 --------------------------------------------------------------
 
          Ground-State Mulliken Net Atomic Charges

     Atom                 Charge (a.u.)    Spin (a.u.)
  --------------------------------------------------------
      1 C                    -0.260107       1.136997
      2 H                     0.086721      -0.045644
      3 H                     0.086692      -0.045677
      4 H                     0.086694      -0.045676
  --------------------------------------------------------
  Sum of atomic charges =     0.000000
  Sum of spin   charges =     1.000000

 -----------------------------------------------------------------
                    Cartesian Multipole Moments
 -----------------------------------------------------------------
    Charge (ESU x 10^10)
                 0.0000
    Dipole Moment (Debye)
         X       0.0000      Y       0.0000      Z       0.0000
       Tot       0.0000
    Quadrupole Moments (Debye-Ang)
        XX      -7.1225     XY      -0.0001     YY      -8.9975
        XZ       0.0000     YZ       0.0000     ZZ      -7.1225
    Octapole Moments (Debye-Ang^2)
       XXX       0.0000    XXY       0.0000    XYY       0.0000
       YYY       0.0000    XXZ      -1.0039    XYZ       0.0001
       YYZ       0.0000    XZZ       0.0000    YZZ       0.0000
       ZZZ       1.0040
    Hexadecapole Moments (Debye-Ang^3)
      XXXX     -14.6050   XXXY      -0.0002   XXYY      -4.7535
      XYYY      -0.0002   YYYY     -11.2773   XXXZ       0.0000
      XXYZ       0.0000   XYYZ       0.0000   YYYZ       0.0000
      XXZZ      -4.8683   XYZZ      -0.0001   YYZZ      -4.7535
      XZZZ       0.0000   YZZZ       0.0000   ZZZZ     -14.6048
 -----------------------------------------------------------------
 Total job time:  9.41s(wall), 9.12s(cpu) 
 Mon Jun  3 17:04:03 2013

        *************************************************************
        *                                                           *
        *  Thank you very much for using Q-Chem.  Have a nice day.  *
        *                                                           *
        *************************************************************


0 sent ACK to 0 
now end server 0 ... 
 
**********************************************************************
Job 3 of 3 
**********************************************************************
 
Process 0 of 1 is on cl189.stfx.acenet.ca - thread support 1
initial socket setup ...start
initial socket setup ...done 
now start server 0 ... 

cmd = /usr/bin/ssh clhead /usr/local/qchem/bin/get_hostid 529968711 > /scratch/tmp/6027601.1.medium.q/qchem17014/lic.dat
                  Welcome to Q-Chem
     A Quantum Leap Into The Future Of Chemistry

 Y. Shao, L. Fusti-Molnar, Y. Jung, J. Kussmann, C. Ochsenfeld,
 S. T. Brown, A. T. B. Gilbert, L. V. Slipchenko,S. V. Levchenko,
 D. P. O'Neill, R. A. DiStasio Jr., R. C. Lochan, T. Wang,
 G. J. O. Beran, N. A. Besley, J. M. Herbert, C. Y. Lin,
 T. Van Voorhis, S. H. Chien, A. Sodt, R. P. Steele, 
 V. A. Rassolov, P. E. Maslen, P. P. Korambath, R. D. Adamson,
 B. Austin, J. Baker, E. F. C. Byrd, H. Dachsel, R. J. Doerksen,
 A. Dreuw, B. D. Dunietz, A. D. Dutoi, T. R. Furlani,
 S. R. Gwaltney, A. Heyden, S. Hirata, C.-P. Hsu, G. Kedziora,
 R. Z. Khaliullin, P. Klunzinger, A. M. Lee, M. S. Lee, W. Liang,
 I. Lotan, N. Nair, B. Peters, E. I. Proynov, P. A. Pieniazek, 
 Y. M. Rhee, J. Ritchie, E. Rosta, C. D. Sherrill, 
 A. C. Simmonett, J. E. Subotnik, H. L. Woodcock III,
 W. Zhang, A. T. Bell, A. K. Chakraborty, D. M. Chipman,
 F. J. Keil, A. Warshel, W. J. Hehre, H. F. Schaefer III,
 J. Kong, A. I. Krylov, P. M. W. Gill, M. Head-Gordon,
 Q-Chem, Version 3.1, Q-Chem, Inc., Pittsburgh, PA (2007).

 Additional authors for Version 3.1: 
 Z. Gan, Y. Zhao, N. E. Schultz, D. Truhlar, E. Epifanovsky and M. Oana.

 Additional authors for Version 3.2: 
 R. Baer, B. R. Brooks, D. Casanova, J.-D. Chai, C.-L. Cheng, 
 C. Cramer, D. Crittenden, A. Ghysels, G. Hawkins, E. G. Hohenstein, 
 C. Kelley, W. Kurlancheek, D. Liotard, E. Livshits, P. Manohar, 
 A. Marenich, D. Neuhauser, R. Olson, M. A. Rohrdanz, K. S. Thanthiriwatte, 
 A. J. W. Thom, V. Vanovschi, C. F. Williams, Q. Wu and Z.-Q. You. 


 Intel X86 Linux Version

 Q-chem begins on Mon Jun  3 17:04:07 2013  

 Parallel job on  1  processors
Processing $rem in /usr/local/qchem/config/preferences.

theFileMan(): MAXOPENFILES=974 MAX_SUB_FILE_NUM=16
Maximum size of a physical file is 2.0 GB, maximum size of a tmp-file is 32.0 GB


--------------------------------------------------------------
User input:
--------------------------------------------------------------

$molecule
1,1
C
H,1,CH
H,1,CH,2,120.
H,1,CH,2,120.,3,180.,0

CH=1.08274368

$end

$comment
positive
$end

$xc_functional
C PBE   1.00
X wPBE  1.00
$end

$rem
SYMMETRY_DECOMPOSITION	0
LRC_DFT                 true
exchange 		general
BASIS                   g3large
omega			500
mem_static              760
max_scf_cycles          200
scf_final_print         1
sym_ignore              true
$end

--------------------------------------------------------------
 Writing REM_CC_EA            4
 ----------------------------------------------------
       Standard Nuclear Orientation (Angstroms)
    I     Atom         X            Y            Z
 ----------------------------------------------------
    1      C       0.000000     0.000000     0.000000
    2      H       0.000000     0.000000     1.082744
    3      H       0.937684     0.000000    -0.541372
    4      H      -0.937684     0.000000    -0.541372
 ----------------------------------------------------
 Nuclear Repulsion Energy =     9.6437890173 hartrees
 There are        4 alpha and        4 beta electrons
 Requested basis set is G3large
 There are 28 shells and 72 basis functions

Total QAlloc Memory Limit   2000 MB
Mega-Array Size       743 MB
MEM_STATIC part       760 MB

                       Distance Matrix (Angstroms)
             C (  1)   H (  2)   H (  3)
   H (  2)  1.082744
   H (  3)  1.082744  1.875367
   H (  4)  1.082744  1.875367  1.875367
 
 A cutoff of  1.0D-08 yielded    406 shell pairs
 There are   2724 function pairs (  3216 Cartesian)
Evaluating contribution to one-electron hamiltonian from nuclear
 Smallest overlap matrix eigenvalue = 2.92E-03
 Multipole matrices computed through 2nd order

  Scale SEOQF with 1.000000e-01/1.000000e-01/1.000000e-01

 Standard Electronic Orientation quadrupole field applied
 Nucleus-field energy     =    -0.0000000001 hartrees
 Guess from superposition of atomic densities
 Warning:  Energy on first SCF cycle will be non-variational
 Long-range K will be added via erf
 Coulomb attenuation parameter = 0.5 bohr**(-1)
 A restricted Kohn-Sham SCF calculation will be
 performed using Pulay DIIS extrapolation
 Exchange:  wPBE + LR-HF      Correlation:  PBE
 Using SG-1 standard quadrature grid
 SCF converges when DIIS error is below 1.0E-05
 Requested basis set is G3large
 There are 28 shells and 72 basis functions
 A cutoff of  1.0D-08 yielded    406 shell pairs
 There are   2724 function pairs (  3216 Cartesian)
 Warning!  Inaccurate integrated density:
   Number of electrons =     8
   Numerical integral  =     8.999995709326
   Relative error      =    12.4999463666 %
 ---------------------------------------
  Cycle       Energy         DIIS Error
 ---------------------------------------
    1     -39.7536097396      3.83E-02
    2     -39.3996245995      6.65E-03
    3     -39.4497321977      2.92E-03
    4     -39.4572714907      8.63E-04
    5     -39.4598823911      4.06E-04
    6     -39.4606659239      8.47E-05
    7     -39.4606957481      5.94E-06 Convergence criterion met
 ---------------------------------------
 One-Electron    Energy =   -68.1435961280
 Total Coulomb   Energy =    25.1984632038
 Alpha Exchange  Energy =    -0.9466098079
 Beta  Exchange  Energy =    -0.9466098079
 DFT   Exchange  Energy =    -4.0365034878
 DFT Correlation Energy =    -0.2296287375
 Nuclear Repu.   Energy =     9.6437890172
 Nuclear Attr.   Energy =  -107.4487873423
 Kinetic         Energy =    39.3051912143
 SCF time:  CPU 6.74 s  wall 6.92 s
 Final Alpha MO Eigenvalues
            1           2           3           4           5           6
    1 -10.6195024  -1.2241335  -0.9345978  -0.9345897  -0.3590554  -0.1347229
            7           8           9
    1  -0.0863992  -0.0863979  -0.0609677
 Analysis of SCF Wavefunction
 
 --------------------------------------------------------------
                    Orbital Energies (a.u.)
 --------------------------------------------------------------
 
 Alpha MOs
 -- Occupied --
-10.620  -1.224  -0.935  -0.935
 -- Virtual --
 -0.359  -0.135  -0.086  -0.086  -0.061  -0.044  -0.044  -0.006
  0.004   0.040   0.040   0.255   0.255   0.317   0.358   0.358
  0.365   0.411   0.411   0.482   0.660   0.707   0.777   0.777
  0.803   0.897   0.897   1.155   1.155   1.248   1.248   1.353
  2.199   2.257   2.257   2.410   2.607   2.607   2.696   2.768
  2.840   2.840   2.864   2.952   2.953   3.090   3.090   3.502
  3.502   3.740   3.905   3.905   3.927   3.927   3.949   4.595
  5.047   5.307   5.307  23.724  26.809  27.705  27.705  40.537
 40.603  40.729  40.730  40.863
 --------------------------------------------------------------
 
          Ground-State Mulliken Net Atomic Charges

     Atom                 Charge (a.u.)
  ----------------------------------------
      1 C                     0.423915
      2 H                     0.192042
      3 H                     0.192024
      4 H                     0.192019
  ----------------------------------------
  Sum of atomic charges =     1.000000

 -----------------------------------------------------------------
                    Cartesian Multipole Moments
 -----------------------------------------------------------------
    Charge (ESU x 10^10)
                 4.8032
    Dipole Moment (Debye)
         X       0.0000      Y       0.0000      Z       0.0000
       Tot       0.0000
    Quadrupole Moments (Debye-Ang)
        XX      -3.9699     XY       0.0000     YY      -4.9791
        XZ       0.0000     YZ       0.0000     ZZ      -3.9699
    Octapole Moments (Debye-Ang^2)
       XXX       0.0000    XXY       0.0000    XYY       0.0000
       YYY       0.0000    XXZ      -1.7835    XYZ       0.0000
       YYZ       0.0000    XZZ       0.0000    YZZ       0.0000
       ZZZ       1.7833
    Hexadecapole Moments (Debye-Ang^3)
      XXXX      -7.5780   XXXY       0.0000   XXYY      -2.4393
      XYYY       0.0000   YYYY      -3.3664   XXXZ       0.0000
      XXYZ       0.0000   XYYZ       0.0000   YYYZ       0.0000
      XXZZ      -2.5260   XYZZ       0.0000   YYZZ      -2.4393
      XZZZ       0.0000   YZZZ       0.0000   ZZZZ      -7.5782
 -----------------------------------------------------------------
 Total job time:  7.00s(wall), 6.81s(cpu) 
 Mon Jun  3 17:04:14 2013

        *************************************************************
        *                                                           *
        *  Thank you very much for using Q-Chem.  Have a nice day.  *
        *                                                           *
        *************************************************************


0 sent ACK to 0 
now end server 0 ... 
