Process 0 of 1 is on cl229.stfx.acenet.ca - thread support 1
initial socket setup ...start
initial socket setup ...done 
now start server 0 ... 

cmd = /usr/bin/ssh clhead /usr/local/qchem/bin/get_hostid 1554833930 > /scratch/tmp/6029098.1.long.q/qchem25434/lic.dat
                  Welcome to Q-Chem
     A Quantum Leap Into The Future Of Chemistry

 Y. Shao, L. Fusti-Molnar, Y. Jung, J. Kussmann, C. Ochsenfeld,
 S. T. Brown, A. T. B. Gilbert, L. V. Slipchenko,S. V. Levchenko,
 D. P. O'Neill, R. A. DiStasio Jr., R. C. Lochan, T. Wang,
 G. J. O. Beran, N. A. Besley, J. M. Herbert, C. Y. Lin,
 T. Van Voorhis, S. H. Chien, A. Sodt, R. P. Steele, 
 V. A. Rassolov, P. E. Maslen, P. P. Korambath, R. D. Adamson,
 B. Austin, J. Baker, E. F. C. Byrd, H. Dachsel, R. J. Doerksen,
 A. Dreuw, B. D. Dunietz, A. D. Dutoi, T. R. Furlani,
 S. R. Gwaltney, A. Heyden, S. Hirata, C.-P. Hsu, G. Kedziora,
 R. Z. Khaliullin, P. Klunzinger, A. M. Lee, M. S. Lee, W. Liang,
 I. Lotan, N. Nair, B. Peters, E. I. Proynov, P. A. Pieniazek, 
 Y. M. Rhee, J. Ritchie, E. Rosta, C. D. Sherrill, 
 A. C. Simmonett, J. E. Subotnik, H. L. Woodcock III,
 W. Zhang, A. T. Bell, A. K. Chakraborty, D. M. Chipman,
 F. J. Keil, A. Warshel, W. J. Hehre, H. F. Schaefer III,
 J. Kong, A. I. Krylov, P. M. W. Gill, M. Head-Gordon,
 Q-Chem, Version 3.1, Q-Chem, Inc., Pittsburgh, PA (2007).

 Additional authors for Version 3.1: 
 Z. Gan, Y. Zhao, N. E. Schultz, D. Truhlar, E. Epifanovsky and M. Oana.

 Additional authors for Version 3.2: 
 R. Baer, B. R. Brooks, D. Casanova, J.-D. Chai, C.-L. Cheng, 
 C. Cramer, D. Crittenden, A. Ghysels, G. Hawkins, E. G. Hohenstein, 
 C. Kelley, W. Kurlancheek, D. Liotard, E. Livshits, P. Manohar, 
 A. Marenich, D. Neuhauser, R. Olson, M. A. Rohrdanz, K. S. Thanthiriwatte, 
 A. J. W. Thom, V. Vanovschi, C. F. Williams, Q. Wu and Z.-Q. You. 


 Intel X86 Linux Version

 Q-chem begins on Tue Jun  4 16:42:35 2013  

 Parallel job on  1  processors
Processing $rem in /usr/local/qchem/config/preferences.

theFileMan(): MAXOPENFILES=974 MAX_SUB_FILE_NUM=16
Maximum size of a physical file is 2.0 GB, maximum size of a tmp-file is 32.0 GB


--------------------------------------------------------------
User input:
--------------------------------------------------------------

$molecule
-1,2
Si        -0.00000        0.00000       -0.00000
Cl        -0.00000       -0.00000        2.09442
Cl         1.97464       -0.00000       -0.69814
Cl        -0.98732        1.71009       -0.69814
Cl        -0.98732       -1.71009       -0.69814
$end

$comment
negative
$end

$xc_functional
C PBE   1.00
X wPBE  1.00
$end

$rem
SYMMETRY_DECOMPOSITION	0
exchange 		general
LRC_DFT                 true
BASIS                   g3large
omega			450
mem_static              760
max_scf_cycles          200
scf_final_print         1
sym_ignore              true
$end

--------------------------------------------------------------
 Writing REM_CC_EA            5
 ----------------------------------------------------
       Standard Nuclear Orientation (Angstroms)
    I     Atom         X            Y            Z
 ----------------------------------------------------
    1      Si      0.000000     0.000000     0.000000
    2      Cl      0.000000     0.000000     2.094420
    3      Cl      1.974640     0.000000    -0.698140
    4      Cl     -0.987320     1.710090    -0.698140
    5      Cl     -0.987320    -1.710090    -0.698140
 ----------------------------------------------------
 Nuclear Repulsion Energy =   508.8208325231 hartrees
 There are       42 alpha and       41 beta electrons
 Requested basis set is G3large
 There are 95 shells and 330 basis functions

Total QAlloc Memory Limit   2000 MB
Mega-Array Size       743 MB
MEM_STATIC part       760 MB

                       Distance Matrix (Angstroms)
             Si(  1)   Cl(  2)   Cl(  3)   Cl(  4)
   Cl(  2)  2.094420
   Cl(  3)  2.094422  3.420175
   Cl(  4)  2.094423  3.420175  3.420178
   Cl(  5)  2.094423  3.420175  3.420178  3.420180
 
 A cutoff of  1.0D-08 yielded   3394 shell pairs
 There are  42765 function pairs ( 61004 Cartesian)
Evaluating contribution to one-electron hamiltonian from nuclear
 Smallest overlap matrix eigenvalue = 3.17E-04
 Multipole matrices computed through 2nd order

  Scale SEOQF with 1.000000e-01/1.000000e-01/1.000000e-01

 Standard Electronic Orientation quadrupole field applied
 Guess from superposition of atomic densities
 Warning:  Energy on first SCF cycle will be non-variational
 Long-range K will be added via erf
 Coulomb attenuation parameter = 0.45 bohr**(-1)
 An unrestricted Kohn-Sham SCF calculation will be
 performed using Pulay DIIS extrapolation
 Exchange:  wPBE + LR-HF      Correlation:  PBE
 Using SG-1 standard quadrature grid
 SCF converges when DIIS error is below 1.0E-05
 Requested basis set is G3large
 There are 95 shells and 330 basis functions
 A cutoff of  1.0D-08 yielded   3394 shell pairs
 There are  42765 function pairs ( 61004 Cartesian)
 Warning!  Inaccurate integrated density:
   Number of electrons =    83
   Numerical integral  =    81.999884338267
   Relative error      =    -1.2049586286 %
 ---------------------------------------
  Cycle       Energy         DIIS Error
 ---------------------------------------
    1   -2130.3938392961      1.70E-02
    2   -2129.8309095384      1.96E-03
    3   -2129.8737513962      1.45E-03
    4   -2129.8938723674      2.04E-04
    5   -2129.8946669599      8.34E-05
    6   -2129.8948508215      2.80E-05
    7   -2129.8948965882      7.14E-06 Convergence criterion met
 ---------------------------------------
 One-Electron    Energy = -3973.8465173053
 Total Coulomb   Energy =  1468.7665068555
 Alpha Exchange  Energy =    -9.6358039688
 Beta  Exchange  Energy =    -9.4630627545
 DFT   Exchange  Energy =  -111.3053081042
 DFT Correlation Energy =    -3.2315438340
 Nuclear Repu.   Energy =   508.8208325231
 Nuclear Attr.   Energy = -6101.3611190729
 Kinetic         Energy =  2127.5146017676
 <S^2> = 0.7558
 SCF time:  CPU 455.92 s  wall 460.58 s
 Final Alpha MO Eigenvalues
            1           2           3           4           5           6
    1-100.7335285-100.7326352-100.7324453-100.7324104 -65.5665268  -9.2587462
            7           8           9          10          11          12
    1  -9.2579533  -9.2578060  -9.2577662  -7.0721106  -7.0712462  -7.0711273
           13          14          15          16          17          18
    1  -7.0711021  -7.0666971  -7.0666666  -7.0659118  -7.0659101  -7.0657522
           19          20          21          22          23          24
    1  -7.0657207  -7.0657136  -7.0656944  -5.2182758  -3.6178700  -3.6178442
           25          26          27          28          29          30
    1  -3.6178176  -0.8674044  -0.8227585  -0.8223252  -0.8222298  -0.5192298
           31          32          33          34          35          36
    1  -0.3928285  -0.3925932  -0.3925528  -0.3230875  -0.3230864  -0.3116704
           37          38          39          40          41          42
    1  -0.3116107  -0.3115281  -0.2829592  -0.2829177  -0.2827124  -0.0112392
           43          44          45          46          47
    1   0.1754393   0.1899170   0.1899678   0.1899860   0.2354490
 Final Beta MO Eigenvalues
            1           2           3           4           5           6
    1-100.7324885-100.7315868-100.7313911-100.7313724 -65.5633936  -9.2577099
            7           8           9          10          11          12
    1  -9.2569069  -9.2567687  -9.2567144  -7.0697710  -7.0687940  -7.0687611
           13          14          15          16          17          18
    1  -7.0686563  -7.0659207  -7.0658331  -7.0651641  -7.0651616  -7.0649748
           19          20          21          22          23          24
    1  -7.0649615  -7.0648893  -7.0648872  -5.2140339  -3.6135187  -3.6134834
           25          26          27          28          29          30
    1  -3.6134540  -0.8587259  -0.8150300  -0.8145642  -0.8144265  -0.4924724
           31          32          33          34          35          36
    1  -0.3804364  -0.3802890  -0.3802383  -0.3202814  -0.3202778  -0.3032814
           37          38          39          40          41          42
    1  -0.3032604  -0.3032454  -0.2803864  -0.2803326  -0.2801067   0.1654221
           43          44          45          46
    1   0.1940106   0.1940781   0.1941007   0.2268553
 Analysis of SCF Wavefunction
 
 --------------------------------------------------------------
                    Orbital Energies (a.u.)
 --------------------------------------------------------------
 
 Alpha MOs
 -- Occupied --
*******-100.733-100.732-100.732 -65.567  -9.259  -9.258  -9.258
 -9.258  -7.072  -7.071  -7.071  -7.071  -7.067  -7.067  -7.066
 -7.066  -7.066  -7.066  -7.066  -7.066  -5.218  -3.618  -3.618
 -3.618  -0.867  -0.823  -0.822  -0.822  -0.519  -0.393  -0.393
 -0.393  -0.323  -0.323  -0.312  -0.312  -0.312  -0.283  -0.283
 -0.283  -0.011
 -- Virtual --
  0.175   0.190   0.190   0.190   0.235   0.235   0.235   0.264
  0.264   0.277   0.277   0.277   0.288   0.293   0.293   0.293
  0.324   0.325   0.325   0.331   0.331   0.331   0.335   0.411
  0.411   0.457   0.457   0.457   0.530   0.530   0.530   0.559
  0.559   0.559   0.575   0.575   0.580   0.580   0.580   0.630
  0.630   0.631   0.648   0.701   0.701   0.702   0.724   0.724
  0.729   0.746   0.746   0.746   0.818   0.840   0.840   0.840
  0.843   0.843   0.843   0.899   0.899   0.899   0.960   0.960
  1.048   1.056   1.056   1.056   1.103   1.103   1.145   1.145
  1.145   1.173   1.173   1.173   1.349   1.349   1.350   1.352
  1.352   1.352   1.378   1.378   1.391   1.391   1.391   1.395
  1.395   1.396   1.410   1.443   1.450   1.450   1.450   1.481
  1.481   1.481   1.488   1.488   1.488   1.490   1.490   1.582
  1.582   1.582   1.599   1.609   1.609   1.741   1.741   1.741
  1.796   1.814   1.814   1.814   1.863   1.863   1.863   1.911
  1.911   1.911   1.937   1.937   1.937   2.064   2.088   2.088
  2.201   2.201   2.202   2.418   2.483   2.483   2.518   2.519
  2.519   2.526   2.526   2.527   2.639   2.639   2.639   2.692
  2.692   2.692   2.805   2.805   2.805   2.958   3.951   3.952
  4.211   4.212   4.214   4.656   4.660   4.660   4.661   4.661
  4.662   4.662   4.681   4.681   4.693   4.742   4.742   4.742
  4.767   4.767   4.767   4.799   4.841   4.841   4.852   4.852
  4.852   4.859   4.859   4.859   4.880   4.880   4.880   5.333
  5.334   5.337   5.338   5.338   5.347   5.348   5.350   5.444
  5.445   5.445   5.485   5.485   5.486   5.526   5.590   5.591
  5.638   5.639   5.639   6.508  10.088  10.089  10.089  10.243
 11.827  11.828  11.828  17.760  17.839  17.841  17.920  17.978
 20.784  20.784  20.822  20.822  20.822  20.874  20.874  20.874
 21.069  21.078  21.078  21.079  22.330  22.331  22.337  22.339
 22.340  22.341  22.352  27.305  27.308  27.315  27.328  27.354
 27.365  27.382  27.383  27.384  27.392  27.403  27.411  27.425
 27.427  27.434  27.452  27.459  27.477  27.482  27.485  37.020
 37.020  37.020  37.020  37.021  37.021  37.022  37.023  37.024
 37.025  37.028  37.030  37.031  37.034  37.036  37.036  37.042
 37.043  37.043  37.045  37.046  37.046  37.046  37.046  37.047
 37.049  37.049  37.049 141.463 215.996 215.997 215.997 216.181
 
 Beta MOs
 -- Occupied --
*******-100.732-100.731-100.731 -65.563  -9.258  -9.257  -9.257
 -9.257  -7.070  -7.069  -7.069  -7.069  -7.066  -7.066  -7.065
 -7.065  -7.065  -7.065  -7.065  -7.065  -5.214  -3.614  -3.613
 -3.613  -0.859  -0.815  -0.815  -0.814  -0.492  -0.380  -0.380
 -0.380  -0.320  -0.320  -0.303  -0.303  -0.303  -0.280  -0.280
 -0.280
 -- Virtual --
  0.165   0.194   0.194   0.194   0.227   0.243   0.243   0.243
  0.266   0.266   0.288   0.289   0.289   0.295   0.295   0.295
  0.304   0.328   0.328   0.328   0.335   0.335   0.335   0.336
  0.414   0.414   0.467   0.467   0.467   0.532   0.532   0.532
  0.560   0.560   0.560   0.576   0.576   0.588   0.588   0.588
  0.635   0.635   0.635   0.656   0.706   0.706   0.706   0.727
  0.727   0.734   0.759   0.760   0.760   0.831   0.843   0.843
  0.844   0.845   0.845   0.845   0.903   0.903   0.903   0.975
  0.975   1.054   1.058   1.058   1.058   1.105   1.105   1.151
  1.151   1.151   1.180   1.181   1.181   1.356   1.356   1.356
  1.358   1.358   1.358   1.382   1.382   1.394   1.395   1.395
  1.400   1.400   1.400   1.417   1.443   1.456   1.456   1.456
  1.486   1.486   1.486   1.489   1.489   1.490   1.495   1.495
  1.587   1.587   1.587   1.601   1.615   1.615   1.744   1.744
  1.744   1.801   1.821   1.821   1.821   1.865   1.866   1.866
  1.915   1.915   1.915   1.940   1.940   1.940   2.071   2.091
  2.091   2.208   2.209   2.209   2.435   2.485   2.485   2.521
  2.521   2.522   2.544   2.544   2.544   2.642   2.642   2.642
  2.710   2.710   2.710   2.813   2.814   2.814   2.969   3.957
  3.958   4.217   4.218   4.220   4.659   4.664   4.664   4.664
  4.665   4.665   4.665   4.687   4.687   4.697   4.748   4.749
  4.749   4.775   4.775   4.775   4.807   4.849   4.849   4.859
  4.859   4.859   4.866   4.866   4.866   4.887   4.887   4.888
  5.334   5.335   5.338   5.339   5.339   5.349   5.349   5.351
  5.446   5.447   5.447   5.487   5.487   5.488   5.529   5.593
  5.593   5.641   5.642   5.642   6.515  10.090  10.091  10.091
 10.245  11.832  11.832  11.832  17.766  17.844  17.847  17.925
 17.984  20.785  20.785  20.823  20.823  20.823  20.875  20.875
 20.875  21.072  21.081  21.082  21.082  22.333  22.334  22.340
 22.342  22.343  22.344  22.355  27.306  27.309  27.316  27.329
 27.356  27.367  27.384  27.385  27.385  27.394  27.405  27.413
 27.427  27.429  27.436  27.455  27.461  27.479  27.484  27.488
 37.020  37.020  37.020  37.021  37.021  37.021  37.022  37.023
 37.024  37.025  37.029  37.031  37.032  37.035  37.037  37.037
 37.043  37.044  37.044  37.046  37.046  37.047  37.047  37.047
 37.048  37.050  37.050  37.050 141.467 215.998 215.998 215.998
216.182
 --------------------------------------------------------------
 
          Ground-State Mulliken Net Atomic Charges

     Atom                 Charge (a.u.)    Spin (a.u.)
  --------------------------------------------------------
      1 Si                    0.969341       0.819162
      2 Cl                   -0.491872       0.045039
      3 Cl                   -0.491997       0.044655
      4 Cl                   -0.493403       0.046568
      5 Cl                   -0.492070       0.044577
  --------------------------------------------------------
  Sum of atomic charges =    -1.000000
  Sum of spin   charges =     1.000000

 -----------------------------------------------------------------
                    Cartesian Multipole Moments
 -----------------------------------------------------------------
    Charge (ESU x 10^10)
                -4.8032
    Dipole Moment (Debye)
         X      -0.0219      Y       0.0162      Z      -0.0059
       Tot       0.0279
    Quadrupole Moments (Debye-Ang)
        XX     -78.2962     XY      -0.0349     YY     -78.2092
        XZ       0.0322     YZ      -0.0245     ZZ     -78.2795
    Octapole Moments (Debye-Ang^2)
       XXX     -12.4408    XXY       0.0531    XYY      12.1690
       YYY       0.1596    XXZ       8.7141    XYZ       0.0442
       YYZ       8.6018    XZZ      -0.0310    YZZ       0.0219
       ZZZ     -17.3997
    Hexadecapole Moments (Debye-Ang^3)
      XXXX    -629.0161   XXXY      -0.2537   XXYY    -209.4389
      XYYY      -0.2758   YYYY    -627.7402   XXXZ       8.4954
      XXYZ      -0.0647   XYYZ      -8.1680   YYYZ      -0.1942
      XXZZ    -203.7846   XYZZ      -0.0871   YYZZ    -203.5768
      XZZZ       0.2166   YZZZ      -0.1762   ZZZZ    -634.6118
 -----------------------------------------------------------------
 Total job time:  461.29s(wall), 456.60s(cpu) 
 Tue Jun  4 16:50:16 2013

        *************************************************************
        *                                                           *
        *  Thank you very much for using Q-Chem.  Have a nice day.  *
        *                                                           *
        *************************************************************


0 sent ACK to 0 
now end server 0 ... 
 
**********************************************************************
Job 2 of 3 
**********************************************************************
 
Process 0 of 1 is on cl229.stfx.acenet.ca - thread support 1
initial socket setup ...start
initial socket setup ...done 
now start server 0 ... 

cmd = /usr/bin/ssh clhead /usr/local/qchem/bin/get_hostid 1106491407 > /scratch/tmp/6029098.1.long.q/qchem25434/lic.dat
                  Welcome to Q-Chem
     A Quantum Leap Into The Future Of Chemistry

 Y. Shao, L. Fusti-Molnar, Y. Jung, J. Kussmann, C. Ochsenfeld,
 S. T. Brown, A. T. B. Gilbert, L. V. Slipchenko,S. V. Levchenko,
 D. P. O'Neill, R. A. DiStasio Jr., R. C. Lochan, T. Wang,
 G. J. O. Beran, N. A. Besley, J. M. Herbert, C. Y. Lin,
 T. Van Voorhis, S. H. Chien, A. Sodt, R. P. Steele, 
 V. A. Rassolov, P. E. Maslen, P. P. Korambath, R. D. Adamson,
 B. Austin, J. Baker, E. F. C. Byrd, H. Dachsel, R. J. Doerksen,
 A. Dreuw, B. D. Dunietz, A. D. Dutoi, T. R. Furlani,
 S. R. Gwaltney, A. Heyden, S. Hirata, C.-P. Hsu, G. Kedziora,
 R. Z. Khaliullin, P. Klunzinger, A. M. Lee, M. S. Lee, W. Liang,
 I. Lotan, N. Nair, B. Peters, E. I. Proynov, P. A. Pieniazek, 
 Y. M. Rhee, J. Ritchie, E. Rosta, C. D. Sherrill, 
 A. C. Simmonett, J. E. Subotnik, H. L. Woodcock III,
 W. Zhang, A. T. Bell, A. K. Chakraborty, D. M. Chipman,
 F. J. Keil, A. Warshel, W. J. Hehre, H. F. Schaefer III,
 J. Kong, A. I. Krylov, P. M. W. Gill, M. Head-Gordon,
 Q-Chem, Version 3.1, Q-Chem, Inc., Pittsburgh, PA (2007).

 Additional authors for Version 3.1: 
 Z. Gan, Y. Zhao, N. E. Schultz, D. Truhlar, E. Epifanovsky and M. Oana.

 Additional authors for Version 3.2: 
 R. Baer, B. R. Brooks, D. Casanova, J.-D. Chai, C.-L. Cheng, 
 C. Cramer, D. Crittenden, A. Ghysels, G. Hawkins, E. G. Hohenstein, 
 C. Kelley, W. Kurlancheek, D. Liotard, E. Livshits, P. Manohar, 
 A. Marenich, D. Neuhauser, R. Olson, M. A. Rohrdanz, K. S. Thanthiriwatte, 
 A. J. W. Thom, V. Vanovschi, C. F. Williams, Q. Wu and Z.-Q. You. 


 Intel X86 Linux Version

 Q-chem begins on Tue Jun  4 16:50:19 2013  

 Parallel job on  1  processors
Processing $rem in /usr/local/qchem/config/preferences.

theFileMan(): MAXOPENFILES=974 MAX_SUB_FILE_NUM=16
Maximum size of a physical file is 2.0 GB, maximum size of a tmp-file is 32.0 GB


--------------------------------------------------------------
User input:
--------------------------------------------------------------

$molecule
0,1
Si        -0.00000        0.00000       -0.00000
Cl        -0.00000       -0.00000        2.09442
Cl         1.97464       -0.00000       -0.69814
Cl        -0.98732        1.71009       -0.69814
Cl        -0.98732       -1.71009       -0.69814
$end

$comment
neutral
$end

$xc_functional
C PBE   1.00
X wPBE  1.00
$end


$rem
SYMMETRY_DECOMPOSITION	0
LRC_DFT                 true
exchange 		general
BASIS                   g3large
omega			450
mem_static              760
max_scf_cycles          200
scf_final_print         1
sym_ignore              true
$end

--------------------------------------------------------------
 Writing REM_CC_EA            5
 ----------------------------------------------------
       Standard Nuclear Orientation (Angstroms)
    I     Atom         X            Y            Z
 ----------------------------------------------------
    1      Si      0.000000     0.000000     0.000000
    2      Cl      0.000000     0.000000     2.094420
    3      Cl      1.974640     0.000000    -0.698140
    4      Cl     -0.987320     1.710090    -0.698140
    5      Cl     -0.987320    -1.710090    -0.698140
 ----------------------------------------------------
 Nuclear Repulsion Energy =   508.8208325231 hartrees
 There are       41 alpha and       41 beta electrons
 Requested basis set is G3large
 There are 95 shells and 330 basis functions

Total QAlloc Memory Limit   2000 MB
Mega-Array Size       743 MB
MEM_STATIC part       760 MB

                       Distance Matrix (Angstroms)
             Si(  1)   Cl(  2)   Cl(  3)   Cl(  4)
   Cl(  2)  2.094420
   Cl(  3)  2.094422  3.420175
   Cl(  4)  2.094423  3.420175  3.420178
   Cl(  5)  2.094423  3.420175  3.420178  3.420180
 
 A cutoff of  1.0D-08 yielded   3394 shell pairs
 There are  42765 function pairs ( 61004 Cartesian)
Evaluating contribution to one-electron hamiltonian from nuclear
 Smallest overlap matrix eigenvalue = 3.17E-04
 Multipole matrices computed through 2nd order

  Scale SEOQF with 1.000000e-01/1.000000e-01/1.000000e-01

 Standard Electronic Orientation quadrupole field applied
 Guess from superposition of atomic densities
 Warning:  Energy on first SCF cycle will be non-variational
 Long-range K will be added via erf
 Coulomb attenuation parameter = 0.45 bohr**(-1)
 A restricted Kohn-Sham SCF calculation will be
 performed using Pulay DIIS extrapolation
 Exchange:  wPBE + LR-HF      Correlation:  PBE
 Using SG-1 standard quadrature grid
 SCF converges when DIIS error is below 1.0E-05
 Requested basis set is G3large
 There are 95 shells and 330 basis functions
 A cutoff of  1.0D-08 yielded   3394 shell pairs
 There are  42765 function pairs ( 61004 Cartesian)
 ---------------------------------------
  Cycle       Energy         DIIS Error
 ---------------------------------------
    1   -2130.3938392961      1.70E-02
    2   -2129.8062211527      2.41E-03
    3   -2129.8409623626      2.28E-03
    4   -2129.8996116342      1.71E-04
    5   -2129.9002498313      6.41E-05
    6   -2129.9003579731      2.42E-05
    7   -2129.9003702404      5.51E-06 Convergence criterion met
 ---------------------------------------
 One-Electron    Energy = -3957.2828964797
 Total Coulomb   Energy =  1451.8906412821
 Alpha Exchange  Energy =    -9.4776367740
 Beta  Exchange  Energy =    -9.4776367740
 DFT   Exchange  Energy =  -111.1728363487
 DFT Correlation Energy =    -3.2008376692
 Nuclear Repu.   Energy =   508.8208325231
 Nuclear Attr.   Energy = -6083.7198902139
 Kinetic         Energy =  2126.4369937342
 SCF time:  CPU 344.41 s  wall 348.75 s
 Final Alpha MO Eigenvalues
            1           2           3           4           5           6
    1-100.9350457-100.9349724-100.9349633-100.9348884 -65.8261225  -9.4583078
            7           8           9          10          11          12
    1  -9.4582666  -9.4582588  -9.4581978  -7.2730055  -7.2728798  -7.2728509
           13          14          15          16          17          18
    1  -7.2727484  -7.2656826  -7.2656812  -7.2656717  -7.2656640  -7.2655803
           19          20          21          22          23          24
    1  -7.2655710  -7.2655643  -7.2654630  -5.4680822  -3.8679358  -3.8679174
           25          26          27          28          29          30
    1  -3.8679111  -1.0596586  -1.0113499  -1.0113373  -1.0113146  -0.6981945
           31          32          33          34          35          36
    1  -0.5787286  -0.5787209  -0.5787167  -0.5090706  -0.5090670  -0.4939634
           37          38          39          40          41          42
    1  -0.4939456  -0.4939293  -0.4685802  -0.4685655  -0.4685531   0.0196397
           43          44          45          46
    1   0.0557514   0.0691603   0.0691705   0.0691730
 Analysis of SCF Wavefunction
 
 --------------------------------------------------------------
                    Orbital Energies (a.u.)
 --------------------------------------------------------------
 
 Alpha MOs
 -- Occupied --
*******-100.935-100.935-100.935 -65.826  -9.458  -9.458  -9.458
 -9.458  -7.273  -7.273  -7.273  -7.273  -7.266  -7.266  -7.266
 -7.266  -7.266  -7.266  -7.266  -7.265  -5.468  -3.868  -3.868
 -3.868  -1.060  -1.011  -1.011  -1.011  -0.698  -0.579  -0.579
 -0.579  -0.509  -0.509  -0.494  -0.494  -0.494  -0.469  -0.469
 -0.469
 -- Virtual --
  0.020   0.056   0.069   0.069   0.069   0.091   0.091   0.091
  0.131   0.131   0.131   0.137   0.137   0.163   0.172   0.172
  0.172   0.189   0.189   0.189   0.201   0.208   0.208   0.208
  0.227   0.227   0.292   0.292   0.292   0.370   0.370   0.370
  0.385   0.385   0.385   0.402   0.402   0.425   0.425   0.425
  0.462   0.462   0.462   0.489   0.544   0.544   0.544   0.566
  0.566   0.577   0.577   0.577   0.577   0.649   0.665   0.665
  0.665   0.678   0.678   0.678   0.736   0.736   0.736   0.771
  0.771   0.870   0.881   0.881   0.881   0.929   0.929   0.964
  0.965   0.965   0.995   0.995   0.995   1.167   1.167   1.167
  1.173   1.173   1.173   1.200   1.200   1.213   1.213   1.213
  1.218   1.218   1.218   1.232   1.268   1.268   1.268   1.268
  1.304   1.304   1.304   1.307   1.307   1.309   1.309   1.309
  1.400   1.400   1.400   1.424   1.428   1.428   1.555   1.555
  1.555   1.625   1.631   1.631   1.631   1.683   1.683   1.683
  1.730   1.730   1.730   1.760   1.760   1.760   1.876   1.906
  1.906   2.009   2.009   2.009   2.219   2.297   2.297   2.328
  2.328   2.328   2.335   2.335   2.335   2.456   2.456   2.456
  2.493   2.493   2.493   2.610   2.610   2.610   2.765   3.721
  3.722   3.986   3.987   3.989   4.467   4.471   4.471   4.471
  4.472   4.472   4.473   4.490   4.490   4.504   4.551   4.551
  4.552   4.576   4.576   4.576   4.605   4.648   4.648   4.660
  4.661   4.661   4.668   4.668   4.668   4.689   4.690   4.690
  5.139   5.140   5.143   5.144   5.145   5.153   5.154   5.155
  5.249   5.250   5.250   5.289   5.290   5.290   5.329   5.396
  5.397   5.438   5.439   5.440   6.275   9.893   9.893   9.893
 10.048  11.581  11.581  11.581  17.512  17.590  17.593  17.672
 17.730  20.586  20.586  20.623  20.623  20.624  20.675  20.676
 20.676  20.868  20.878  20.878  20.878  22.079  22.080  22.086
 22.088  22.089  22.090  22.101  27.106  27.108  27.116  27.129
 27.155  27.165  27.182  27.184  27.185  27.193  27.202  27.212
 27.225  27.227  27.234  27.252  27.259  27.277  27.282  27.285
 36.820  36.821  36.821  36.821  36.821  36.822  36.822  36.823
 36.824  36.826  36.828  36.829  36.830  36.833  36.835  36.835
 36.840  36.842  36.842  36.844  36.845  36.845  36.845  36.845
 36.846  36.848  36.848  36.848 141.204 215.795 215.795 215.795
215.979
 --------------------------------------------------------------
 
          Ground-State Mulliken Net Atomic Charges

     Atom                 Charge (a.u.)
  ----------------------------------------
      1 Si                    1.506274
      2 Cl                   -0.376456
      3 Cl                   -0.377065
      4 Cl                   -0.376423
      5 Cl                   -0.376329
  ----------------------------------------
  Sum of atomic charges =     0.000000

 -----------------------------------------------------------------
                    Cartesian Multipole Moments
 -----------------------------------------------------------------
    Charge (ESU x 10^10)
                 0.0000
    Dipole Moment (Debye)
         X       0.0005      Y      -0.0014      Z       0.0011
       Tot       0.0018
    Quadrupole Moments (Debye-Ang)
        XX     -62.5341     XY      -0.0002     YY     -62.5320
        XZ       0.0015     YZ       0.0008     ZZ     -62.5307
    Octapole Moments (Debye-Ang^2)
       XXX       2.5262    XXY      -0.0024    XYY      -2.5262
       YYY      -0.0071    XXZ      -1.7828    XYZ      -0.0001
       YYZ      -1.7863    XZZ      -0.0021    YZZ      -0.0023
       ZZZ       3.5776
    Hexadecapole Moments (Debye-Ang^3)
      XXXX    -491.2706   XXXY      -0.0046   XXYY    -163.7563
      XYYY      -0.0005   YYYY    -491.2493   XXXZ      -5.6118
      XXYZ       0.0007   XYYZ       5.6216   YYYZ       0.0019
      XXZZ    -167.7260   XYZZ      -0.0012   YYZZ    -167.7225
      XZZZ       0.0073   YZZZ      -0.0019   ZZZZ    -487.2686
 -----------------------------------------------------------------
 Total job time:  349.37s(wall), 345.02s(cpu) 
 Tue Jun  4 16:56:08 2013

        *************************************************************
        *                                                           *
        *  Thank you very much for using Q-Chem.  Have a nice day.  *
        *                                                           *
        *************************************************************


0 sent ACK to 0 
now end server 0 ... 
 
**********************************************************************
Job 3 of 3 
**********************************************************************
 
Process 0 of 1 is on cl229.stfx.acenet.ca - thread support 1
initial socket setup ...start
initial socket setup ...done 
now start server 0 ... 

cmd = /usr/bin/ssh clhead /usr/local/qchem/bin/get_hostid 42801115 > /scratch/tmp/6029098.1.long.q/qchem25434/lic.dat
                  Welcome to Q-Chem
     A Quantum Leap Into The Future Of Chemistry

 Y. Shao, L. Fusti-Molnar, Y. Jung, J. Kussmann, C. Ochsenfeld,
 S. T. Brown, A. T. B. Gilbert, L. V. Slipchenko,S. V. Levchenko,
 D. P. O'Neill, R. A. DiStasio Jr., R. C. Lochan, T. Wang,
 G. J. O. Beran, N. A. Besley, J. M. Herbert, C. Y. Lin,
 T. Van Voorhis, S. H. Chien, A. Sodt, R. P. Steele, 
 V. A. Rassolov, P. E. Maslen, P. P. Korambath, R. D. Adamson,
 B. Austin, J. Baker, E. F. C. Byrd, H. Dachsel, R. J. Doerksen,
 A. Dreuw, B. D. Dunietz, A. D. Dutoi, T. R. Furlani,
 S. R. Gwaltney, A. Heyden, S. Hirata, C.-P. Hsu, G. Kedziora,
 R. Z. Khaliullin, P. Klunzinger, A. M. Lee, M. S. Lee, W. Liang,
 I. Lotan, N. Nair, B. Peters, E. I. Proynov, P. A. Pieniazek, 
 Y. M. Rhee, J. Ritchie, E. Rosta, C. D. Sherrill, 
 A. C. Simmonett, J. E. Subotnik, H. L. Woodcock III,
 W. Zhang, A. T. Bell, A. K. Chakraborty, D. M. Chipman,
 F. J. Keil, A. Warshel, W. J. Hehre, H. F. Schaefer III,
 J. Kong, A. I. Krylov, P. M. W. Gill, M. Head-Gordon,
 Q-Chem, Version 3.1, Q-Chem, Inc., Pittsburgh, PA (2007).

 Additional authors for Version 3.1: 
 Z. Gan, Y. Zhao, N. E. Schultz, D. Truhlar, E. Epifanovsky and M. Oana.

 Additional authors for Version 3.2: 
 R. Baer, B. R. Brooks, D. Casanova, J.-D. Chai, C.-L. Cheng, 
 C. Cramer, D. Crittenden, A. Ghysels, G. Hawkins, E. G. Hohenstein, 
 C. Kelley, W. Kurlancheek, D. Liotard, E. Livshits, P. Manohar, 
 A. Marenich, D. Neuhauser, R. Olson, M. A. Rohrdanz, K. S. Thanthiriwatte, 
 A. J. W. Thom, V. Vanovschi, C. F. Williams, Q. Wu and Z.-Q. You. 


 Intel X86 Linux Version

 Q-chem begins on Tue Jun  4 16:56:11 2013  

 Parallel job on  1  processors
Processing $rem in /usr/local/qchem/config/preferences.

theFileMan(): MAXOPENFILES=974 MAX_SUB_FILE_NUM=16
Maximum size of a physical file is 2.0 GB, maximum size of a tmp-file is 32.0 GB


--------------------------------------------------------------
User input:
--------------------------------------------------------------

$molecule
1,2
Si        -0.00000        0.00000       -0.00000
Cl        -0.00000       -0.00000        2.09442
Cl         1.97464       -0.00000       -0.69814
Cl        -0.98732        1.71009       -0.69814
Cl        -0.98732       -1.71009       -0.69814
$end

$comment
positive
$end

$xc_functional
C PBE   1.00
X wPBE  1.00
$end

$rem
SYMMETRY_DECOMPOSITION	0
LRC_DFT                 true
exchange 		general
BASIS                   g3large
omega			450
mem_static              760
max_scf_cycles          200
scf_final_print         1
sym_ignore              true
$end

--------------------------------------------------------------
 Writing REM_CC_EA            5
 ----------------------------------------------------
       Standard Nuclear Orientation (Angstroms)
    I     Atom         X            Y            Z
 ----------------------------------------------------
    1      Si      0.000000     0.000000     0.000000
    2      Cl      0.000000     0.000000     2.094420
    3      Cl      1.974640     0.000000    -0.698140
    4      Cl     -0.987320     1.710090    -0.698140
    5      Cl     -0.987320    -1.710090    -0.698140
 ----------------------------------------------------
 Nuclear Repulsion Energy =   508.8208325231 hartrees
 There are       41 alpha and       40 beta electrons
 Requested basis set is G3large
 There are 95 shells and 330 basis functions

Total QAlloc Memory Limit   2000 MB
Mega-Array Size       743 MB
MEM_STATIC part       760 MB

                       Distance Matrix (Angstroms)
             Si(  1)   Cl(  2)   Cl(  3)   Cl(  4)
   Cl(  2)  2.094420
   Cl(  3)  2.094422  3.420175
   Cl(  4)  2.094423  3.420175  3.420178
   Cl(  5)  2.094423  3.420175  3.420178  3.420180
 
 A cutoff of  1.0D-08 yielded   3394 shell pairs
 There are  42765 function pairs ( 61004 Cartesian)
Evaluating contribution to one-electron hamiltonian from nuclear
 Smallest overlap matrix eigenvalue = 3.17E-04
 Multipole matrices computed through 2nd order

  Scale SEOQF with 1.000000e-01/1.000000e-01/1.000000e-01

 Standard Electronic Orientation quadrupole field applied
 Guess from superposition of atomic densities
 Warning:  Energy on first SCF cycle will be non-variational
 Long-range K will be added via erf
 Coulomb attenuation parameter = 0.45 bohr**(-1)
 An unrestricted Kohn-Sham SCF calculation will be
 performed using Pulay DIIS extrapolation
 Exchange:  wPBE + LR-HF      Correlation:  PBE
 Using SG-1 standard quadrature grid
 SCF converges when DIIS error is below 1.0E-05
 Requested basis set is G3large
 There are 95 shells and 330 basis functions
 A cutoff of  1.0D-08 yielded   3394 shell pairs
 There are  42765 function pairs ( 61004 Cartesian)
 Warning!  Inaccurate integrated density:
   Number of electrons =    81
   Numerical integral  =    81.999884338267
   Relative error      =     1.2344251090 %
 ---------------------------------------
  Cycle       Energy         DIIS Error
 ---------------------------------------
    1   -2130.3938392961      1.70E-02
    2   -2129.2955846358      2.72E-03
    3   -2129.3525556635      2.64E-03
    4   -2129.4354244503      2.62E-04
    5   -2129.4372219320      1.08E-04
    6   -2129.4379605750      6.21E-05
    7   -2129.4383769404      3.55E-05
    8   -2129.4387502339      3.23E-05
    9   -2129.4391296655      2.30E-05
   10   -2129.4394092080      2.16E-05
   11   -2129.4395655453      2.03E-05
   12   -2129.4397409574      2.06E-05
   13   -2129.4399031234      1.78E-05
   14   -2129.4400733230      1.93E-05
   15   -2129.4403204541      8.52E-06 Convergence criterion met
 ---------------------------------------
 One-Electron    Energy = -3939.7163469734
 Total Coulomb   Energy =  1434.3924786175
 Alpha Exchange  Energy =    -9.4994795720
 Beta  Exchange  Energy =    -9.2405511611
 DFT   Exchange  Energy =  -111.0373418354
 DFT Correlation Energy =    -3.1599120527
 Nuclear Repu.   Energy =   508.8208325231
 Nuclear Attr.   Energy = -6065.7433782065
 Kinetic         Energy =  2126.0270312331
 <S^2> = 0.7646
 SCF time:  CPU 931.94 s  wall 934.10 s
 Final Alpha MO Eigenvalues
            1           2           3           4           5           6
    1-101.2533487-101.1553939-101.1261657-101.1088644 -66.0244488  -9.7724540
            7           8           9          10          11          12
    1  -9.6761639  -9.6475957  -9.6307319  -7.5934112  -7.5819738  -7.5753939
           13          14          15          16          17          18
    1  -7.4913198  -7.4866359  -7.4816704  -7.4624930  -7.4565022  -7.4541131
           19          20          21          22          23          24
    1  -7.4462034  -7.4380806  -7.4377214  -5.6668410  -4.0682482  -4.0660821
           25          26          27          28          29          30
    1  -4.0654535  -1.3261404  -1.2401867  -1.2052590  -1.1847621  -0.9151329
           31          32          33          34          35          36
    1  -0.8270722  -0.8081692  -0.7891347  -0.7527241  -0.7345577  -0.7100076
           37          38          39          40          41          42
    1  -0.6894301  -0.6781813  -0.6691010  -0.6523395  -0.6433175  -0.1796348
           43          44          45          46
    1  -0.1174136  -0.1123866  -0.1048394  -0.0893262
 Final Beta MO Eigenvalues
            1           2           3           4           5           6
    1-101.2486431-101.1536897-101.1254828-101.1088134 -66.0245987  -9.7681540
            7           8           9          10          11          12
    1  -9.6746290  -9.6469819  -9.6306879  -7.5810750  -7.5793869  -7.5721595
           13          14          15          16          17          18
    1  -7.4891153  -7.4832613  -7.4807347  -7.4619625  -7.4548514  -7.4536859
           19          20          21          22          23          24
    1  -7.4461943  -7.4379519  -7.4376696  -5.6670485  -4.0685323  -4.0664103
           25          26          27          28          29          30
    1  -4.0656110  -1.2880371  -1.2257191  -1.1973255  -1.1830427  -0.9083087
           31          32          33          34          35          36
    1  -0.8027666  -0.7816496  -0.7608506  -0.7300348  -0.6849998  -0.6755660
           37          38          39          40          41          42
    1  -0.6662094  -0.6558634  -0.6458127  -0.6404569  -0.4478564  -0.1745273
           43          44          45
    1  -0.1130178  -0.1084894  -0.1021232
 Analysis of SCF Wavefunction
 
 --------------------------------------------------------------
                    Orbital Energies (a.u.)
 --------------------------------------------------------------
 
 Alpha MOs
 -- Occupied --
*******-101.155-101.126-101.109 -66.024  -9.772  -9.676  -9.648
 -9.631  -7.593  -7.582  -7.575  -7.491  -7.487  -7.482  -7.462
 -7.457  -7.454  -7.446  -7.438  -7.438  -5.667  -4.068  -4.066
 -4.065  -1.326  -1.240  -1.205  -1.185  -0.915  -0.827  -0.808
 -0.789  -0.753  -0.735  -0.710  -0.689  -0.678  -0.669  -0.652
 -0.643
 -- Virtual --
 -0.180  -0.117  -0.112  -0.105  -0.089  -0.050  -0.047  -0.046
 -0.014  -0.007  -0.002   0.000   0.000   0.014   0.020   0.027
  0.035   0.038   0.043   0.046   0.050   0.050   0.069   0.072
  0.078   0.081   0.115   0.119   0.124   0.165   0.167   0.200
  0.202   0.204   0.213   0.226   0.233   0.247   0.249   0.259
  0.270   0.280   0.298   0.321   0.361   0.368   0.371   0.388
  0.392   0.397   0.400   0.401   0.418   0.467   0.477   0.478
  0.480   0.482   0.497   0.518   0.562   0.566   0.567   0.579
  0.580   0.676   0.687   0.699   0.700   0.733   0.741   0.765
  0.782   0.785   0.803   0.804   0.810   0.938   0.941   0.951
  0.967   0.977   0.982   0.983   0.993   0.996   1.016   1.021
  1.026   1.032   1.042   1.050   1.056   1.058   1.080   1.082
  1.087   1.100   1.112   1.116   1.120   1.126   1.134   1.137
  1.189   1.203   1.214   1.235   1.238   1.240   1.335   1.350
  1.375   1.407   1.437   1.444   1.458   1.483   1.489   1.495
  1.534   1.537   1.549   1.564   1.570   1.574   1.674   1.714
  1.717   1.795   1.819   1.828   2.015   2.051   2.072   2.121
  2.130   2.132   2.133   2.144   2.155   2.252   2.254   2.268
  2.289   2.295   2.304   2.370   2.416   2.432   2.567   3.520
  3.522   3.778   3.792   3.796   4.156   4.158   4.223   4.228
  4.262   4.263   4.286   4.290   4.294   4.301   4.307   4.319
  4.324   4.352   4.360   4.367   4.400   4.415   4.428   4.439
  4.455   4.462   4.468   4.474   4.478   4.489   4.497   4.503
  4.839   4.841   4.926   4.929   4.938   4.951   4.960   4.968
  5.011   5.014   5.055   5.074   5.082   5.093   5.106   5.190
  5.194   5.198   5.241   5.260   6.077   9.604   9.689   9.715
  9.843  11.380  11.384  11.385  17.314  17.392  17.393  17.473
 17.532  20.298  20.314  20.394  20.411  20.430  20.463  20.476
 20.486  20.571  20.659  20.687  20.703  21.881  21.881  21.887
 21.890  21.891  21.892  21.903  26.790  26.866  26.881  26.905
 26.914  26.924  26.931  26.948  26.961  26.975  26.987  27.002
 27.005  27.017  27.031  27.048  27.057  27.070  27.081  27.106
 36.504  36.505  36.517  36.520  36.525  36.532  36.537  36.603
 36.606  36.612  36.615  36.622  36.624  36.625  36.634  36.635
 36.643  36.645  36.649  36.652  36.652  36.653  36.656  36.662
 36.664  36.668  36.669  36.672 141.006 215.497 215.586 215.614
215.767
 
 Beta MOs
 -- Occupied --
*******-101.154-101.125-101.109 -66.025  -9.768  -9.675  -9.647
 -9.631  -7.581  -7.579  -7.572  -7.489  -7.483  -7.481  -7.462
 -7.455  -7.454  -7.446  -7.438  -7.438  -5.667  -4.069  -4.066
 -4.066  -1.288  -1.226  -1.197  -1.183  -0.908  -0.803  -0.782
 -0.761  -0.730  -0.685  -0.676  -0.666  -0.656  -0.646  -0.640
 -- Virtual --
 -0.448  -0.175  -0.113  -0.108  -0.102  -0.089  -0.049  -0.047
 -0.046  -0.012  -0.004  -0.002   0.001   0.002   0.017   0.028
  0.030   0.038   0.040   0.043   0.048   0.050   0.052   0.069
  0.075   0.080   0.081   0.122   0.124   0.127   0.183   0.184
  0.204   0.207   0.210   0.215   0.230   0.235   0.251   0.259
  0.261   0.278   0.283   0.300   0.322   0.372   0.374   0.374
  0.391   0.395   0.399   0.401   0.404   0.418   0.471   0.481
  0.482   0.483   0.493   0.500   0.519   0.565   0.567   0.570
  0.580   0.581   0.678   0.689   0.700   0.703   0.740   0.743
  0.767   0.784   0.786   0.808   0.809   0.812   0.958   0.959
  0.961   0.979   0.983   0.990   0.990   0.995   1.008   1.024
  1.027   1.029   1.037   1.044   1.052   1.061   1.070   1.085
  1.088   1.096   1.102   1.116   1.120   1.125   1.129   1.135
  1.138   1.196   1.209   1.216   1.240   1.242   1.242   1.344
  1.354   1.377   1.416   1.443   1.447   1.459   1.490   1.492
  1.498   1.538   1.541   1.551   1.572   1.573   1.578   1.678
  1.719   1.719   1.798   1.821   1.829   2.016   2.078   2.080
  2.128   2.131   2.132   2.134   2.146   2.156   2.254   2.261
  2.274   2.291   2.295   2.303   2.375   2.418   2.432   2.568
  3.521   3.522   3.778   3.792   3.796   4.199   4.202   4.247
  4.252   4.275   4.276   4.292   4.296   4.300   4.316   4.323
  4.328   4.328   4.362   4.369   4.371   4.408   4.426   4.432
  4.447   4.459   4.467   4.474   4.477   4.481   4.491   4.500
  4.507   4.852   4.855   4.930   4.934   4.944   4.954   4.962
  4.969   5.013   5.019   5.058   5.076   5.083   5.097   5.106
  5.193   5.196   5.199   5.242   5.260   6.076   9.613   9.692
  9.716   9.845  11.380  11.383  11.384  17.314  17.391  17.393
 17.473  17.532  20.315  20.319  20.400  20.413  20.432  20.465
 20.477  20.488  20.575  20.661  20.687  20.703  21.881  21.881
 21.887  21.890  21.890  21.891  21.903  26.801  26.878  26.883
 26.909  26.920  26.929  26.933  26.949  26.962  26.978  26.988
 27.004  27.007  27.019  27.032  27.049  27.059  27.071  27.081
 27.106  36.509  36.509  36.521  36.523  36.529  36.533  36.538
 36.605  36.607  36.614  36.616  36.623  36.625  36.626  36.634
 36.635  36.643  36.645  36.649  36.652  36.653  36.653  36.657
 36.662  36.664  36.668  36.669  36.672 141.006 215.502 215.588
215.614 215.768
 --------------------------------------------------------------
 
          Ground-State Mulliken Net Atomic Charges

     Atom                 Charge (a.u.)    Spin (a.u.)
  --------------------------------------------------------
      1 Si                    1.444663      -0.090663
      2 Cl                    0.141145       0.742640
      3 Cl                   -0.209051       0.092288
      4 Cl                   -0.133451       0.247201
      5 Cl                   -0.243306       0.008535
  --------------------------------------------------------
  Sum of atomic charges =     1.000000
  Sum of spin   charges =     1.000000

 -----------------------------------------------------------------
                    Cartesian Multipole Moments
 -----------------------------------------------------------------
    Charge (ESU x 10^10)
                 4.8032
    Dipole Moment (Debye)
         X      -0.1599      Y       0.9026      Z       3.3225
       Tot       3.4466
    Quadrupole Moments (Debye-Ang)
        XX     -53.1831     XY      -1.5796     YY     -52.7819
        XZ       0.2152     YZ      -1.0615     ZZ     -44.5894
    Octapole Moments (Debye-Ang^2)
       XXX       8.4011    XXY       1.1518    XYY      -9.2383
       YYY       3.4804    XXZ      -4.5040    XYZ      -0.5700
       YYZ      -5.0593    XZZ       0.0256    YZZ       1.1183
       ZZZ      29.8333
    Hexadecapole Moments (Debye-Ang^3)
      XXXX    -440.4521   XXXY      -3.1040   XXYY    -146.2723
      XYYY      -3.7445   YYYY    -438.0301   XXXZ     -11.1453
      XXYZ      -0.9713   XYYZ      11.7898   YYYZ      -3.1104
      XXZZ    -145.1075   XYZZ      -4.1069   YYZZ    -144.4882
      XZZZ       1.3196   YZZZ      -4.4395   ZZZZ    -379.8994
 -----------------------------------------------------------------
 Total job time:  934.75s(wall), 932.57s(cpu) 
 Tue Jun  4 17:11:46 2013

        *************************************************************
        *                                                           *
        *  Thank you very much for using Q-Chem.  Have a nice day.  *
        *                                                           *
        *************************************************************


0 sent ACK to 0 
now end server 0 ... 
