Process 0 of 1 is on cl187 - thread support 1
initial socket setup ...start
initial socket setup ...done 
now start server 0 ... 

cmd = /usr/bin/ssh clhead /usr/local/qchem/bin/get_hostid 2115412405 > /scratch/tmp/5998399.1.medium.q/qchem8100/lic.dat
                  Welcome to Q-Chem
     A Quantum Leap Into The Future Of Chemistry

 Y. Shao, L. Fusti-Molnar, Y. Jung, J. Kussmann, C. Ochsenfeld,
 S. T. Brown, A. T. B. Gilbert, L. V. Slipchenko,S. V. Levchenko,
 D. P. O'Neill, R. A. DiStasio Jr., R. C. Lochan, T. Wang,
 G. J. O. Beran, N. A. Besley, J. M. Herbert, C. Y. Lin,
 T. Van Voorhis, S. H. Chien, A. Sodt, R. P. Steele, 
 V. A. Rassolov, P. E. Maslen, P. P. Korambath, R. D. Adamson,
 B. Austin, J. Baker, E. F. C. Byrd, H. Dachsel, R. J. Doerksen,
 A. Dreuw, B. D. Dunietz, A. D. Dutoi, T. R. Furlani,
 S. R. Gwaltney, A. Heyden, S. Hirata, C.-P. Hsu, G. Kedziora,
 R. Z. Khaliullin, P. Klunzinger, A. M. Lee, M. S. Lee, W. Liang,
 I. Lotan, N. Nair, B. Peters, E. I. Proynov, P. A. Pieniazek, 
 Y. M. Rhee, J. Ritchie, E. Rosta, C. D. Sherrill, 
 A. C. Simmonett, J. E. Subotnik, H. L. Woodcock III,
 W. Zhang, A. T. Bell, A. K. Chakraborty, D. M. Chipman,
 F. J. Keil, A. Warshel, W. J. Hehre, H. F. Schaefer III,
 J. Kong, A. I. Krylov, P. M. W. Gill, M. Head-Gordon,
 Q-Chem, Version 3.1, Q-Chem, Inc., Pittsburgh, PA (2007).

 Additional authors for Version 3.1: 
 Z. Gan, Y. Zhao, N. E. Schultz, D. Truhlar, E. Epifanovsky and M. Oana.

 Additional authors for Version 3.2: 
 R. Baer, B. R. Brooks, D. Casanova, J.-D. Chai, C.-L. Cheng, 
 C. Cramer, D. Crittenden, A. Ghysels, G. Hawkins, E. G. Hohenstein, 
 C. Kelley, W. Kurlancheek, D. Liotard, E. Livshits, P. Manohar, 
 A. Marenich, D. Neuhauser, R. Olson, M. A. Rohrdanz, K. S. Thanthiriwatte, 
 A. J. W. Thom, V. Vanovschi, C. F. Williams, Q. Wu and Z.-Q. You. 


 Intel X86 Linux Version

 Q-chem begins on Wed May 22 11:32:37 2013  

 Parallel job on  1  processors
Processing $rem in /usr/local/qchem/config/preferences.

theFileMan(): MAXOPENFILES=974 MAX_SUB_FILE_NUM=16
Maximum size of a physical file is 2.0 GB, maximum size of a tmp-file is 32.0 GB


--------------------------------------------------------------
User input:
--------------------------------------------------------------

$molecule
-1,2
C          0.00460        0.00000        0.00873
O          0.00048        0.00000        1.40945
C          1.29795        0.00000        1.93778
H         -1.03199        0.00000       -0.32612
H          0.50793        0.89058       -0.39015
H          0.50793       -0.89058       -0.39015
H          1.21429        0.00000        3.02388
H          1.85811       -0.89052        1.62353
H          1.85811        0.89052        1.62353
$end

$comment
negative
$end

$xc_functional
C PBE   1.00
X wPBE  1.00
$end

$rem
SYMMETRY_DECOMPOSITION	0
exchange 		general
LRC_DFT                 true
BASIS                   g3large
omega			2000
mem_static              760
max_scf_cycles          200
scf_final_print         1
sym_ignore              true
$end

--------------------------------------------------------------
 Writing REM_CC_EA            9
 ----------------------------------------------------
       Standard Nuclear Orientation (Angstroms)
    I     Atom         X            Y            Z
 ----------------------------------------------------
    1      C       0.004600     0.000000     0.008730
    2      O       0.000480     0.000000     1.409450
    3      C       1.297950     0.000000     1.937780
    4      H      -1.031990     0.000000    -0.326120
    5      H       0.507930     0.890580    -0.390150
    6      H       0.507930    -0.890580    -0.390150
    7      H       1.214290     0.000000     3.023880
    8      H       1.858110    -0.890520     1.623530
    9      H       1.858110     0.890520     1.623530
 ----------------------------------------------------
 Nuclear Repulsion Energy =    84.3356665048 hartrees
 There are       14 alpha and       13 beta electrons
 Requested basis set is G3large
 There are 66 shells and 186 basis functions

Total QAlloc Memory Limit   2000 MB
Mega-Array Size       743 MB
MEM_STATIC part       760 MB

                       Distance Matrix (Angstroms)
             C (  1)   O (  2)   C (  3)   H (  4)   H (  5)   H (  6)
   O (  2)  1.400726
   C (  3)  2.322496  1.400914
   H (  4)  1.089332  2.019455  3.248671
   H (  5)  1.097989  2.071038  2.614674  1.780052
   H (  6)  1.097989  2.071038  2.614674  1.780052  1.781160
   H (  7)  3.248766  2.019831  1.089317  4.033395  3.598288  3.598288
   H (  8)  2.614594  2.071146  1.097979  3.598172  3.008357  2.424437
   H (  9)  2.614594  2.071146  1.097979  3.598172  2.424437  3.008357
             H (  7)   H (  8)
   H (  8)  1.780031
   H (  9)  1.780031  1.781040
 
 A cutoff of  1.0D-08 yielded   2116 shell pairs
 There are  16946 function pairs ( 20471 Cartesian)
Evaluating contribution to one-electron hamiltonian from nuclear
 Smallest overlap matrix eigenvalue = 2.89E-04
 Multipole matrices computed through 2nd order

  Scale SEOQF with 1.000000e-01/1.000000e-01/1.000000e-01

 Standard Electronic Orientation quadrupole field applied
 Nucleus-field energy     =    -0.0000000048 hartrees
 Guess from superposition of atomic densities
 Warning:  Energy on first SCF cycle will be non-variational
 Long-range K will be added via erf
 Coulomb attenuation parameter = 2 bohr**(-1)
 An unrestricted Kohn-Sham SCF calculation will be
 performed using Pulay DIIS extrapolation
 Exchange:  wPBE + LR-HF      Correlation:  PBE
 Using SG-1 standard quadrature grid
 SCF converges when DIIS error is below 1.0E-05
 Requested basis set is G3large
 There are 66 shells and 186 basis functions
 A cutoff of  1.0D-08 yielded   2116 shell pairs
 There are  16946 function pairs ( 20471 Cartesian)
 Warning!  Inaccurate integrated density:
   Number of electrons =    27
   Numerical integral  =    25.999902102068
   Relative error      =    -3.7040662886 %
 ---------------------------------------
  Cycle       Energy         DIIS Error
 ---------------------------------------
    1    -155.6851347675      3.43E-02
    2    -154.8583447994      3.33E-03
    3    -154.9241689472      1.43E-03
    4    -154.9347116421      6.07E-04
    5    -154.9378228648      1.27E-04
    6    -154.9384453784      4.67E-05
    7    -154.9386415177      2.48E-05
    8    -154.9387246673      1.50E-05
    9    -154.9387723477      8.43E-06 Convergence criterion met
 ---------------------------------------
 One-Electron    Energy =  -380.2025337050
 Total Coulomb   Energy =   162.6379208532
 Alpha Exchange  Energy =    -6.8719852336
 Beta  Exchange  Energy =    -6.8001194116
 DFT   Exchange  Energy =    -7.1839423009
 DFT Correlation Energy =    -0.8537790499
 Nuclear Repu.   Energy =    84.3356665000
 Nuclear Attr.   Energy =  -534.2789969008
 Kinetic         Energy =   154.0764631958
 <S^2> = 0.7501
 SCF time:  CPU 103.54 s  wall 104.06 s
 Final Alpha MO Eigenvalues
            1           2           3           4           5           6
    1 -19.5909933 -10.7123764 -10.7120536  -1.2760407  -0.8730448  -0.7728620
            7           8           9          10          11          12
    1  -0.5634196  -0.5579513  -0.5468161  -0.4456798  -0.4262405  -0.3845018
           13          14          15          16          17          18
    1  -0.3231020   0.0307406   0.1288852   0.1506730   0.1515193   0.1762212
           19
    1   0.1888529
 Final Beta MO Eigenvalues
            1           2           3           4           5           6
    1 -19.5908562 -10.7119220 -10.7115902  -1.2756189  -0.8714766  -0.7701786
            7           8           9          10          11          12
    1  -0.5630783  -0.5571421  -0.5453172  -0.4454730  -0.4258257  -0.3827828
           13          14          15          16          17          18
    1  -0.3228653   0.1344537   0.1428107   0.1629013   0.1686230   0.1786749
 Analysis of SCF Wavefunction
 
 --------------------------------------------------------------
                    Orbital Energies (a.u.)
 --------------------------------------------------------------
 
 Alpha MOs
 -- Occupied --
-19.591 -10.712 -10.712  -1.276  -0.873  -0.773  -0.563  -0.558
 -0.547  -0.446  -0.426  -0.385  -0.323   0.031
 -- Virtual --
  0.129   0.151   0.152   0.176   0.189   0.212   0.243   0.261
  0.274   0.284   0.290   0.301   0.319   0.376   0.397   0.399
  0.433   0.433   0.447   0.479   0.484   0.486   0.520   0.564
  0.580   0.656   0.665   0.687   0.767   0.796   0.812   0.823
  0.844   0.845   0.847   0.875   0.905   0.908   0.932   0.984
  1.080   1.110   1.118   1.135   1.195   1.228   1.302   1.318
  1.334   1.373   1.409   1.412   1.466   1.468   1.475   1.512
  1.519   1.582   1.603   1.631   1.646   1.719   1.739   1.743
  1.749   1.779   1.790   1.853   1.916   1.989   2.018   2.336
  2.362   2.411   2.581   2.721   2.788   2.833   2.867   2.927
  3.019   3.104   3.319   3.357   3.414   3.424   3.445   3.474
  3.487   3.528   3.575   3.661   3.665   3.676   3.680   3.774
  3.777   3.815   3.905   3.934   4.001   4.004   4.031   4.142
  4.154   4.294   4.295   4.300   4.344   4.358   4.436   4.496
  4.566   4.611   4.669   4.672   4.686   4.734   4.741   4.805
  4.823   4.874   4.908   4.964   5.365   5.481   5.616   5.722
  5.725   5.955   6.039   6.041   6.068   6.174   6.185   6.361
  6.376   6.804   6.998   7.187   7.781   7.803   7.889   8.252
  8.350  25.096  25.106  28.690  28.768  28.780  28.802  28.850
 28.950  41.759  41.764  41.806  41.830  41.884  41.916  41.940
 41.982  41.985  41.985  44.669  44.713  44.737  44.830  44.869
 46.565  46.844  47.268  50.809
 
 Beta MOs
 -- Occupied --
-19.591 -10.712 -10.712  -1.276  -0.871  -0.770  -0.563  -0.557
 -0.545  -0.445  -0.426  -0.383  -0.323
 -- Virtual --
  0.134   0.143   0.163   0.169   0.179   0.190   0.210   0.241
  0.253   0.269   0.285   0.288   0.298   0.312   0.378   0.398
  0.398   0.432   0.432   0.445   0.474   0.481   0.485   0.519
  0.561   0.578   0.653   0.663   0.686   0.764   0.795   0.809
  0.821   0.840   0.844   0.844   0.874   0.903   0.908   0.929
  0.984   1.080   1.109   1.118   1.135   1.195   1.227   1.302
  1.318   1.334   1.373   1.409   1.412   1.466   1.468   1.475
  1.512   1.519   1.583   1.603   1.631   1.646   1.718   1.740
  1.743   1.748   1.777   1.788   1.853   1.915   1.989   2.018
  2.336   2.363   2.411   2.581   2.721   2.788   2.833   2.867
  2.927   3.019   3.104   3.319   3.357   3.415   3.425   3.445
  3.474   3.487   3.529   3.576   3.662   3.665   3.676   3.680
  3.774   3.777   3.815   3.905   3.934   4.001   4.005   4.032
  4.143   4.155   4.294   4.295   4.300   4.343   4.358   4.436
  4.496   4.566   4.611   4.669   4.672   4.686   4.733   4.741
  4.805   4.823   4.874   4.908   4.964   5.365   5.481   5.616
  5.722   5.725   5.955   6.039   6.041   6.068   6.174   6.185
  6.361   6.376   6.804   6.998   7.187   7.782   7.803   7.889
  8.252   8.351  25.096  25.107  28.691  28.768  28.781  28.802
 28.851  28.950  41.759  41.764  41.807  41.830  41.884  41.916
 41.940  41.982  41.985  41.985  44.670  44.713  44.738  44.830
 44.870  46.565  46.844  47.268  50.809
 --------------------------------------------------------------
 
          Ground-State Mulliken Net Atomic Charges

     Atom                 Charge (a.u.)    Spin (a.u.)
  --------------------------------------------------------
      1 C                     1.762258      -1.796450
      2 O                    -0.453385       0.200713
      3 C                     1.723235      -1.757338
      4 H                    -0.505147       0.556813
      5 H                    -0.782097       0.837457
      6 H                    -0.750456       0.804124
      7 H                    -0.492687       0.544045
      8 H                    -0.735137       0.788784
      9 H                    -0.766584       0.821852
  --------------------------------------------------------
  Sum of atomic charges =    -1.000000
  Sum of spin   charges =     1.000000

 -----------------------------------------------------------------
                    Cartesian Multipole Moments
 -----------------------------------------------------------------
    Charge (ESU x 10^10)
                -4.8032
    Dipole Moment (Debye)
         X      -5.9598      Y      -0.2164      Z      -2.6356
       Tot       6.5201
    Quadrupole Moments (Debye-Ang)
        XX     -54.0389     XY      -0.3904     YY     -49.0572
        XZ      -4.9287     YZ      -0.0414     ZZ     -49.3820
    Octapole Moments (Debye-Ang^2)
       XXX    -133.1772    XXY      -1.3739    XYY     -51.1646
       YYY      -2.5500    XXZ     -42.0478    XYZ      -0.2541
       YYZ     -34.2027    XZZ     -47.4736    YZZ      -0.8237
       ZZZ    -118.0644
    Hexadecapole Moments (Debye-Ang^3)
      XXXX    -675.2432   XXXY      -4.4951   XXYY    -194.2084
      XYYY      -4.0070   YYYY    -403.5323   XXXZ    -176.6414
      XXYZ      -0.8739   XYYZ     -61.8315   YYYZ      -0.8903
      XXZZ    -240.4978   XYZZ      -1.4556   YYZZ    -186.2295
      XZZZ    -184.1610   YZZZ      -0.8451   ZZZZ    -757.9834
 -----------------------------------------------------------------
 Total job time:  104.28s(wall), 103.75s(cpu) 
 Wed May 22 11:34:21 2013

        *************************************************************
        *                                                           *
        *  Thank you very much for using Q-Chem.  Have a nice day.  *
        *                                                           *
        *************************************************************


0 sent ACK to 0 
now end server 0 ... 
 
**********************************************************************
Job 2 of 3 
**********************************************************************
 
Process 0 of 1 is on cl187 - thread support 1
initial socket setup ...start
initial socket setup ...done 
now start server 0 ... 

cmd = /usr/bin/ssh clhead /usr/local/qchem/bin/get_hostid 1491523043 > /scratch/tmp/5998399.1.medium.q/qchem8100/lic.dat
                  Welcome to Q-Chem
     A Quantum Leap Into The Future Of Chemistry

 Y. Shao, L. Fusti-Molnar, Y. Jung, J. Kussmann, C. Ochsenfeld,
 S. T. Brown, A. T. B. Gilbert, L. V. Slipchenko,S. V. Levchenko,
 D. P. O'Neill, R. A. DiStasio Jr., R. C. Lochan, T. Wang,
 G. J. O. Beran, N. A. Besley, J. M. Herbert, C. Y. Lin,
 T. Van Voorhis, S. H. Chien, A. Sodt, R. P. Steele, 
 V. A. Rassolov, P. E. Maslen, P. P. Korambath, R. D. Adamson,
 B. Austin, J. Baker, E. F. C. Byrd, H. Dachsel, R. J. Doerksen,
 A. Dreuw, B. D. Dunietz, A. D. Dutoi, T. R. Furlani,
 S. R. Gwaltney, A. Heyden, S. Hirata, C.-P. Hsu, G. Kedziora,
 R. Z. Khaliullin, P. Klunzinger, A. M. Lee, M. S. Lee, W. Liang,
 I. Lotan, N. Nair, B. Peters, E. I. Proynov, P. A. Pieniazek, 
 Y. M. Rhee, J. Ritchie, E. Rosta, C. D. Sherrill, 
 A. C. Simmonett, J. E. Subotnik, H. L. Woodcock III,
 W. Zhang, A. T. Bell, A. K. Chakraborty, D. M. Chipman,
 F. J. Keil, A. Warshel, W. J. Hehre, H. F. Schaefer III,
 J. Kong, A. I. Krylov, P. M. W. Gill, M. Head-Gordon,
 Q-Chem, Version 3.1, Q-Chem, Inc., Pittsburgh, PA (2007).

 Additional authors for Version 3.1: 
 Z. Gan, Y. Zhao, N. E. Schultz, D. Truhlar, E. Epifanovsky and M. Oana.

 Additional authors for Version 3.2: 
 R. Baer, B. R. Brooks, D. Casanova, J.-D. Chai, C.-L. Cheng, 
 C. Cramer, D. Crittenden, A. Ghysels, G. Hawkins, E. G. Hohenstein, 
 C. Kelley, W. Kurlancheek, D. Liotard, E. Livshits, P. Manohar, 
 A. Marenich, D. Neuhauser, R. Olson, M. A. Rohrdanz, K. S. Thanthiriwatte, 
 A. J. W. Thom, V. Vanovschi, C. F. Williams, Q. Wu and Z.-Q. You. 


 Intel X86 Linux Version

 Q-chem begins on Wed May 22 11:34:24 2013  

 Parallel job on  1  processors
Processing $rem in /usr/local/qchem/config/preferences.

theFileMan(): MAXOPENFILES=974 MAX_SUB_FILE_NUM=16
Maximum size of a physical file is 2.0 GB, maximum size of a tmp-file is 32.0 GB


--------------------------------------------------------------
User input:
--------------------------------------------------------------

$molecule
0,1
C          0.00460        0.00000        0.00873
O          0.00048        0.00000        1.40945
C          1.29795        0.00000        1.93778
H         -1.03199        0.00000       -0.32612
H          0.50793        0.89058       -0.39015
H          0.50793       -0.89058       -0.39015
H          1.21429        0.00000        3.02388
H          1.85811       -0.89052        1.62353
H          1.85811        0.89052        1.62353
$end

$comment
neutral
$end

$xc_functional
C PBE   1.00
X wPBE  1.00
$end


$rem
SYMMETRY_DECOMPOSITION	0
LRC_DFT                 true
exchange 		general
BASIS                   g3large
omega			2000
mem_static              760
max_scf_cycles          200
scf_final_print         1
sym_ignore              true
$end

--------------------------------------------------------------
 Writing REM_CC_EA            9
 ----------------------------------------------------
       Standard Nuclear Orientation (Angstroms)
    I     Atom         X            Y            Z
 ----------------------------------------------------
    1      C       0.004600     0.000000     0.008730
    2      O       0.000480     0.000000     1.409450
    3      C       1.297950     0.000000     1.937780
    4      H      -1.031990     0.000000    -0.326120
    5      H       0.507930     0.890580    -0.390150
    6      H       0.507930    -0.890580    -0.390150
    7      H       1.214290     0.000000     3.023880
    8      H       1.858110    -0.890520     1.623530
    9      H       1.858110     0.890520     1.623530
 ----------------------------------------------------
 Nuclear Repulsion Energy =    84.3356665048 hartrees
 There are       13 alpha and       13 beta electrons
 Requested basis set is G3large
 There are 66 shells and 186 basis functions

Total QAlloc Memory Limit   2000 MB
Mega-Array Size       743 MB
MEM_STATIC part       760 MB

                       Distance Matrix (Angstroms)
             C (  1)   O (  2)   C (  3)   H (  4)   H (  5)   H (  6)
   O (  2)  1.400726
   C (  3)  2.322496  1.400914
   H (  4)  1.089332  2.019455  3.248671
   H (  5)  1.097989  2.071038  2.614674  1.780052
   H (  6)  1.097989  2.071038  2.614674  1.780052  1.781160
   H (  7)  3.248766  2.019831  1.089317  4.033395  3.598288  3.598288
   H (  8)  2.614594  2.071146  1.097979  3.598172  3.008357  2.424437
   H (  9)  2.614594  2.071146  1.097979  3.598172  2.424437  3.008357
             H (  7)   H (  8)
   H (  8)  1.780031
   H (  9)  1.780031  1.781040
 
 A cutoff of  1.0D-08 yielded   2116 shell pairs
 There are  16946 function pairs ( 20471 Cartesian)
Evaluating contribution to one-electron hamiltonian from nuclear
 Smallest overlap matrix eigenvalue = 2.89E-04
 Multipole matrices computed through 2nd order

  Scale SEOQF with 1.000000e-01/1.000000e-01/1.000000e-01

 Standard Electronic Orientation quadrupole field applied
 Nucleus-field energy     =    -0.0000000048 hartrees
 Guess from superposition of atomic densities
 Warning:  Energy on first SCF cycle will be non-variational
 Long-range K will be added via erf
 Coulomb attenuation parameter = 2 bohr**(-1)
 A restricted Kohn-Sham SCF calculation will be
 performed using Pulay DIIS extrapolation
 Exchange:  wPBE + LR-HF      Correlation:  PBE
 Using SG-1 standard quadrature grid
 SCF converges when DIIS error is below 1.0E-05
 Requested basis set is G3large
 There are 66 shells and 186 basis functions
 A cutoff of  1.0D-08 yielded   2116 shell pairs
 There are  16946 function pairs ( 20471 Cartesian)
 ---------------------------------------
  Cycle       Energy         DIIS Error
 ---------------------------------------
    1    -155.6851347675      3.43E-02
    2    -154.9094873420      3.37E-03
    3    -154.9641850259      1.41E-03
    4    -154.9713381449      5.84E-04
    5    -154.9728609149      1.06E-04
    6    -154.9729547295      3.00E-05
    7    -154.9729638701      9.11E-06 Convergence criterion met
 ---------------------------------------
 One-Electron    Energy =  -376.7578582576
 Total Coulomb   Energy =   159.0857310218
 Alpha Exchange  Energy =    -6.8034841544
 Beta  Exchange  Energy =    -6.8034841544
 DFT   Exchange  Energy =    -7.1824534236
 DFT Correlation Energy =    -0.8470814020
 Nuclear Repu.   Energy =    84.3356665000
 Nuclear Attr.   Energy =  -530.7637653202
 Kinetic         Energy =   154.0059070626
 SCF time:  CPU 63.47 s  wall 63.96 s
 Final Alpha MO Eigenvalues
            1           2           3           4           5           6
    1 -19.7229691 -10.8485544 -10.8483444  -1.4079485  -1.0058916  -0.9064612
            7           8           9          10          11          12
    1  -0.6976871  -0.6895722  -0.6802795  -0.5823551  -0.5592740  -0.5159133
           13          14          15          16          17          18
    1  -0.4569113   0.0399462   0.0543949   0.0695444   0.0714827   0.0889950
 Analysis of SCF Wavefunction
 
 --------------------------------------------------------------
                    Orbital Energies (a.u.)
 --------------------------------------------------------------
 
 Alpha MOs
 -- Occupied --
-19.723 -10.849 -10.848  -1.408  -1.006  -0.906  -0.698  -0.690
 -0.680  -0.582  -0.559  -0.516  -0.457
 -- Virtual --
  0.040   0.054   0.070   0.071   0.089   0.096   0.110   0.142
  0.161   0.162   0.178   0.185   0.196   0.205   0.258   0.269
  0.282   0.303   0.312   0.325   0.358   0.362   0.369   0.404
  0.436   0.460   0.530   0.536   0.559   0.635   0.660   0.680
  0.696   0.714   0.717   0.717   0.746   0.775   0.778   0.801
  0.850   0.953   0.980   0.983   1.003   1.058   1.098   1.171
  1.184   1.198   1.237   1.279   1.282   1.333   1.335   1.345
  1.385   1.385   1.446   1.472   1.500   1.515   1.586   1.605
  1.607   1.618   1.644   1.656   1.720   1.783   1.856   1.888
  2.204   2.231   2.279   2.449   2.590   2.652   2.698   2.736
  2.795   2.884   2.968   3.184   3.222   3.279   3.290   3.311
  3.340   3.352   3.392   3.440   3.528   3.530   3.542   3.545
  3.639   3.643   3.680   3.771   3.798   3.866   3.870   3.898
  4.008   4.021   4.159   4.161   4.165   4.209   4.224   4.301
  4.360   4.432   4.475   4.535   4.536   4.551   4.598   4.605
  4.670   4.689   4.737   4.774   4.828   5.230   5.347   5.485
  5.590   5.594   5.824   5.903   5.909   5.934   6.038   6.052
  6.228   6.244   6.672   6.866   7.054   7.650   7.672   7.758
  8.121   8.220  24.960  24.970  28.554  28.632  28.644  28.666
 28.714  28.814  41.623  41.627  41.670  41.693  41.747  41.780
 41.804  41.845  41.849  41.849  44.538  44.581  44.606  44.698
 44.738  46.433  46.712  47.135  50.677
 --------------------------------------------------------------
 
          Ground-State Mulliken Net Atomic Charges

     Atom                 Charge (a.u.)
  ----------------------------------------
      1 C                    -0.042388
      2 O                    -0.243508
      3 C                    -0.042031
      4 H                     0.068878
      5 H                     0.047597
      6 H                     0.047579
      7 H                     0.068883
      8 H                     0.047473
      9 H                     0.047517
  ----------------------------------------
  Sum of atomic charges =     0.000000

 -----------------------------------------------------------------
                    Cartesian Multipole Moments
 -----------------------------------------------------------------
    Charge (ESU x 10^10)
                 0.0000
    Dipole Moment (Debye)
         X       1.2674      Y       0.0004      Z      -0.8495
       Tot       1.5257
    Quadrupole Moments (Debye-Ang)
        XX     -18.2670     XY       0.0006     YY     -19.5464
        XZ       2.8900     YZ       0.0000     ZZ     -19.7561
    Octapole Moments (Debye-Ang^2)
       XXX     -30.4638    XXY       0.0009    XYY      -8.8005
       YYY       0.0009    XXZ     -19.1622    XYZ       0.0008
       YYZ     -21.6593    XZZ      -4.4670    YZZ       0.0012
       ZZZ     -57.8939
    Hexadecapole Moments (Debye-Ang^3)
      XXXX    -112.2486   XXXY       0.0023   XXYY     -22.5742
      XYYY       0.0017   YYYY     -31.6727   XXXZ     -56.4642
      XXYZ       0.0012   XYYZ     -19.2855   YYYZ       0.0001
      XXZZ     -58.7987   XYZZ       0.0021   YYZZ     -50.4362
      XZZZ     -46.0478   YZZZ       0.0013   ZZZZ    -234.7842
 -----------------------------------------------------------------
 Total job time:  64.16s(wall), 63.66s(cpu) 
 Wed May 22 11:35:29 2013

        *************************************************************
        *                                                           *
        *  Thank you very much for using Q-Chem.  Have a nice day.  *
        *                                                           *
        *************************************************************


0 sent ACK to 0 
now end server 0 ... 
 
**********************************************************************
Job 3 of 3 
**********************************************************************
 
Process 0 of 1 is on cl187 - thread support 1
initial socket setup ...start
initial socket setup ...done 
now start server 0 ... 

cmd = /usr/bin/ssh clhead /usr/local/qchem/bin/get_hostid 1519309020 > /scratch/tmp/5998399.1.medium.q/qchem8100/lic.dat
                  Welcome to Q-Chem
     A Quantum Leap Into The Future Of Chemistry

 Y. Shao, L. Fusti-Molnar, Y. Jung, J. Kussmann, C. Ochsenfeld,
 S. T. Brown, A. T. B. Gilbert, L. V. Slipchenko,S. V. Levchenko,
 D. P. O'Neill, R. A. DiStasio Jr., R. C. Lochan, T. Wang,
 G. J. O. Beran, N. A. Besley, J. M. Herbert, C. Y. Lin,
 T. Van Voorhis, S. H. Chien, A. Sodt, R. P. Steele, 
 V. A. Rassolov, P. E. Maslen, P. P. Korambath, R. D. Adamson,
 B. Austin, J. Baker, E. F. C. Byrd, H. Dachsel, R. J. Doerksen,
 A. Dreuw, B. D. Dunietz, A. D. Dutoi, T. R. Furlani,
 S. R. Gwaltney, A. Heyden, S. Hirata, C.-P. Hsu, G. Kedziora,
 R. Z. Khaliullin, P. Klunzinger, A. M. Lee, M. S. Lee, W. Liang,
 I. Lotan, N. Nair, B. Peters, E. I. Proynov, P. A. Pieniazek, 
 Y. M. Rhee, J. Ritchie, E. Rosta, C. D. Sherrill, 
 A. C. Simmonett, J. E. Subotnik, H. L. Woodcock III,
 W. Zhang, A. T. Bell, A. K. Chakraborty, D. M. Chipman,
 F. J. Keil, A. Warshel, W. J. Hehre, H. F. Schaefer III,
 J. Kong, A. I. Krylov, P. M. W. Gill, M. Head-Gordon,
 Q-Chem, Version 3.1, Q-Chem, Inc., Pittsburgh, PA (2007).

 Additional authors for Version 3.1: 
 Z. Gan, Y. Zhao, N. E. Schultz, D. Truhlar, E. Epifanovsky and M. Oana.

 Additional authors for Version 3.2: 
 R. Baer, B. R. Brooks, D. Casanova, J.-D. Chai, C.-L. Cheng, 
 C. Cramer, D. Crittenden, A. Ghysels, G. Hawkins, E. G. Hohenstein, 
 C. Kelley, W. Kurlancheek, D. Liotard, E. Livshits, P. Manohar, 
 A. Marenich, D. Neuhauser, R. Olson, M. A. Rohrdanz, K. S. Thanthiriwatte, 
 A. J. W. Thom, V. Vanovschi, C. F. Williams, Q. Wu and Z.-Q. You. 


 Intel X86 Linux Version

 Q-chem begins on Wed May 22 11:35:32 2013  

 Parallel job on  1  processors
Processing $rem in /usr/local/qchem/config/preferences.

theFileMan(): MAXOPENFILES=974 MAX_SUB_FILE_NUM=16
Maximum size of a physical file is 2.0 GB, maximum size of a tmp-file is 32.0 GB


--------------------------------------------------------------
User input:
--------------------------------------------------------------

$molecule
1,2
C          0.00460        0.00000        0.00873
O          0.00048        0.00000        1.40945
C          1.29795        0.00000        1.93778
H         -1.03199        0.00000       -0.32612
H          0.50793        0.89058       -0.39015
H          0.50793       -0.89058       -0.39015
H          1.21429        0.00000        3.02388
H          1.85811       -0.89052        1.62353
H          1.85811        0.89052        1.62353
$end

$comment
positive
$end

$xc_functional
C PBE   1.00
X wPBE  1.00
$end

$rem
SYMMETRY_DECOMPOSITION	0
LRC_DFT                 true
exchange 		general
BASIS                   g3large
omega			2000
mem_static              760
max_scf_cycles          200
scf_final_print         1
sym_ignore              true
$end

--------------------------------------------------------------
 Writing REM_CC_EA            9
 ----------------------------------------------------
       Standard Nuclear Orientation (Angstroms)
    I     Atom         X            Y            Z
 ----------------------------------------------------
    1      C       0.004600     0.000000     0.008730
    2      O       0.000480     0.000000     1.409450
    3      C       1.297950     0.000000     1.937780
    4      H      -1.031990     0.000000    -0.326120
    5      H       0.507930     0.890580    -0.390150
    6      H       0.507930    -0.890580    -0.390150
    7      H       1.214290     0.000000     3.023880
    8      H       1.858110    -0.890520     1.623530
    9      H       1.858110     0.890520     1.623530
 ----------------------------------------------------
 Nuclear Repulsion Energy =    84.3356665048 hartrees
 There are       13 alpha and       12 beta electrons
 Requested basis set is G3large
 There are 66 shells and 186 basis functions

Total QAlloc Memory Limit   2000 MB
Mega-Array Size       743 MB
MEM_STATIC part       760 MB

                       Distance Matrix (Angstroms)
             C (  1)   O (  2)   C (  3)   H (  4)   H (  5)   H (  6)
   O (  2)  1.400726
   C (  3)  2.322496  1.400914
   H (  4)  1.089332  2.019455  3.248671
   H (  5)  1.097989  2.071038  2.614674  1.780052
   H (  6)  1.097989  2.071038  2.614674  1.780052  1.781160
   H (  7)  3.248766  2.019831  1.089317  4.033395  3.598288  3.598288
   H (  8)  2.614594  2.071146  1.097979  3.598172  3.008357  2.424437
   H (  9)  2.614594  2.071146  1.097979  3.598172  2.424437  3.008357
             H (  7)   H (  8)
   H (  8)  1.780031
   H (  9)  1.780031  1.781040
 
 A cutoff of  1.0D-08 yielded   2116 shell pairs
 There are  16946 function pairs ( 20471 Cartesian)
Evaluating contribution to one-electron hamiltonian from nuclear
 Smallest overlap matrix eigenvalue = 2.89E-04
 Multipole matrices computed through 2nd order

  Scale SEOQF with 1.000000e-01/1.000000e-01/1.000000e-01

 Standard Electronic Orientation quadrupole field applied
 Nucleus-field energy     =    -0.0000000048 hartrees
 Guess from superposition of atomic densities
 Warning:  Energy on first SCF cycle will be non-variational
 Long-range K will be added via erf
 Coulomb attenuation parameter = 2 bohr**(-1)
 An unrestricted Kohn-Sham SCF calculation will be
 performed using Pulay DIIS extrapolation
 Exchange:  wPBE + LR-HF      Correlation:  PBE
 Using SG-1 standard quadrature grid
 SCF converges when DIIS error is below 1.0E-05
 Requested basis set is G3large
 There are 66 shells and 186 basis functions
 A cutoff of  1.0D-08 yielded   2116 shell pairs
 There are  16946 function pairs ( 20471 Cartesian)
 Warning!  Inaccurate integrated density:
   Number of electrons =    25
   Numerical integral  =    25.999902102068
   Relative error      =     3.9996084083 %
 ---------------------------------------
  Cycle       Energy         DIIS Error
 ---------------------------------------
    1    -155.6851347675      3.43E-02
    2    -154.4631658718      3.75E-03
    3    -154.5645027571      1.42E-03
    4    -154.5843913166      6.85E-04
    5    -154.5943760766      3.18E-04
    6    -154.5987691111      2.38E-04
    7    -154.6011925244      9.81E-05
    8    -154.6017971200      7.84E-05
    9    -154.6023196108      6.13E-05
   10    -154.6029212212      3.62E-05
   11    -154.6031260478      1.49E-05
   12    -154.6031525625      6.20E-06 Convergence criterion met
 ---------------------------------------
 One-Electron    Energy =  -368.7921095715
 Total Coulomb   Energy =   151.1491517678
 Alpha Exchange  Energy =    -6.9558362571
 Beta  Exchange  Energy =    -6.3553806549
 DFT   Exchange  Energy =    -7.1783117367
 DFT Correlation Energy =    -0.8063326101
 Nuclear Repu.   Energy =    84.3356665000
 Nuclear Attr.   Energy =  -522.5855466836
 Kinetic         Energy =   153.7934371121
 <S^2> = 0.7614
 SCF time:  CPU 139.13 s  wall 140.98 s
 Final Alpha MO Eigenvalues
            1           2           3           4           5           6
    1 -20.1761885 -11.1109971 -11.1109658  -1.8310612  -1.3098663  -1.1993554
            7           8           9          10          11          12
    1  -1.1031307  -1.0171730  -1.0070150  -0.8507004  -0.8298611  -0.8207835
           13          14          15          16          17          18
    1  -0.8198633  -0.1062064  -0.0783652  -0.0763359  -0.0700559  -0.0566608
 Final Beta MO Eigenvalues
            1           2           3           4           5           6
    1 -20.1464740 -11.1121986 -11.1121505  -1.7195689  -1.3001001  -1.1684493
            7           8           9          10          11          12
    1  -0.9980215  -0.9825757  -0.9086024  -0.8261822  -0.8181480  -0.8142356
           13          14          15          16          17
    1  -0.2817679  -0.1057513  -0.0757743  -0.0751127  -0.0690577
 Analysis of SCF Wavefunction
 
 --------------------------------------------------------------
                    Orbital Energies (a.u.)
 --------------------------------------------------------------
 
 Alpha MOs
 -- Occupied --
-20.176 -11.111 -11.111  -1.831  -1.310  -1.199  -1.103  -1.017
 -1.007  -0.851  -0.830  -0.821  -0.820
 -- Virtual --
 -0.106  -0.078  -0.076  -0.070  -0.057  -0.038  -0.031  -0.023
 -0.015   0.012   0.025   0.026   0.045   0.056   0.062   0.074
  0.076   0.105   0.109   0.123   0.151   0.153   0.167   0.199
  0.204   0.232   0.317   0.318   0.338   0.398   0.423   0.462
  0.487   0.490   0.494   0.498   0.518   0.539   0.557   0.578
  0.597   0.719   0.732   0.755   0.762   0.824   0.827   0.927
  0.936   0.944   0.987   0.998   1.040   1.066   1.098   1.100
  1.122   1.150   1.171   1.198   1.234   1.263   1.343   1.354
  1.364   1.389   1.408   1.416   1.477   1.554   1.567   1.605
  1.871   1.900   1.931   2.126   2.275   2.387   2.424   2.483
  2.531   2.628   2.706   2.926   2.964   2.998   3.036   3.036
  3.059   3.070   3.130   3.173   3.248   3.264   3.270   3.285
  3.359   3.373   3.416   3.484   3.525   3.598   3.604   3.613
  3.721   3.734   3.878   3.888   3.899   3.945   3.952   4.025
  4.098   4.175   4.217   4.270   4.277   4.284   4.335   4.336
  4.409   4.424   4.466   4.512   4.565   4.952   5.008   5.068
  5.173   5.200   5.410   5.547   5.599   5.663   5.741   5.781
  5.851   5.864   6.328   6.493   6.689   7.188   7.224   7.300
  7.715   7.827  24.695  24.706  28.290  28.368  28.382  28.404
 28.452  28.551  41.361  41.365  41.408  41.428  41.485  41.517
 41.540  41.583  41.585  41.587  44.050  44.105  44.129  44.261
 44.304  45.959  46.278  46.702  50.228
 
 Beta MOs
 -- Occupied --
-20.146 -11.112 -11.112  -1.720  -1.300  -1.168  -0.998  -0.983
 -0.909  -0.826  -0.818  -0.814
 -- Virtual --
 -0.282  -0.106  -0.076  -0.075  -0.069  -0.056  -0.038  -0.031
 -0.014  -0.013   0.013   0.027   0.027   0.047   0.056   0.064
  0.079   0.082   0.111   0.111   0.123   0.157   0.171   0.182
  0.200   0.208   0.238   0.319   0.324   0.345   0.423   0.424
  0.462   0.490   0.494   0.495   0.499   0.519   0.540   0.563
  0.583   0.606   0.719   0.732   0.758   0.764   0.830   0.839
  0.929   0.951   0.961   1.002   1.034   1.043   1.085   1.101
  1.101   1.128   1.151   1.180   1.229   1.240   1.266   1.346
  1.360   1.364   1.390   1.409   1.418   1.484   1.555   1.593
  1.605   1.912   1.924   1.976   2.153   2.282   2.393   2.436
  2.484   2.538   2.632   2.709   2.928   2.966   3.006   3.035
  3.037   3.058   3.073   3.132   3.176   3.254   3.264   3.272
  3.287   3.365   3.374   3.416   3.494   3.529   3.600   3.605
  3.615   3.725   3.737   3.880   3.891   3.900   3.947   3.955
  4.026   4.100   4.179   4.219   4.275   4.284   4.286   4.339
  4.340   4.412   4.430   4.470   4.514   4.568   4.957   5.074
  5.122   5.219   5.235   5.454   5.562   5.614   5.665   5.751
  5.784   5.890   5.890   6.336   6.519   6.704   7.271   7.296
  7.380   7.749   7.846  24.694  24.705  28.289  28.367  28.382
 28.403  28.452  28.551  41.360  41.364  41.407  41.427  41.484
 41.516  41.539  41.583  41.584  41.587  44.120  44.164  44.189
 44.281  44.321  46.003  46.289  46.714  50.255
 --------------------------------------------------------------
 
          Ground-State Mulliken Net Atomic Charges

     Atom                 Charge (a.u.)    Spin (a.u.)
  --------------------------------------------------------
      1 C                    -0.052315      -0.067950
      2 O                     0.285397       0.917259
      3 C                    -0.052052      -0.068463
      4 H                     0.132013       0.000846
      5 H                     0.138648       0.054038
      6 H                     0.138846       0.054513
      7 H                     0.132067       0.000975
      8 H                     0.138731       0.054445
      9 H                     0.138664       0.054336
  --------------------------------------------------------
  Sum of atomic charges =     1.000000
  Sum of spin   charges =     1.000000

 -----------------------------------------------------------------
                    Cartesian Multipole Moments
 -----------------------------------------------------------------
    Charge (ESU x 10^10)
                 4.8032
    Dipole Moment (Debye)
         X       3.5112      Y      -0.0001      Z       4.4180
       Tot       5.6433
    Quadrupole Moments (Debye-Ang)
        XX     -11.0631     XY      -0.0019     YY     -15.1679
        XZ       7.0545     YZ       0.0036     ZZ      -6.4261
    Octapole Moments (Debye-Ang^2)
       XXX     -18.2450    XXY      -0.0016    XYY      -5.4708
       YYY      -0.0013    XXZ      -8.4956    XYZ      -0.0009
       YYZ     -17.7181    XZZ       6.0462    YZZ       0.0051
       ZZZ     -30.3258
    Hexadecapole Moments (Debye-Ang^3)
      XXXX     -77.2442   XXXY      -0.0038   XXYY     -14.5233
      XYYY      -0.0030   YYYY     -22.7356   XXXZ     -33.1137
      XXYZ       0.0003   XYYZ     -14.8013   YYYZ       0.0013
      XXZZ     -32.6985   XYZZ      -0.0013   YYZZ     -40.1501
      XZZZ     -17.6958   YZZZ       0.0144   ZZZZ    -156.2119
 -----------------------------------------------------------------
 Total job time:  141.20s(wall), 139.33s(cpu) 
 Wed May 22 11:37:53 2013

        *************************************************************
        *                                                           *
        *  Thank you very much for using Q-Chem.  Have a nice day.  *
        *                                                           *
        *************************************************************


0 sent ACK to 0 
now end server 0 ... 
