Process 0 of 1 is on cl182.stfx.acenet.ca - thread support 1
initial socket setup ...start
initial socket setup ...done 
now start server 0 ... 

cmd = /usr/bin/ssh clhead /usr/local/qchem/bin/get_hostid 403160415 > /scratch/tmp/6022807.1.medium.q/qchem3994/lic.dat
                  Welcome to Q-Chem
     A Quantum Leap Into The Future Of Chemistry

 Y. Shao, L. Fusti-Molnar, Y. Jung, J. Kussmann, C. Ochsenfeld,
 S. T. Brown, A. T. B. Gilbert, L. V. Slipchenko,S. V. Levchenko,
 D. P. O'Neill, R. A. DiStasio Jr., R. C. Lochan, T. Wang,
 G. J. O. Beran, N. A. Besley, J. M. Herbert, C. Y. Lin,
 T. Van Voorhis, S. H. Chien, A. Sodt, R. P. Steele, 
 V. A. Rassolov, P. E. Maslen, P. P. Korambath, R. D. Adamson,
 B. Austin, J. Baker, E. F. C. Byrd, H. Dachsel, R. J. Doerksen,
 A. Dreuw, B. D. Dunietz, A. D. Dutoi, T. R. Furlani,
 S. R. Gwaltney, A. Heyden, S. Hirata, C.-P. Hsu, G. Kedziora,
 R. Z. Khaliullin, P. Klunzinger, A. M. Lee, M. S. Lee, W. Liang,
 I. Lotan, N. Nair, B. Peters, E. I. Proynov, P. A. Pieniazek, 
 Y. M. Rhee, J. Ritchie, E. Rosta, C. D. Sherrill, 
 A. C. Simmonett, J. E. Subotnik, H. L. Woodcock III,
 W. Zhang, A. T. Bell, A. K. Chakraborty, D. M. Chipman,
 F. J. Keil, A. Warshel, W. J. Hehre, H. F. Schaefer III,
 J. Kong, A. I. Krylov, P. M. W. Gill, M. Head-Gordon,
 Q-Chem, Version 3.1, Q-Chem, Inc., Pittsburgh, PA (2007).

 Additional authors for Version 3.1: 
 Z. Gan, Y. Zhao, N. E. Schultz, D. Truhlar, E. Epifanovsky and M. Oana.

 Additional authors for Version 3.2: 
 R. Baer, B. R. Brooks, D. Casanova, J.-D. Chai, C.-L. Cheng, 
 C. Cramer, D. Crittenden, A. Ghysels, G. Hawkins, E. G. Hohenstein, 
 C. Kelley, W. Kurlancheek, D. Liotard, E. Livshits, P. Manohar, 
 A. Marenich, D. Neuhauser, R. Olson, M. A. Rohrdanz, K. S. Thanthiriwatte, 
 A. J. W. Thom, V. Vanovschi, C. F. Williams, Q. Wu and Z.-Q. You. 


 Intel X86 Linux Version

 Q-chem begins on Wed May 29 17:28:50 2013  

 Parallel job on  1  processors
Processing $rem in /usr/local/qchem/config/preferences.

theFileMan(): MAXOPENFILES=974 MAX_SUB_FILE_NUM=16
Maximum size of a physical file is 2.0 GB, maximum size of a tmp-file is 32.0 GB


--------------------------------------------------------------
User input:
--------------------------------------------------------------

$molecule
-1,2
C          0.00889        0.00000        0.00112
C          0.00119        0.00000        1.50991
Cl         1.66461        0.00000       -0.64123
H         -0.48182       -0.88318       -0.40395
H         -0.48182        0.88318       -0.40395
H         -1.02857        0.00000        1.87326
H          0.50480       -0.88366        1.90198
H          0.50480        0.88366        1.90198
$end

$comment
negative
$end

$xc_functional
C PBE   1.00
X wPBE  1.00
$end

$rem
SYMMETRY_DECOMPOSITION	0
exchange 		general
LRC_DFT                 true
BASIS                   g3large
omega			390
mem_static              760
max_scf_cycles          200
scf_final_print         1
sym_ignore              true
$end

--------------------------------------------------------------
 Writing REM_CC_EA            8
 ----------------------------------------------------
       Standard Nuclear Orientation (Angstroms)
    I     Atom         X            Y            Z
 ----------------------------------------------------
    1      C       0.008890     0.000000     0.001120
    2      C       0.001190     0.000000     1.509910
    3      Cl      1.664610     0.000000    -0.641230
    4      H      -0.481820    -0.883180    -0.403950
    5      H      -0.481820     0.883180    -0.403950
    6      H      -1.028570     0.000000     1.873260
    7      H       0.504800    -0.883660     1.901980
    8      H       0.504800     0.883660     1.901980
 ----------------------------------------------------
 Nuclear Repulsion Energy =   103.4803634148 hartrees
 There are       18 alpha and       17 beta electrons
 Requested basis set is G3large
 There are 69 shells and 200 basis functions

Total QAlloc Memory Limit   2000 MB
Mega-Array Size       743 MB
MEM_STATIC part       760 MB

                       Distance Matrix (Angstroms)
             C (  1)   C (  2)   Cl(  3)   H (  4)   H (  5)   H (  6)
   C (  2)  1.508810
   Cl(  3)  1.775957  2.719259
   H (  4)  1.088524  2.162444  2.333125
   H (  5)  1.088524  2.162444  2.333125  1.766360
   H (  6)  2.140381  1.091984  3.684546  2.502924  2.502924
   H (  7)  2.154078  1.090044  2.931541  2.508133  3.067973  1.770001
   H (  8)  2.154078  1.090044  2.931541  3.067973  2.508133  1.770001
             H (  7)
   H (  8)  1.767320
 
 A cutoff of  1.0D-08 yielded   2249 shell pairs
 There are  18973 function pairs ( 24061 Cartesian)
Evaluating contribution to one-electron hamiltonian from nuclear
 Smallest overlap matrix eigenvalue = 8.92E-05

 Q-Chem warning in module mkSTV.C, line 194:

 Overlap eigenvalue is smaller than square root of threshold

 Multipole matrices computed through 2nd order

  Scale SEOQF with 1.000000e-01/1.000000e-01/1.000000e-01

 Standard Electronic Orientation quadrupole field applied
 Nucleus-field energy     =    -0.0000000014 hartrees
 Guess from superposition of atomic densities
 Warning:  Energy on first SCF cycle will be non-variational
 Long-range K will be added via erf
 Coulomb attenuation parameter = 0.39 bohr**(-1)
 An unrestricted Kohn-Sham SCF calculation will be
 performed using Pulay DIIS extrapolation
 Exchange:  wPBE + LR-HF      Correlation:  PBE
 Using SG-1 standard quadrature grid
 SCF converges when DIIS error is below 1.0E-05
 Requested basis set is G3large
 There are 69 shells and 200 basis functions
 A cutoff of  1.0D-08 yielded   2249 shell pairs
 There are  18973 function pairs ( 24061 Cartesian)
 Warning!  Inaccurate integrated density:
   Number of electrons =    35
   Numerical integral  =    33.999633158415
   Relative error      =    -2.8581909760 %
 ---------------------------------------
  Cycle       Energy         DIIS Error
 ---------------------------------------
    1    -539.8613425676      2.76E-02
    2    -539.0923683073      3.33E-03
    3    -539.1515406306      3.50E-03
    4    -539.2091096113      6.70E-04
    5    -539.2207609162      5.18E-04
    6    -539.2279286625      2.70E-04
    7    -539.2337368898      8.99E-05
    8    -539.2351016095      4.33E-05
    9    -539.2354090658      2.41E-05
   10    -539.2355278568      1.67E-05
   11    -539.2355748394      1.17E-05
   12    -539.2356245279      1.07E-05
   13    -539.2356690999      6.06E-06 Convergence criterion met
 ---------------------------------------
 One-Electron    Energy =  -950.9986627068
 Total Coulomb   Energy =   349.1583110541
 Alpha Exchange  Energy =    -3.4425580463
 Beta  Exchange  Energy =    -3.3706901199
 DFT   Exchange  Energy =   -32.8466707089
 DFT Correlation Energy =    -1.2157619856
 Nuclear Repu.   Energy =   103.4803634134
 Nuclear Attr.   Energy = -1489.3198611028
 Kinetic         Energy =   538.3211983960
 <S^2> = 0.7501
 SCF time:  CPU 203.75 s  wall 206.45 s
 Final Alpha MO Eigenvalues
            1           2           3           4           5           6
    1-100.7337953 -10.0180145  -9.9577746  -9.2566501  -7.0749455  -7.0654398
            7           8           9          10          11          12
    1  -7.0653805  -0.8784729  -0.7499917  -0.6199677  -0.4694962  -0.4442582
           13          14          15          16          17          18
    1  -0.3984011  -0.3582297  -0.3498213  -0.2880695  -0.2848029   0.0260593
           19          20          21          22          23
    1   0.1422086   0.1452378   0.1609198   0.1856291   0.1905434
 Final Beta MO Eigenvalues
            1           2           3           4           5           6
    1-100.7337913 -10.0175569  -9.9573218  -9.2566415  -7.0749068  -7.0654506
            7           8           9          10          11          12
    1  -7.0653812  -0.8780762  -0.7492083  -0.6182215  -0.4688744  -0.4430161
           13          14          15          16          17          18
    1  -0.3970706  -0.3578652  -0.3491269  -0.2875842  -0.2845886   0.1443111
           19          20          21          22
    1   0.1573389   0.1609208   0.1807461   0.1900299
 Analysis of SCF Wavefunction
 
 --------------------------------------------------------------
                    Orbital Energies (a.u.)
 --------------------------------------------------------------
 
 Alpha MOs
 -- Occupied --
******* -10.018  -9.958  -9.257  -7.075  -7.065  -7.065  -0.878
 -0.750  -0.620  -0.469  -0.444  -0.398  -0.358  -0.350  -0.288
 -0.285   0.026
 -- Virtual --
  0.142   0.145   0.161   0.186   0.191   0.239   0.242   0.248
  0.260   0.278   0.283   0.289   0.297   0.303   0.312   0.330
  0.361   0.378   0.392   0.409   0.446   0.464   0.499   0.508
  0.535   0.565   0.581   0.618   0.642   0.653   0.657   0.697
  0.702   0.746   0.752   0.776   0.788   0.791   0.801   0.850
  0.863   0.888   0.937   0.964   0.974   1.019   1.044   1.124
  1.156   1.201   1.215   1.248   1.289   1.299   1.322   1.327
  1.340   1.345   1.370   1.374   1.394   1.424   1.456   1.485
  1.524   1.549   1.565   1.592   1.623   1.636   1.660   1.668
  1.699   1.704   1.738   1.766   1.813   1.816   1.848   1.856
  1.871   1.971   2.441   2.447   2.577   2.671   2.735   2.831
  2.868   2.874   3.039   3.044   3.047   3.159   3.241   3.283
  3.290   3.345   3.406   3.433   3.445   3.526   3.563   3.581
  3.640   3.701   3.781   3.796   3.800   3.853   3.862   3.984
  4.038   4.104   4.179   4.233   4.249   4.263   4.326   4.455
  4.464   4.473   4.480   4.551   4.603   4.623   4.629   4.679
  4.697   4.715   4.775   4.787   4.799   4.836   4.855   4.906
  4.935   5.278   5.288   5.434   5.451   5.481   5.691   5.864
  5.894   5.962   5.990   9.990  20.751  20.757  20.985  24.196
 24.434  27.250  27.300  27.316  27.364  27.370  27.807  28.151
 28.203  28.283  28.309  28.485  36.957  36.959  36.961  36.962
 36.970  36.973  36.982  41.026  41.055  41.112  41.197  41.282
 41.297  41.329  41.363  41.371  41.415 215.863
 
 Beta MOs
 -- Occupied --
******* -10.018  -9.957  -9.257  -7.075  -7.065  -7.065  -0.878
 -0.749  -0.618  -0.469  -0.443  -0.397  -0.358  -0.349  -0.288
 -0.285
 -- Virtual --
  0.144   0.157   0.161   0.181   0.190   0.194   0.240   0.242
  0.249   0.263   0.277   0.285   0.287   0.301   0.304   0.310
  0.330   0.360   0.377   0.393   0.408   0.448   0.461   0.495
  0.508   0.535   0.564   0.581   0.617   0.641   0.652   0.657
  0.697   0.702   0.746   0.752   0.774   0.786   0.791   0.800
  0.849   0.862   0.887   0.936   0.964   0.974   1.019   1.044
  1.125   1.156   1.201   1.216   1.249   1.289   1.300   1.322
  1.327   1.340   1.345   1.371   1.375   1.395   1.424   1.456
  1.485   1.525   1.549   1.565   1.592   1.623   1.636   1.659
  1.667   1.699   1.704   1.738   1.767   1.814   1.816   1.849
  1.856   1.871   1.971   2.441   2.447   2.577   2.671   2.735
  2.832   2.868   2.874   3.039   3.044   3.047   3.159   3.241
  3.283   3.291   3.346   3.406   3.433   3.446   3.527   3.564
  3.583   3.641   3.702   3.782   3.798   3.801   3.854   3.863
  3.984   4.038   4.104   4.179   4.234   4.250   4.263   4.327
  4.456   4.465   4.473   4.481   4.551   4.603   4.623   4.629
  4.679   4.697   4.716   4.775   4.787   4.799   4.836   4.855
  4.906   4.935   5.278   5.288   5.434   5.451   5.482   5.691
  5.865   5.894   5.963   5.990   9.990  20.751  20.757  20.985
 24.196  24.435  27.250  27.300  27.316  27.364  27.370  27.808
 28.152  28.203  28.283  28.309  28.486  36.957  36.959  36.961
 36.962  36.970  36.973  36.982  41.026  41.055  41.112  41.197
 41.282  41.298  41.329  41.364  41.371  41.415 215.863
 --------------------------------------------------------------
 
          Ground-State Mulliken Net Atomic Charges

     Atom                 Charge (a.u.)    Spin (a.u.)
  --------------------------------------------------------
      1 C                     1.036162      -0.844156
      2 C                     1.975785      -2.230854
      3 Cl                   -0.529551       0.164166
      4 H                    -0.754211       0.838727
      5 H                    -0.771063       0.856158
      6 H                    -1.534688       1.643448
      7 H                    -0.207749       0.282527
      8 H                    -0.214684       0.289983
  --------------------------------------------------------
  Sum of atomic charges =    -1.000000
  Sum of spin   charges =     1.000000

 -----------------------------------------------------------------
                    Cartesian Multipole Moments
 -----------------------------------------------------------------
    Charge (ESU x 10^10)
                -4.8032
    Dipole Moment (Debye)
         X       5.5024      Y      -0.0723      Z      -3.3415
       Tot       6.4380
    Quadrupole Moments (Debye-Ang)
        XX     -60.8570     XY       0.0667     YY     -50.5710
        XZ       9.4518     YZ      -0.0425     ZZ     -53.0357
    Octapole Moments (Debye-Ang^2)
       XXX      23.9234    XXY      -0.2899    XYY       5.9728
       YYY      -0.8267    XXZ     -35.1810    XYZ      -0.0038
       YYZ     -19.2144    XZZ      16.7089    YZZ      -0.3471
       ZZZ     -72.6018
    Hexadecapole Moments (Debye-Ang^3)
      XXXX    -646.8902   XXXY       0.5496   XXYY    -161.3504
      XYYY       0.5376   YYYY    -319.6045   XXXZ     136.5386
      XXYZ      -0.1667   XYYZ      37.2139   YYYZ      -0.4417
      XXZZ    -225.0125   XYZZ       0.1832   YYZZ    -143.1044
      XZZZ     144.7046   YZZZ      -0.6239   ZZZZ    -565.6353
 -----------------------------------------------------------------
 Total job time:  206.71s(wall), 204.00s(cpu) 
 Wed May 29 17:32:17 2013

        *************************************************************
        *                                                           *
        *  Thank you very much for using Q-Chem.  Have a nice day.  *
        *                                                           *
        *************************************************************


0 sent ACK to 0 
now end server 0 ... 
 
**********************************************************************
Job 2 of 3 
**********************************************************************
 
Process 0 of 1 is on cl182.stfx.acenet.ca - thread support 1
initial socket setup ...start
initial socket setup ...done 
now start server 0 ... 

cmd = /usr/bin/ssh clhead /usr/local/qchem/bin/get_hostid 965414728 > /scratch/tmp/6022807.1.medium.q/qchem3994/lic.dat
                  Welcome to Q-Chem
     A Quantum Leap Into The Future Of Chemistry

 Y. Shao, L. Fusti-Molnar, Y. Jung, J. Kussmann, C. Ochsenfeld,
 S. T. Brown, A. T. B. Gilbert, L. V. Slipchenko,S. V. Levchenko,
 D. P. O'Neill, R. A. DiStasio Jr., R. C. Lochan, T. Wang,
 G. J. O. Beran, N. A. Besley, J. M. Herbert, C. Y. Lin,
 T. Van Voorhis, S. H. Chien, A. Sodt, R. P. Steele, 
 V. A. Rassolov, P. E. Maslen, P. P. Korambath, R. D. Adamson,
 B. Austin, J. Baker, E. F. C. Byrd, H. Dachsel, R. J. Doerksen,
 A. Dreuw, B. D. Dunietz, A. D. Dutoi, T. R. Furlani,
 S. R. Gwaltney, A. Heyden, S. Hirata, C.-P. Hsu, G. Kedziora,
 R. Z. Khaliullin, P. Klunzinger, A. M. Lee, M. S. Lee, W. Liang,
 I. Lotan, N. Nair, B. Peters, E. I. Proynov, P. A. Pieniazek, 
 Y. M. Rhee, J. Ritchie, E. Rosta, C. D. Sherrill, 
 A. C. Simmonett, J. E. Subotnik, H. L. Woodcock III,
 W. Zhang, A. T. Bell, A. K. Chakraborty, D. M. Chipman,
 F. J. Keil, A. Warshel, W. J. Hehre, H. F. Schaefer III,
 J. Kong, A. I. Krylov, P. M. W. Gill, M. Head-Gordon,
 Q-Chem, Version 3.1, Q-Chem, Inc., Pittsburgh, PA (2007).

 Additional authors for Version 3.1: 
 Z. Gan, Y. Zhao, N. E. Schultz, D. Truhlar, E. Epifanovsky and M. Oana.

 Additional authors for Version 3.2: 
 R. Baer, B. R. Brooks, D. Casanova, J.-D. Chai, C.-L. Cheng, 
 C. Cramer, D. Crittenden, A. Ghysels, G. Hawkins, E. G. Hohenstein, 
 C. Kelley, W. Kurlancheek, D. Liotard, E. Livshits, P. Manohar, 
 A. Marenich, D. Neuhauser, R. Olson, M. A. Rohrdanz, K. S. Thanthiriwatte, 
 A. J. W. Thom, V. Vanovschi, C. F. Williams, Q. Wu and Z.-Q. You. 


 Intel X86 Linux Version

 Q-chem begins on Wed May 29 17:32:20 2013  

 Parallel job on  1  processors
Processing $rem in /usr/local/qchem/config/preferences.

theFileMan(): MAXOPENFILES=974 MAX_SUB_FILE_NUM=16
Maximum size of a physical file is 2.0 GB, maximum size of a tmp-file is 32.0 GB


--------------------------------------------------------------
User input:
--------------------------------------------------------------

$molecule
0,1
C          0.00889        0.00000        0.00112
C          0.00119        0.00000        1.50991
Cl         1.66461        0.00000       -0.64123
H         -0.48182       -0.88318       -0.40395
H         -0.48182        0.88318       -0.40395
H         -1.02857        0.00000        1.87326
H          0.50480       -0.88366        1.90198
H          0.50480        0.88366        1.90198
$end

$comment
neutral
$end

$xc_functional
C PBE   1.00
X wPBE  1.00
$end


$rem
SYMMETRY_DECOMPOSITION	0
LRC_DFT                 true
exchange 		general
BASIS                   g3large
omega			390
mem_static              760
max_scf_cycles          200
scf_final_print         1
sym_ignore              true
$end

--------------------------------------------------------------
 Writing REM_CC_EA            8
 ----------------------------------------------------
       Standard Nuclear Orientation (Angstroms)
    I     Atom         X            Y            Z
 ----------------------------------------------------
    1      C       0.008890     0.000000     0.001120
    2      C       0.001190     0.000000     1.509910
    3      Cl      1.664610     0.000000    -0.641230
    4      H      -0.481820    -0.883180    -0.403950
    5      H      -0.481820     0.883180    -0.403950
    6      H      -1.028570     0.000000     1.873260
    7      H       0.504800    -0.883660     1.901980
    8      H       0.504800     0.883660     1.901980
 ----------------------------------------------------
 Nuclear Repulsion Energy =   103.4803634148 hartrees
 There are       17 alpha and       17 beta electrons
 Requested basis set is G3large
 There are 69 shells and 200 basis functions

Total QAlloc Memory Limit   2000 MB
Mega-Array Size       743 MB
MEM_STATIC part       760 MB

                       Distance Matrix (Angstroms)
             C (  1)   C (  2)   Cl(  3)   H (  4)   H (  5)   H (  6)
   C (  2)  1.508810
   Cl(  3)  1.775957  2.719259
   H (  4)  1.088524  2.162444  2.333125
   H (  5)  1.088524  2.162444  2.333125  1.766360
   H (  6)  2.140381  1.091984  3.684546  2.502924  2.502924
   H (  7)  2.154078  1.090044  2.931541  2.508133  3.067973  1.770001
   H (  8)  2.154078  1.090044  2.931541  3.067973  2.508133  1.770001
             H (  7)
   H (  8)  1.767320
 
 A cutoff of  1.0D-08 yielded   2249 shell pairs
 There are  18973 function pairs ( 24061 Cartesian)
Evaluating contribution to one-electron hamiltonian from nuclear
 Smallest overlap matrix eigenvalue = 8.92E-05

 Q-Chem warning in module mkSTV.C, line 194:

 Overlap eigenvalue is smaller than square root of threshold

 Multipole matrices computed through 2nd order

  Scale SEOQF with 1.000000e-01/1.000000e-01/1.000000e-01

 Standard Electronic Orientation quadrupole field applied
 Nucleus-field energy     =    -0.0000000014 hartrees
 Guess from superposition of atomic densities
 Warning:  Energy on first SCF cycle will be non-variational
 Long-range K will be added via erf
 Coulomb attenuation parameter = 0.39 bohr**(-1)
 A restricted Kohn-Sham SCF calculation will be
 performed using Pulay DIIS extrapolation
 Exchange:  wPBE + LR-HF      Correlation:  PBE
 Using SG-1 standard quadrature grid
 SCF converges when DIIS error is below 1.0E-05
 Requested basis set is G3large
 There are 69 shells and 200 basis functions
 A cutoff of  1.0D-08 yielded   2249 shell pairs
 There are  18973 function pairs ( 24061 Cartesian)
 ---------------------------------------
  Cycle       Energy         DIIS Error
 ---------------------------------------
    1    -539.8613425676      2.76E-02
    2    -539.2310843961      2.43E-03
    3    -539.2586010514      1.41E-03
    4    -539.2660120425      2.81E-04
    5    -539.2665095406      9.25E-05
    6    -539.2665738380      3.30E-05
    7    -539.2665789230      9.09E-06 Convergence criterion met
 ---------------------------------------
 One-Electron    Energy =  -946.5560928671
 Total Coulomb   Energy =   344.5999590310
 Alpha Exchange  Energy =    -3.3721097314
 Beta  Exchange  Energy =    -3.3721097314
 DFT   Exchange  Energy =   -32.8386743368
 DFT Correlation Energy =    -1.2079147008
 Nuclear Repu.   Energy =   103.4803634134
 Nuclear Attr.   Energy = -1484.8044797052
 Kinetic         Energy =   538.2483868381
 SCF time:  CPU 87.03 s  wall 88.11 s
 Final Alpha MO Eigenvalues
            1           2           3           4           5           6
    1-100.8573389 -10.1575177 -10.1004690  -9.3799604  -7.1987875  -7.1885249
            7           8           9          10          11          12
    1  -7.1884486  -1.0071705  -0.8860425  -0.7571655  -0.6078184  -0.5807377
           13          14          15          16          17          18
    1  -0.5332374  -0.4955992  -0.4867661  -0.4123814  -0.4102423   0.0377893
           19          20          21          22
    1   0.0555831   0.0604646   0.0708340   0.0913394
 Analysis of SCF Wavefunction
 
 --------------------------------------------------------------
                    Orbital Energies (a.u.)
 --------------------------------------------------------------
 
 Alpha MOs
 -- Occupied --
******* -10.158 -10.100  -9.380  -7.199  -7.189  -7.188  -1.007
 -0.886  -0.757  -0.608  -0.581  -0.533  -0.496  -0.487  -0.412
 -0.410
 -- Virtual --
  0.038   0.056   0.060   0.071   0.091   0.093   0.131   0.135
  0.145   0.150   0.168   0.180   0.181   0.182   0.193   0.200
  0.213   0.244   0.248   0.267   0.283   0.316   0.339   0.376
  0.386   0.414   0.443   0.458   0.488   0.509   0.524   0.545
  0.573   0.579   0.616   0.621   0.646   0.655   0.659   0.669
  0.719   0.730   0.755   0.800   0.830   0.839   0.881   0.910
  0.983   1.023   1.069   1.084   1.120   1.160   1.173   1.190
  1.192   1.212   1.215   1.235   1.248   1.264   1.292   1.324
  1.353   1.393   1.418   1.432   1.460   1.483   1.502   1.526
  1.531   1.562   1.569   1.603   1.629   1.680   1.688   1.717
  1.724   1.738   1.842   2.320   2.324   2.450   2.534   2.590
  2.691   2.731   2.735   2.901   2.905   2.907   3.017   3.102
  3.144   3.151   3.205   3.268   3.292   3.307   3.386   3.424
  3.441   3.508   3.563   3.640   3.657   3.660   3.715   3.724
  3.843   3.899   3.963   4.040   4.094   4.110   4.122   4.185
  4.316   4.320   4.334   4.341   4.414   4.477   4.498   4.501
  4.552   4.568   4.581   4.641   4.648   4.664   4.701   4.720
  4.768   4.805   5.156   5.166   5.309   5.322   5.345   5.551
  5.724   5.752   5.823   5.861   9.867  20.628  20.634  20.862
 24.055  24.292  27.127  27.174  27.194  27.239  27.246  27.667
 28.015  28.062  28.140  28.168  28.345  36.834  36.837  36.837
 36.839  36.847  36.849  36.858  40.886  40.915  40.969  41.055
 41.143  41.158  41.186  41.223  41.228  41.272 215.740
 --------------------------------------------------------------
 
          Ground-State Mulliken Net Atomic Charges

     Atom                 Charge (a.u.)
  ----------------------------------------
      1 C                     0.163018
      2 C                    -0.263972
      3 Cl                   -0.321646
      4 H                     0.079002
      5 H                     0.078917
      6 H                     0.078574
      7 H                     0.093005
      8 H                     0.093102
  ----------------------------------------
  Sum of atomic charges =     0.000000

 -----------------------------------------------------------------
                    Cartesian Multipole Moments
 -----------------------------------------------------------------
    Charge (ESU x 10^10)
                 0.0000
    Dipole Moment (Debye)
         X      -1.8934      Y       0.0002      Z       0.9336
       Tot       2.1111
    Quadrupole Moments (Debye-Ang)
        XX     -28.7440     XY       0.0006     YY     -26.1595
        XZ       0.9836     YZ       0.0001     ZZ     -26.6110
    Octapole Moments (Debye-Ang^2)
       XXX     -64.0080    XXY      -0.0006    XYY     -21.5148
       YYY       0.0005    XXZ      -2.8731    XYZ       0.0002
       YYZ      -2.7389    XZZ     -21.2009    YZZ       0.0002
       ZZZ      -7.9796
    Hexadecapole Moments (Debye-Ang^3)
      XXXX    -245.5703   XXXY      -0.0023   XXYY     -50.7418
      XYYY       0.0026   YYYY     -42.2024   XXXZ      34.2886
      XXYZ       0.0015   XYYZ      15.7758   YYYZ       0.0004
      XXZZ     -70.5441   XYZZ       0.0005   YYZZ     -36.3095
      XZZZ      41.5666   YZZZ       0.0003   ZZZZ    -185.3315
 -----------------------------------------------------------------
 Total job time:  88.36s(wall), 87.26s(cpu) 
 Wed May 29 17:33:48 2013

        *************************************************************
        *                                                           *
        *  Thank you very much for using Q-Chem.  Have a nice day.  *
        *                                                           *
        *************************************************************


0 sent ACK to 0 
now end server 0 ... 
 
**********************************************************************
Job 3 of 3 
**********************************************************************
 
Process 0 of 1 is on cl182.stfx.acenet.ca - thread support 1
initial socket setup ...start
initial socket setup ...done 
now start server 0 ... 

cmd = /usr/bin/ssh clhead /usr/local/qchem/bin/get_hostid 1202947915 > /scratch/tmp/6022807.1.medium.q/qchem3994/lic.dat
                  Welcome to Q-Chem
     A Quantum Leap Into The Future Of Chemistry

 Y. Shao, L. Fusti-Molnar, Y. Jung, J. Kussmann, C. Ochsenfeld,
 S. T. Brown, A. T. B. Gilbert, L. V. Slipchenko,S. V. Levchenko,
 D. P. O'Neill, R. A. DiStasio Jr., R. C. Lochan, T. Wang,
 G. J. O. Beran, N. A. Besley, J. M. Herbert, C. Y. Lin,
 T. Van Voorhis, S. H. Chien, A. Sodt, R. P. Steele, 
 V. A. Rassolov, P. E. Maslen, P. P. Korambath, R. D. Adamson,
 B. Austin, J. Baker, E. F. C. Byrd, H. Dachsel, R. J. Doerksen,
 A. Dreuw, B. D. Dunietz, A. D. Dutoi, T. R. Furlani,
 S. R. Gwaltney, A. Heyden, S. Hirata, C.-P. Hsu, G. Kedziora,
 R. Z. Khaliullin, P. Klunzinger, A. M. Lee, M. S. Lee, W. Liang,
 I. Lotan, N. Nair, B. Peters, E. I. Proynov, P. A. Pieniazek, 
 Y. M. Rhee, J. Ritchie, E. Rosta, C. D. Sherrill, 
 A. C. Simmonett, J. E. Subotnik, H. L. Woodcock III,
 W. Zhang, A. T. Bell, A. K. Chakraborty, D. M. Chipman,
 F. J. Keil, A. Warshel, W. J. Hehre, H. F. Schaefer III,
 J. Kong, A. I. Krylov, P. M. W. Gill, M. Head-Gordon,
 Q-Chem, Version 3.1, Q-Chem, Inc., Pittsburgh, PA (2007).

 Additional authors for Version 3.1: 
 Z. Gan, Y. Zhao, N. E. Schultz, D. Truhlar, E. Epifanovsky and M. Oana.

 Additional authors for Version 3.2: 
 R. Baer, B. R. Brooks, D. Casanova, J.-D. Chai, C.-L. Cheng, 
 C. Cramer, D. Crittenden, A. Ghysels, G. Hawkins, E. G. Hohenstein, 
 C. Kelley, W. Kurlancheek, D. Liotard, E. Livshits, P. Manohar, 
 A. Marenich, D. Neuhauser, R. Olson, M. A. Rohrdanz, K. S. Thanthiriwatte, 
 A. J. W. Thom, V. Vanovschi, C. F. Williams, Q. Wu and Z.-Q. You. 


 Intel X86 Linux Version

 Q-chem begins on Wed May 29 17:33:51 2013  

 Parallel job on  1  processors
Processing $rem in /usr/local/qchem/config/preferences.

theFileMan(): MAXOPENFILES=974 MAX_SUB_FILE_NUM=16
Maximum size of a physical file is 2.0 GB, maximum size of a tmp-file is 32.0 GB


--------------------------------------------------------------
User input:
--------------------------------------------------------------

$molecule
1,2
C          0.00889        0.00000        0.00112
C          0.00119        0.00000        1.50991
Cl         1.66461        0.00000       -0.64123
H         -0.48182       -0.88318       -0.40395
H         -0.48182        0.88318       -0.40395
H         -1.02857        0.00000        1.87326
H          0.50480       -0.88366        1.90198
H          0.50480        0.88366        1.90198
$end

$comment
positive
$end

$xc_functional
C PBE   1.00
X wPBE  1.00
$end

$rem
SYMMETRY_DECOMPOSITION	0
LRC_DFT                 true
exchange 		general
BASIS                   g3large
omega			390
mem_static              760
max_scf_cycles          200
scf_final_print         1
sym_ignore              true
$end

--------------------------------------------------------------
 Writing REM_CC_EA            8
 ----------------------------------------------------
       Standard Nuclear Orientation (Angstroms)
    I     Atom         X            Y            Z
 ----------------------------------------------------
    1      C       0.008890     0.000000     0.001120
    2      C       0.001190     0.000000     1.509910
    3      Cl      1.664610     0.000000    -0.641230
    4      H      -0.481820    -0.883180    -0.403950
    5      H      -0.481820     0.883180    -0.403950
    6      H      -1.028570     0.000000     1.873260
    7      H       0.504800    -0.883660     1.901980
    8      H       0.504800     0.883660     1.901980
 ----------------------------------------------------
 Nuclear Repulsion Energy =   103.4803634148 hartrees
 There are       17 alpha and       16 beta electrons
 Requested basis set is G3large
 There are 69 shells and 200 basis functions

Total QAlloc Memory Limit   2000 MB
Mega-Array Size       743 MB
MEM_STATIC part       760 MB

                       Distance Matrix (Angstroms)
             C (  1)   C (  2)   Cl(  3)   H (  4)   H (  5)   H (  6)
   C (  2)  1.508810
   Cl(  3)  1.775957  2.719259
   H (  4)  1.088524  2.162444  2.333125
   H (  5)  1.088524  2.162444  2.333125  1.766360
   H (  6)  2.140381  1.091984  3.684546  2.502924  2.502924
   H (  7)  2.154078  1.090044  2.931541  2.508133  3.067973  1.770001
   H (  8)  2.154078  1.090044  2.931541  3.067973  2.508133  1.770001
             H (  7)
   H (  8)  1.767320
 
 A cutoff of  1.0D-08 yielded   2249 shell pairs
 There are  18973 function pairs ( 24061 Cartesian)
Evaluating contribution to one-electron hamiltonian from nuclear
 Smallest overlap matrix eigenvalue = 8.92E-05

 Q-Chem warning in module mkSTV.C, line 194:

 Overlap eigenvalue is smaller than square root of threshold

 Multipole matrices computed through 2nd order

  Scale SEOQF with 1.000000e-01/1.000000e-01/1.000000e-01

 Standard Electronic Orientation quadrupole field applied
 Nucleus-field energy     =    -0.0000000014 hartrees
 Guess from superposition of atomic densities
 Warning:  Energy on first SCF cycle will be non-variational
 Long-range K will be added via erf
 Coulomb attenuation parameter = 0.39 bohr**(-1)
 An unrestricted Kohn-Sham SCF calculation will be
 performed using Pulay DIIS extrapolation
 Exchange:  wPBE + LR-HF      Correlation:  PBE
 Using SG-1 standard quadrature grid
 SCF converges when DIIS error is below 1.0E-05
 Requested basis set is G3large
 There are 69 shells and 200 basis functions
 A cutoff of  1.0D-08 yielded   2249 shell pairs
 There are  18973 function pairs ( 24061 Cartesian)
 Warning!  Inaccurate integrated density:
   Number of electrons =    33
   Numerical integral  =    33.999633158415
   Relative error      =     3.0291913891 %
 ---------------------------------------
  Cycle       Energy         DIIS Error
 ---------------------------------------
    1    -539.8613425676      2.76E-02
    2    -538.7891085099      2.99E-03
    3    -538.8362867456      1.96E-03
    4    -538.8531178543      2.93E-04
    5    -538.8552172661      1.94E-04
    6    -538.8559916389      9.66E-05
    7    -538.8568044474      7.21E-05
    8    -538.8573807882      3.43E-05
    9    -538.8575308187      1.40E-05
   10    -538.8575627546      6.30E-06 Convergence criterion met
 ---------------------------------------
 One-Electron    Energy =  -936.6766869370
 Total Coulomb   Energy =   334.7866604504
 Alpha Exchange  Energy =    -3.3883033375
 Beta  Exchange  Energy =    -3.1835958986
 DFT   Exchange  Energy =   -32.7068531293
 DFT Correlation Energy =    -1.1691473160
 Nuclear Repu.   Energy =   103.4803634134
 Nuclear Attr.   Energy = -1474.5663363025
 Kinetic         Energy =   537.8896493655
 <S^2> = 0.7551
 SCF time:  CPU 153.77 s  wall 155.22 s
 Final Alpha MO Eigenvalues
            1           2           3           4           5           6
    1-101.2367724 -10.4151717 -10.3046490  -9.7534512  -7.5781955  -7.5665328
            7           8           9          10          11          12
    1  -7.5567459  -1.3332426  -1.1389728  -0.9987542  -0.8730671  -0.8477095
           13          14          15          16          17          18
    1  -0.8018441  -0.7634024  -0.7154000  -0.7108636  -0.6931235  -0.1497100
           19          20          21          22
    1  -0.1058517  -0.0772361  -0.0725541  -0.0637830
 Final Beta MO Eigenvalues
            1           2           3           4           5           6
    1-101.2311528 -10.4145421 -10.3042599  -9.7483529  -7.5634454  -7.5632206
            7           8           9          10          11          12
    1  -7.5531846  -1.2977708  -1.1234650  -0.9894348  -0.8416098  -0.8350574
           13          14          15          16          17          18
    1  -0.7772323  -0.7111473  -0.7082448  -0.6903002  -0.4052043  -0.1389083
           19          20          21
    1  -0.1043582  -0.0756939  -0.0719800
 Analysis of SCF Wavefunction
 
 --------------------------------------------------------------
                    Orbital Energies (a.u.)
 --------------------------------------------------------------
 
 Alpha MOs
 -- Occupied --
******* -10.415 -10.305  -9.753  -7.578  -7.567  -7.557  -1.333
 -1.139  -0.999  -0.873  -0.848  -0.802  -0.763  -0.715  -0.711
 -0.693
 -- Virtual --
 -0.150  -0.106  -0.077  -0.073  -0.064  -0.039  -0.038  -0.021
 -0.017  -0.012   0.001   0.019   0.025   0.030   0.039   0.042
  0.045   0.055   0.086   0.094   0.096   0.104   0.112   0.146
  0.163   0.193   0.205   0.232   0.270   0.322   0.328   0.332
  0.340   0.357   0.410   0.421   0.437   0.461   0.471   0.479
  0.488   0.524   0.577   0.585   0.594   0.619   0.669   0.684
  0.786   0.788   0.818   0.831   0.849   0.893   0.899   0.907
  0.925   0.943   0.954   0.997   1.014   1.019   1.075   1.095
  1.113   1.146   1.184   1.195   1.225   1.260   1.273   1.288
  1.317   1.352   1.358   1.366   1.411   1.429   1.442   1.478
  1.489   1.528   1.586   1.983   2.017   2.153   2.312   2.378
  2.463   2.500   2.525   2.666   2.674   2.680   2.811   2.867
  2.905   2.923   2.990   3.031   3.070   3.080   3.169   3.198
  3.222   3.235   3.329   3.420   3.433   3.435   3.470   3.485
  3.621   3.660   3.750   3.806   3.866   3.879   3.901   3.960
  4.053   4.075   4.099   4.110   4.124   4.138   4.165   4.183
  4.231   4.266   4.299   4.370   4.398   4.421   4.458   4.471
  4.515   4.539   4.786   4.798   4.954   4.992   5.110   5.315
  5.491   5.495   5.589   5.599   9.504  20.240  20.267  20.497
 23.808  24.079  26.746  26.808  26.819  26.869  26.883  27.430
 27.740  27.822  27.935  27.946  28.117  36.455  36.458  36.463
 36.466  36.473  36.486  36.493  40.631  40.666  40.766  40.837
 40.884  40.900  40.959  40.989  41.023  41.068 215.362
 
 Beta MOs
 -- Occupied --
******* -10.415 -10.304  -9.748  -7.563  -7.563  -7.553  -1.298
 -1.123  -0.989  -0.842  -0.835  -0.777  -0.711  -0.708  -0.690
 -- Virtual --
 -0.405  -0.139  -0.104  -0.076  -0.072  -0.062  -0.037  -0.036
 -0.019  -0.015  -0.009   0.003   0.023   0.030   0.032   0.041
  0.045   0.050   0.057   0.087   0.100   0.102   0.120   0.133
  0.153   0.178   0.208   0.213   0.240   0.275   0.326   0.331
  0.336   0.358   0.362   0.416   0.423   0.441   0.466   0.473
  0.480   0.493   0.529   0.580   0.595   0.596   0.622   0.674
  0.689   0.792   0.793   0.829   0.840   0.865   0.910   0.914
  0.932   0.949   0.960   0.962   1.009   1.017   1.028   1.079
  1.101   1.123   1.154   1.196   1.201   1.231   1.270   1.276
  1.296   1.323   1.354   1.361   1.373   1.417   1.443   1.450
  1.484   1.493   1.531   1.593   2.024   2.030   2.160   2.317
  2.382   2.467   2.505   2.526   2.669   2.677   2.683   2.812
  2.870   2.909   2.925   2.993   3.035   3.071   3.082   3.171
  3.202   3.223   3.238   3.333   3.422   3.436   3.436   3.473
  3.487   3.624   3.665   3.753   3.814   3.871   3.884   3.904
  3.963   4.072   4.094   4.117   4.122   4.163   4.164   4.193
  4.206   4.252   4.293   4.310   4.379   4.408   4.426   4.463
  4.476   4.523   4.544   4.804   4.814   4.969   4.995   5.115
  5.320   5.499   5.502   5.592   5.603   9.515  20.264  20.272
 20.501  23.809  24.079  26.759  26.819  26.826  26.879  26.885
 27.431  27.740  27.824  27.936  27.947  28.118  36.460  36.464
 36.468  36.469  36.477  36.487  36.494  40.632  40.668  40.766
 40.838  40.885  40.900  40.960  40.990  41.024  41.069 215.368
 --------------------------------------------------------------
 
          Ground-State Mulliken Net Atomic Charges

     Atom                 Charge (a.u.)    Spin (a.u.)
  --------------------------------------------------------
      1 C                     0.175848       0.011573
      2 C                    -0.236246       0.021076
      3 Cl                    0.366959       0.860163
      4 H                     0.146459       0.022346
      5 H                     0.161178       0.072458
      6 H                     0.133177       0.002754
      7 H                     0.125118       0.007151
      8 H                     0.127506       0.002479
  --------------------------------------------------------
  Sum of atomic charges =     1.000000
  Sum of spin   charges =     1.000000

 -----------------------------------------------------------------
                    Cartesian Multipole Moments
 -----------------------------------------------------------------
    Charge (ESU x 10^10)
                 4.8032
    Dipole Moment (Debye)
         X       3.0983      Y       0.0916      Z      -0.1686
       Tot       3.1042
    Quadrupole Moments (Debye-Ang)
        XX     -15.1055     XY      -0.3572     YY     -21.3612
        XZ      -2.9499     YZ      -0.6692     ZZ     -18.8053
    Octapole Moments (Debye-Ang^2)
       XXX     -38.8123    XXY      -0.7584    XYY     -16.7752
       YYY       0.0971    XXZ      -8.4933    XYZ      -0.8601
       YYZ      -3.6890    XZZ     -16.0106    YZZ       0.7720
       ZZZ      -4.6425
    Hexadecapole Moments (Debye-Ang^3)
      XXXX    -177.1887   XXXY      -2.4264   XXYY     -38.0222
      XYYY      -0.3807   YYYY     -31.4203   XXXZ      18.8981
      XXYZ      -1.5452   XYYZ      12.8231   YYYZ      -0.5468
      XXZZ     -53.9586   XYZZ       1.2123   YYZZ     -29.0642
      XZZZ      30.7973   YZZZ      -1.4856   ZZZZ    -147.4569
 -----------------------------------------------------------------
 Total job time:  155.48s(wall), 154.01s(cpu) 
 Wed May 29 17:36:26 2013

        *************************************************************
        *                                                           *
        *  Thank you very much for using Q-Chem.  Have a nice day.  *
        *                                                           *
        *************************************************************


0 sent ACK to 0 
now end server 0 ... 
