Process 0 of 1 is on cl205.stfx.acenet.ca - thread support 1
initial socket setup ...start
initial socket setup ...done 
now start server 0 ... 

cmd = /usr/bin/ssh clhead /usr/local/qchem/bin/get_hostid 368763653 > /scratch/tmp/6022688.1.medium.q/qchem9489/lic.dat
                  Welcome to Q-Chem
     A Quantum Leap Into The Future Of Chemistry

 Y. Shao, L. Fusti-Molnar, Y. Jung, J. Kussmann, C. Ochsenfeld,
 S. T. Brown, A. T. B. Gilbert, L. V. Slipchenko,S. V. Levchenko,
 D. P. O'Neill, R. A. DiStasio Jr., R. C. Lochan, T. Wang,
 G. J. O. Beran, N. A. Besley, J. M. Herbert, C. Y. Lin,
 T. Van Voorhis, S. H. Chien, A. Sodt, R. P. Steele, 
 V. A. Rassolov, P. E. Maslen, P. P. Korambath, R. D. Adamson,
 B. Austin, J. Baker, E. F. C. Byrd, H. Dachsel, R. J. Doerksen,
 A. Dreuw, B. D. Dunietz, A. D. Dutoi, T. R. Furlani,
 S. R. Gwaltney, A. Heyden, S. Hirata, C.-P. Hsu, G. Kedziora,
 R. Z. Khaliullin, P. Klunzinger, A. M. Lee, M. S. Lee, W. Liang,
 I. Lotan, N. Nair, B. Peters, E. I. Proynov, P. A. Pieniazek, 
 Y. M. Rhee, J. Ritchie, E. Rosta, C. D. Sherrill, 
 A. C. Simmonett, J. E. Subotnik, H. L. Woodcock III,
 W. Zhang, A. T. Bell, A. K. Chakraborty, D. M. Chipman,
 F. J. Keil, A. Warshel, W. J. Hehre, H. F. Schaefer III,
 J. Kong, A. I. Krylov, P. M. W. Gill, M. Head-Gordon,
 Q-Chem, Version 3.1, Q-Chem, Inc., Pittsburgh, PA (2007).

 Additional authors for Version 3.1: 
 Z. Gan, Y. Zhao, N. E. Schultz, D. Truhlar, E. Epifanovsky and M. Oana.

 Additional authors for Version 3.2: 
 R. Baer, B. R. Brooks, D. Casanova, J.-D. Chai, C.-L. Cheng, 
 C. Cramer, D. Crittenden, A. Ghysels, G. Hawkins, E. G. Hohenstein, 
 C. Kelley, W. Kurlancheek, D. Liotard, E. Livshits, P. Manohar, 
 A. Marenich, D. Neuhauser, R. Olson, M. A. Rohrdanz, K. S. Thanthiriwatte, 
 A. J. W. Thom, V. Vanovschi, C. F. Williams, Q. Wu and Z.-Q. You. 


 Intel X86 Linux Version

 Q-chem begins on Wed May 29 17:22:50 2013  

 Parallel job on  1  processors
Processing $rem in /usr/local/qchem/config/preferences.

theFileMan(): MAXOPENFILES=974 MAX_SUB_FILE_NUM=16
Maximum size of a physical file is 2.0 GB, maximum size of a tmp-file is 32.0 GB


--------------------------------------------------------------
User input:
--------------------------------------------------------------

$molecule
-1,2
C         -0.00056        0.00000        0.00434
C          0.00130        0.00000        1.52593
N          1.31613        0.00000        2.14842
H         -1.01870        0.00000       -0.39231
H          0.51189        0.88312       -0.38585
H          0.51189       -0.88312       -0.38585
H         -0.54354       -0.87252        1.89679
H         -0.54354        0.87252        1.89679
H          1.84909        0.81533        1.87335
H          1.84909       -0.81533        1.87335
$end

$comment
negative
$end

$xc_functional
C PBE   1.00
X wPBE  1.00
$end

$rem
SYMMETRY_DECOMPOSITION	0
exchange 		general
LRC_DFT                 true
BASIS                   g3large
omega			410
mem_static              760
max_scf_cycles          200
scf_final_print         1
sym_ignore              true
$end

--------------------------------------------------------------
 Writing REM_CC_EA           10
 ----------------------------------------------------
       Standard Nuclear Orientation (Angstroms)
    I     Atom         X            Y            Z
 ----------------------------------------------------
    1      C      -0.000560     0.000000     0.004340
    2      C       0.001300     0.000000     1.525930
    3      N       1.316130     0.000000     2.148420
    4      H      -1.018700     0.000000    -0.392310
    5      H       0.511890     0.883120    -0.385850
    6      H       0.511890    -0.883120    -0.385850
    7      H      -0.543540    -0.872520     1.896790
    8      H      -0.543540     0.872520     1.896790
    9      H       1.849090     0.815330     1.873350
   10      H       1.849090    -0.815330     1.873350
 ----------------------------------------------------
 Nuclear Repulsion Energy =    83.0609780455 hartrees
 There are       14 alpha and       13 beta electrons
 Requested basis set is G3large
 There are 72 shells and 196 basis functions

Total QAlloc Memory Limit   2000 MB
Mega-Array Size       743 MB
MEM_STATIC part       760 MB

                       Distance Matrix (Angstroms)
             C (  1)   C (  2)   N (  3)   H (  4)   H (  5)   H (  6)
   C (  2)  1.521591
   N (  3)  2.516098  1.454741
   H (  4)  1.092676  2.172566  3.450614
   H (  5)  1.093048  2.166912  2.801647  1.767102
   H (  6)  1.093048  2.166912  2.801647  1.767102  1.766240
   H (  7)  2.153482  1.093471  2.069536  2.495405  3.067026  2.514854
   H (  8)  2.153482  1.093471  2.069536  2.495405  2.514854  3.067026
   H (  9)  2.753029  2.049339  1.012162  3.744623  2.626154  3.126791
   H ( 10)  2.753029  2.049339  1.012162  3.744623  3.126791  2.626154
             H (  7)   H (  8)   H (  9)
   H (  8)  1.745040
   H (  9)  2.928151  2.393428
   H ( 10)  2.393428  2.928151  1.630660
 
 A cutoff of  1.0D-08 yielded   2518 shell pairs
 There are  18718 function pairs ( 22399 Cartesian)
Evaluating contribution to one-electron hamiltonian from nuclear
 Smallest overlap matrix eigenvalue = 8.97E-05

 Q-Chem warning in module mkSTV.C, line 194:

 Overlap eigenvalue is smaller than square root of threshold

 Multipole matrices computed through 2nd order

  Scale SEOQF with 1.000000e-01/1.000000e-01/1.000000e-01

 Standard Electronic Orientation quadrupole field applied
 Nucleus-field energy     =    -0.0000000055 hartrees
 Guess from superposition of atomic densities
 Warning:  Energy on first SCF cycle will be non-variational
 Long-range K will be added via erf
 Coulomb attenuation parameter = 0.41 bohr**(-1)
 An unrestricted Kohn-Sham SCF calculation will be
 performed using Pulay DIIS extrapolation
 Exchange:  wPBE + LR-HF      Correlation:  PBE
 Using SG-1 standard quadrature grid
 SCF converges when DIIS error is below 1.0E-05
 Requested basis set is G3large
 There are 72 shells and 196 basis functions
 A cutoff of  1.0D-08 yielded   2518 shell pairs
 There are  18718 function pairs ( 22399 Cartesian)
 Warning!  Inaccurate integrated density:
   Number of electrons =    27
   Numerical integral  =    25.999489604020
   Relative error      =    -3.7055940592 %
 ---------------------------------------
  Cycle       Energy         DIIS Error
 ---------------------------------------
    1    -135.8192570833      3.16E-02
    2    -135.0111918612      3.70E-03
    3    -135.0613819002      3.02E-03
    4    -135.0986680025      3.52E-04
    5    -135.1009579153      1.81E-04
    6    -135.1016688696      6.39E-05
    7    -135.1019642538      2.94E-05
    8    -135.1021136587      1.90E-05
    9    -135.1022060702      1.46E-05
   10    -135.1022872044      1.08E-05
   11    -135.1023537029      4.85E-06 Convergence criterion met
 ---------------------------------------
 One-Electron    Energy =  -349.1054162663
 Total Coulomb   Energy =   151.3511143386
 Alpha Exchange  Energy =    -2.6878711870
 Beta  Exchange  Energy =    -2.6226121307
 DFT   Exchange  Energy =   -14.2541559791
 DFT Correlation Energy =    -0.8443905184
 Nuclear Repu.   Energy =    83.0609780400
 Nuclear Attr.   Energy =  -483.6515398584
 Kinetic         Energy =   134.5461235921
 <S^2> = 0.7502
 SCF time:  CPU 159.19 s  wall 184.89 s
 Final Alpha MO Eigenvalues
            1           2           3           4           5           6
    1 -14.0409063  -9.9922720  -9.9516150  -0.8950235  -0.7419068  -0.6176324
            7           8           9          10          11          12
    1  -0.4971358  -0.4342311  -0.3997137  -0.3990374  -0.3452468  -0.3193390
           13          14          15          16          17          18
    1  -0.2244400   0.0294355   0.1353542   0.1382853   0.1432478   0.1806861
           19
    1   0.1843622
 Final Beta MO Eigenvalues
            1           2           3           4           5           6
    1 -14.0405787  -9.9921068  -9.9511698  -0.8942837  -0.7408974  -0.6160980
            7           8           9          10          11          12
    1  -0.4965816  -0.4332909  -0.3994302  -0.3980569  -0.3439788  -0.3190197
           13          14          15          16          17          18
    1  -0.2236817   0.1348923   0.1523864   0.1532294   0.1542947   0.1832488
 Analysis of SCF Wavefunction
 
 --------------------------------------------------------------
                    Orbital Energies (a.u.)
 --------------------------------------------------------------
 
 Alpha MOs
 -- Occupied --
-14.041  -9.992  -9.952  -0.895  -0.742  -0.618  -0.497  -0.434
 -0.400  -0.399  -0.345  -0.319  -0.224   0.029
 -- Virtual --
  0.135   0.138   0.143   0.181   0.184   0.190   0.231   0.246
  0.265   0.284   0.286   0.294   0.305   0.306   0.345   0.364
  0.365   0.395   0.399   0.411   0.423   0.428   0.461   0.481
  0.494   0.522   0.540   0.647   0.651   0.670   0.698   0.745
  0.751   0.779   0.791   0.817   0.817   0.840   0.852   0.861
  0.876   0.898   0.913   0.922   0.989   1.002   1.028   1.075
  1.083   1.106   1.158   1.186   1.265   1.281   1.303   1.348
  1.367   1.424   1.426   1.435   1.452   1.476   1.509   1.522
  1.564   1.586   1.612   1.617   1.657   1.688   1.700   1.723
  1.760   1.804   1.838   1.840   1.849   1.934   1.970   2.065
  2.140   2.171   2.679   2.695   2.708   2.818   2.824   2.972
  3.043   3.058   3.112   3.126   3.187   3.227   3.276   3.314
  3.335   3.378   3.393   3.419   3.522   3.538   3.553   3.601
  3.632   3.684   3.709   3.760   3.783   3.823   3.827   3.879
  3.966   4.001   4.030   4.062   4.084   4.106   4.150   4.203
  4.222   4.263   4.304   4.321   4.330   4.431   4.495   4.508
  4.517   4.573   4.645   4.646   4.696   4.726   4.801   4.802
  4.859   4.934   4.990   5.056   5.198   5.216   5.298   5.442
  5.493   5.574   5.629   5.686   5.814   5.914   5.938   6.001
  6.044   6.421   6.711  24.336  24.511  27.824  28.225  28.248
 28.294  28.341  28.551  35.800  37.727  38.389  38.397  40.751
 40.773  40.861  40.912  40.964  41.091  41.115  41.137  41.223
 41.329  41.357  41.402  41.405  41.409  41.440
 
 Beta MOs
 -- Occupied --
-14.041  -9.992  -9.951  -0.894  -0.741  -0.616  -0.497  -0.433
 -0.399  -0.398  -0.344  -0.319  -0.224
 -- Virtual --
  0.135   0.152   0.153   0.154   0.183   0.188   0.192   0.230
  0.244   0.263   0.280   0.287   0.293   0.301   0.306   0.343
  0.363   0.364   0.393   0.400   0.412   0.423   0.426   0.458
  0.477   0.492   0.521   0.536   0.644   0.649   0.669   0.697
  0.744   0.750   0.778   0.789   0.816   0.817   0.839   0.851
  0.861   0.874   0.895   0.912   0.921   0.988   1.001   1.028
  1.075   1.084   1.107   1.158   1.186   1.265   1.281   1.303
  1.348   1.368   1.424   1.426   1.435   1.452   1.477   1.510
  1.522   1.564   1.586   1.612   1.617   1.657   1.687   1.700
  1.724   1.760   1.804   1.838   1.840   1.849   1.934   1.970
  2.066   2.140   2.171   2.679   2.695   2.708   2.818   2.824
  2.972   3.043   3.058   3.112   3.127   3.187   3.228   3.277
  3.315   3.335   3.379   3.394   3.420   3.522   3.539   3.554
  3.602   3.633   3.684   3.709   3.760   3.783   3.823   3.827
  3.879   3.966   4.001   4.031   4.063   4.085   4.106   4.150
  4.203   4.221   4.263   4.305   4.321   4.331   4.431   4.495
  4.508   4.517   4.573   4.645   4.647   4.696   4.726   4.802
  4.802   4.859   4.934   4.990   5.057   5.198   5.217   5.298
  5.443   5.493   5.575   5.630   5.686   5.814   5.915   5.938
  6.001   6.045   6.422   6.712  24.337  24.511  27.824  28.225
 28.248  28.294  28.341  28.551  35.801  37.728  38.389  38.398
 40.752  40.773  40.861  40.912  40.964  41.092  41.116  41.137
 41.223  41.329  41.357  41.402  41.405  41.410  41.440
 --------------------------------------------------------------
 
          Ground-State Mulliken Net Atomic Charges

     Atom                 Charge (a.u.)    Spin (a.u.)
  --------------------------------------------------------
      1 C                     1.773692      -1.998804
      2 C                     1.202584      -1.392666
      3 N                    -0.672041       0.361882
      4 H                    -0.240286       0.292861
      5 H                    -1.021358       1.109339
      6 H                    -1.063632       1.153790
      7 H                    -0.292286       0.370373
      8 H                    -0.266826       0.343188
      9 H                    -0.202900       0.372290
     10 H                    -0.216948       0.387747
  --------------------------------------------------------
  Sum of atomic charges =    -1.000000
  Sum of spin   charges =     1.000000

 -----------------------------------------------------------------
                    Cartesian Multipole Moments
 -----------------------------------------------------------------
    Charge (ESU x 10^10)
                -4.8032
    Dipole Moment (Debye)
         X      -5.0322      Y       0.2634      Z      -2.1583
       Tot       5.4819
    Quadrupole Moments (Debye-Ang)
        XX     -51.9751     XY       0.2225     YY     -49.2381
        XZ      -4.4135     YZ       0.0880     ZZ     -49.7901
    Octapole Moments (Debye-Ang^2)
       XXX     -93.7380    XXY       1.2774    XYY     -33.5734
       YYY       3.1186    XXZ     -39.4775    XYZ       0.0473
       YYZ     -29.0805    XZZ     -40.1337    YZZ       1.0991
       ZZZ    -116.9811
    Hexadecapole Moments (Debye-Ang^3)
      XXXX    -579.8503   XXXY       2.3477   XXYY    -168.5672
      XYYY       2.1717   YYYY    -415.9160   XXXZ    -105.8517
      XXYZ       0.7815   XYYZ     -31.3209   YYYZ       1.4538
      XXZZ    -207.0409   XYZZ       0.7177   YYZZ    -167.1898
      XZZZ    -131.7567   YZZZ       1.4482   ZZZZ    -666.2456
 -----------------------------------------------------------------
 Total job time:  185.54s(wall), 159.52s(cpu) 
 Wed May 29 17:25:55 2013

        *************************************************************
        *                                                           *
        *  Thank you very much for using Q-Chem.  Have a nice day.  *
        *                                                           *
        *************************************************************


0 sent ACK to 0 
now end server 0 ... 
 
**********************************************************************
Job 2 of 3 
**********************************************************************
 
Process 0 of 1 is on cl205.stfx.acenet.ca - thread support 1
initial socket setup ...start
initial socket setup ...done 
now start server 0 ... 

cmd = /usr/bin/ssh clhead /usr/local/qchem/bin/get_hostid 1177457289 > /scratch/tmp/6022688.1.medium.q/qchem9489/lic.dat
                  Welcome to Q-Chem
     A Quantum Leap Into The Future Of Chemistry

 Y. Shao, L. Fusti-Molnar, Y. Jung, J. Kussmann, C. Ochsenfeld,
 S. T. Brown, A. T. B. Gilbert, L. V. Slipchenko,S. V. Levchenko,
 D. P. O'Neill, R. A. DiStasio Jr., R. C. Lochan, T. Wang,
 G. J. O. Beran, N. A. Besley, J. M. Herbert, C. Y. Lin,
 T. Van Voorhis, S. H. Chien, A. Sodt, R. P. Steele, 
 V. A. Rassolov, P. E. Maslen, P. P. Korambath, R. D. Adamson,
 B. Austin, J. Baker, E. F. C. Byrd, H. Dachsel, R. J. Doerksen,
 A. Dreuw, B. D. Dunietz, A. D. Dutoi, T. R. Furlani,
 S. R. Gwaltney, A. Heyden, S. Hirata, C.-P. Hsu, G. Kedziora,
 R. Z. Khaliullin, P. Klunzinger, A. M. Lee, M. S. Lee, W. Liang,
 I. Lotan, N. Nair, B. Peters, E. I. Proynov, P. A. Pieniazek, 
 Y. M. Rhee, J. Ritchie, E. Rosta, C. D. Sherrill, 
 A. C. Simmonett, J. E. Subotnik, H. L. Woodcock III,
 W. Zhang, A. T. Bell, A. K. Chakraborty, D. M. Chipman,
 F. J. Keil, A. Warshel, W. J. Hehre, H. F. Schaefer III,
 J. Kong, A. I. Krylov, P. M. W. Gill, M. Head-Gordon,
 Q-Chem, Version 3.1, Q-Chem, Inc., Pittsburgh, PA (2007).

 Additional authors for Version 3.1: 
 Z. Gan, Y. Zhao, N. E. Schultz, D. Truhlar, E. Epifanovsky and M. Oana.

 Additional authors for Version 3.2: 
 R. Baer, B. R. Brooks, D. Casanova, J.-D. Chai, C.-L. Cheng, 
 C. Cramer, D. Crittenden, A. Ghysels, G. Hawkins, E. G. Hohenstein, 
 C. Kelley, W. Kurlancheek, D. Liotard, E. Livshits, P. Manohar, 
 A. Marenich, D. Neuhauser, R. Olson, M. A. Rohrdanz, K. S. Thanthiriwatte, 
 A. J. W. Thom, V. Vanovschi, C. F. Williams, Q. Wu and Z.-Q. You. 


 Intel X86 Linux Version

 Q-chem begins on Wed May 29 17:25:58 2013  

 Parallel job on  1  processors
Processing $rem in /usr/local/qchem/config/preferences.

theFileMan(): MAXOPENFILES=974 MAX_SUB_FILE_NUM=16
Maximum size of a physical file is 2.0 GB, maximum size of a tmp-file is 32.0 GB


--------------------------------------------------------------
User input:
--------------------------------------------------------------

$molecule
0,1
C         -0.00056        0.00000        0.00434
C          0.00130        0.00000        1.52593
N          1.31613        0.00000        2.14842
H         -1.01870        0.00000       -0.39231
H          0.51189        0.88312       -0.38585
H          0.51189       -0.88312       -0.38585
H         -0.54354       -0.87252        1.89679
H         -0.54354        0.87252        1.89679
H          1.84909        0.81533        1.87335
H          1.84909       -0.81533        1.87335
$end

$comment
neutral
$end

$xc_functional
C PBE   1.00
X wPBE  1.00
$end


$rem
SYMMETRY_DECOMPOSITION	0
LRC_DFT                 true
exchange 		general
BASIS                   g3large
omega			410
mem_static              760
max_scf_cycles          200
scf_final_print         1
sym_ignore              true
$end

--------------------------------------------------------------
 Writing REM_CC_EA           10
 ----------------------------------------------------
       Standard Nuclear Orientation (Angstroms)
    I     Atom         X            Y            Z
 ----------------------------------------------------
    1      C      -0.000560     0.000000     0.004340
    2      C       0.001300     0.000000     1.525930
    3      N       1.316130     0.000000     2.148420
    4      H      -1.018700     0.000000    -0.392310
    5      H       0.511890     0.883120    -0.385850
    6      H       0.511890    -0.883120    -0.385850
    7      H      -0.543540    -0.872520     1.896790
    8      H      -0.543540     0.872520     1.896790
    9      H       1.849090     0.815330     1.873350
   10      H       1.849090    -0.815330     1.873350
 ----------------------------------------------------
 Nuclear Repulsion Energy =    83.0609780455 hartrees
 There are       13 alpha and       13 beta electrons
 Requested basis set is G3large
 There are 72 shells and 196 basis functions

Total QAlloc Memory Limit   2000 MB
Mega-Array Size       743 MB
MEM_STATIC part       760 MB

                       Distance Matrix (Angstroms)
             C (  1)   C (  2)   N (  3)   H (  4)   H (  5)   H (  6)
   C (  2)  1.521591
   N (  3)  2.516098  1.454741
   H (  4)  1.092676  2.172566  3.450614
   H (  5)  1.093048  2.166912  2.801647  1.767102
   H (  6)  1.093048  2.166912  2.801647  1.767102  1.766240
   H (  7)  2.153482  1.093471  2.069536  2.495405  3.067026  2.514854
   H (  8)  2.153482  1.093471  2.069536  2.495405  2.514854  3.067026
   H (  9)  2.753029  2.049339  1.012162  3.744623  2.626154  3.126791
   H ( 10)  2.753029  2.049339  1.012162  3.744623  3.126791  2.626154
             H (  7)   H (  8)   H (  9)
   H (  8)  1.745040
   H (  9)  2.928151  2.393428
   H ( 10)  2.393428  2.928151  1.630660
 
 A cutoff of  1.0D-08 yielded   2518 shell pairs
 There are  18718 function pairs ( 22399 Cartesian)
Evaluating contribution to one-electron hamiltonian from nuclear
 Smallest overlap matrix eigenvalue = 8.97E-05

 Q-Chem warning in module mkSTV.C, line 194:

 Overlap eigenvalue is smaller than square root of threshold

 Multipole matrices computed through 2nd order

  Scale SEOQF with 1.000000e-01/1.000000e-01/1.000000e-01

 Standard Electronic Orientation quadrupole field applied
 Nucleus-field energy     =    -0.0000000055 hartrees
 Guess from superposition of atomic densities
 Warning:  Energy on first SCF cycle will be non-variational
 Long-range K will be added via erf
 Coulomb attenuation parameter = 0.41 bohr**(-1)
 A restricted Kohn-Sham SCF calculation will be
 performed using Pulay DIIS extrapolation
 Exchange:  wPBE + LR-HF      Correlation:  PBE
 Using SG-1 standard quadrature grid
 SCF converges when DIIS error is below 1.0E-05
 Requested basis set is G3large
 There are 72 shells and 196 basis functions
 A cutoff of  1.0D-08 yielded   2518 shell pairs
 There are  18718 function pairs ( 22399 Cartesian)
 ---------------------------------------
  Cycle       Energy         DIIS Error
 ---------------------------------------
    1    -135.8192570833      3.16E-02
    2    -135.0821376438      3.32E-03
    3    -135.1150632214      2.34E-03
    4    -135.1350326269      3.52E-04
    5    -135.1356032318      1.21E-04
    6    -135.1356841667      3.48E-05
    7    -135.1356908210      7.02E-06 Convergence criterion met
 ---------------------------------------
 One-Electron    Energy =  -345.5902296942
 Total Coulomb   Energy =   147.7282854620
 Alpha Exchange  Energy =    -2.6243338827
 Beta  Exchange  Energy =    -2.6243338827
 DFT   Exchange  Energy =   -14.2489412215
 DFT Correlation Energy =    -0.8371156419
 Nuclear Repu.   Energy =    83.0609780400
 Nuclear Attr.   Energy =  -480.0757368071
 Kinetic         Energy =   134.4855071129
 SCF time:  CPU 79.31 s  wall 97.39 s
 Final Alpha MO Eigenvalues
            1           2           3           4           5           6
    1 -14.1771318 -10.1256586 -10.0934451  -1.0307455  -0.8795069  -0.7530856
            7           8           9          10          11          12
    1  -0.6328842  -0.5701505  -0.5388232  -0.5350720  -0.4818861  -0.4556005
           13          14          15          16          17          18
    1  -0.3579167   0.0388866   0.0565405   0.0590843   0.0599420   0.0893230
 Analysis of SCF Wavefunction
 
 --------------------------------------------------------------
                    Orbital Energies (a.u.)
 --------------------------------------------------------------
 
 Alpha MOs
 -- Occupied --
-14.177 -10.126 -10.093  -1.031  -0.880  -0.753  -0.633  -0.570
 -0.539  -0.535  -0.482  -0.456  -0.358
 -- Virtual --
  0.039   0.057   0.059   0.060   0.089   0.093   0.096   0.128
  0.140   0.159   0.177   0.179   0.186   0.195   0.196   0.227
  0.250   0.252   0.269   0.273   0.286   0.293   0.306   0.338
  0.354   0.372   0.399   0.416   0.516   0.519   0.542   0.569
  0.615   0.622   0.646   0.660   0.686   0.687   0.708   0.722
  0.727   0.747   0.763   0.782   0.793   0.856   0.874   0.892
  0.941   0.947   0.970   1.020   1.057   1.129   1.146   1.167
  1.214   1.231   1.288   1.292   1.303   1.317   1.341   1.371
  1.389   1.431   1.454   1.475   1.483   1.526   1.554   1.561
  1.589   1.624   1.672   1.701   1.706   1.713   1.799   1.837
  1.931   2.008   2.037   2.539   2.561   2.573   2.678   2.690
  2.835   2.908   2.921   2.976   2.991   3.047   3.091   3.142
  3.178   3.199   3.242   3.254   3.284   3.385   3.402   3.418
  3.464   3.495   3.548   3.573   3.626   3.644   3.683   3.692
  3.744   3.830   3.864   3.893   3.926   3.949   3.970   4.013
  4.065   4.083   4.127   4.168   4.186   4.193   4.297   4.355
  4.369   4.379   4.438   4.505   4.511   4.560   4.589   4.663
  4.666   4.721   4.798   4.854   4.921   5.062   5.081   5.161
  5.307   5.358   5.439   5.494   5.550   5.679   5.774   5.799
  5.867   5.910   6.285   6.574  24.197  24.375  27.686  28.092
 28.109  28.152  28.205  28.413  35.664  37.592  38.253  38.261
 40.615  40.636  40.725  40.776  40.828  40.955  40.981  40.996
 41.085  41.196  41.216  41.261  41.271  41.276  41.298
 --------------------------------------------------------------
 
          Ground-State Mulliken Net Atomic Charges

     Atom                 Charge (a.u.)
  ----------------------------------------
      1 C                    -0.260998
      2 C                    -0.167809
      3 N                    -0.303568
      4 H                     0.069115
      5 H                     0.082354
      6 H                     0.082174
      7 H                     0.087495
      8 H                     0.087415
      9 H                     0.161921
     10 H                     0.161901
  ----------------------------------------
  Sum of atomic charges =     0.000000

 -----------------------------------------------------------------
                    Cartesian Multipole Moments
 -----------------------------------------------------------------
    Charge (ESU x 10^10)
                 0.0000
    Dipole Moment (Debye)
         X       0.1142      Y       0.0001      Z      -1.3757
       Tot       1.3804
    Quadrupole Moments (Debye-Ang)
        XX     -19.0821     XY       0.0011     YY     -19.0035
        XZ      -1.6021     YZ      -0.0005     ZZ     -28.5432
    Octapole Moments (Debye-Ang^2)
       XXX     -21.9367    XXY       0.0008    XYY      -5.7851
       YYY      -0.0001    XXZ     -23.5157    XYZ       0.0014
       YYZ     -20.9518    XZZ     -18.4773    YZZ      -0.0006
       ZZZ    -101.3135
    Hexadecapole Moments (Debye-Ang^3)
      XXXX    -103.4993   XXXY       0.0036   XXYY     -19.9829
      XYYY       0.0033   YYYY     -37.8008   XXXZ     -49.1577
      XXYZ       0.0008   XYYZ     -14.9384   YYYZ      -0.0030
      XXZZ     -79.3095   XYZZ       0.0043   YYZZ     -53.3017
      XZZZ     -94.9508   YZZZ      -0.0018   ZZZZ    -416.6606
 -----------------------------------------------------------------
 Total job time:  97.62s(wall), 79.52s(cpu) 
 Wed May 29 17:27:35 2013

        *************************************************************
        *                                                           *
        *  Thank you very much for using Q-Chem.  Have a nice day.  *
        *                                                           *
        *************************************************************


0 sent ACK to 0 
now end server 0 ... 
 
**********************************************************************
Job 3 of 3 
**********************************************************************
 
Process 0 of 1 is on cl205.stfx.acenet.ca - thread support 1
initial socket setup ...start
initial socket setup ...done 
now start server 0 ... 

cmd = /usr/bin/ssh clhead /usr/local/qchem/bin/get_hostid 526964379 > /scratch/tmp/6022688.1.medium.q/qchem9489/lic.dat
                  Welcome to Q-Chem
     A Quantum Leap Into The Future Of Chemistry

 Y. Shao, L. Fusti-Molnar, Y. Jung, J. Kussmann, C. Ochsenfeld,
 S. T. Brown, A. T. B. Gilbert, L. V. Slipchenko,S. V. Levchenko,
 D. P. O'Neill, R. A. DiStasio Jr., R. C. Lochan, T. Wang,
 G. J. O. Beran, N. A. Besley, J. M. Herbert, C. Y. Lin,
 T. Van Voorhis, S. H. Chien, A. Sodt, R. P. Steele, 
 V. A. Rassolov, P. E. Maslen, P. P. Korambath, R. D. Adamson,
 B. Austin, J. Baker, E. F. C. Byrd, H. Dachsel, R. J. Doerksen,
 A. Dreuw, B. D. Dunietz, A. D. Dutoi, T. R. Furlani,
 S. R. Gwaltney, A. Heyden, S. Hirata, C.-P. Hsu, G. Kedziora,
 R. Z. Khaliullin, P. Klunzinger, A. M. Lee, M. S. Lee, W. Liang,
 I. Lotan, N. Nair, B. Peters, E. I. Proynov, P. A. Pieniazek, 
 Y. M. Rhee, J. Ritchie, E. Rosta, C. D. Sherrill, 
 A. C. Simmonett, J. E. Subotnik, H. L. Woodcock III,
 W. Zhang, A. T. Bell, A. K. Chakraborty, D. M. Chipman,
 F. J. Keil, A. Warshel, W. J. Hehre, H. F. Schaefer III,
 J. Kong, A. I. Krylov, P. M. W. Gill, M. Head-Gordon,
 Q-Chem, Version 3.1, Q-Chem, Inc., Pittsburgh, PA (2007).

 Additional authors for Version 3.1: 
 Z. Gan, Y. Zhao, N. E. Schultz, D. Truhlar, E. Epifanovsky and M. Oana.

 Additional authors for Version 3.2: 
 R. Baer, B. R. Brooks, D. Casanova, J.-D. Chai, C.-L. Cheng, 
 C. Cramer, D. Crittenden, A. Ghysels, G. Hawkins, E. G. Hohenstein, 
 C. Kelley, W. Kurlancheek, D. Liotard, E. Livshits, P. Manohar, 
 A. Marenich, D. Neuhauser, R. Olson, M. A. Rohrdanz, K. S. Thanthiriwatte, 
 A. J. W. Thom, V. Vanovschi, C. F. Williams, Q. Wu and Z.-Q. You. 


 Intel X86 Linux Version

 Q-chem begins on Wed May 29 17:27:38 2013  

 Parallel job on  1  processors
Processing $rem in /usr/local/qchem/config/preferences.

theFileMan(): MAXOPENFILES=974 MAX_SUB_FILE_NUM=16
Maximum size of a physical file is 2.0 GB, maximum size of a tmp-file is 32.0 GB


--------------------------------------------------------------
User input:
--------------------------------------------------------------

$molecule
1,2
C         -0.00056        0.00000        0.00434
C          0.00130        0.00000        1.52593
N          1.31613        0.00000        2.14842
H         -1.01870        0.00000       -0.39231
H          0.51189        0.88312       -0.38585
H          0.51189       -0.88312       -0.38585
H         -0.54354       -0.87252        1.89679
H         -0.54354        0.87252        1.89679
H          1.84909        0.81533        1.87335
H          1.84909       -0.81533        1.87335
$end

$comment
positive
$end

$xc_functional
C PBE   1.00
X wPBE  1.00
$end

$rem
SYMMETRY_DECOMPOSITION	0
LRC_DFT                 true
exchange 		general
BASIS                   g3large
omega			410
mem_static              760
max_scf_cycles          200
scf_final_print         1
sym_ignore              true
$end

--------------------------------------------------------------
 Writing REM_CC_EA           10
 ----------------------------------------------------
       Standard Nuclear Orientation (Angstroms)
    I     Atom         X            Y            Z
 ----------------------------------------------------
    1      C      -0.000560     0.000000     0.004340
    2      C       0.001300     0.000000     1.525930
    3      N       1.316130     0.000000     2.148420
    4      H      -1.018700     0.000000    -0.392310
    5      H       0.511890     0.883120    -0.385850
    6      H       0.511890    -0.883120    -0.385850
    7      H      -0.543540    -0.872520     1.896790
    8      H      -0.543540     0.872520     1.896790
    9      H       1.849090     0.815330     1.873350
   10      H       1.849090    -0.815330     1.873350
 ----------------------------------------------------
 Nuclear Repulsion Energy =    83.0609780455 hartrees
 There are       13 alpha and       12 beta electrons
 Requested basis set is G3large
 There are 72 shells and 196 basis functions

Total QAlloc Memory Limit   2000 MB
Mega-Array Size       743 MB
MEM_STATIC part       760 MB

                       Distance Matrix (Angstroms)
             C (  1)   C (  2)   N (  3)   H (  4)   H (  5)   H (  6)
   C (  2)  1.521591
   N (  3)  2.516098  1.454741
   H (  4)  1.092676  2.172566  3.450614
   H (  5)  1.093048  2.166912  2.801647  1.767102
   H (  6)  1.093048  2.166912  2.801647  1.767102  1.766240
   H (  7)  2.153482  1.093471  2.069536  2.495405  3.067026  2.514854
   H (  8)  2.153482  1.093471  2.069536  2.495405  2.514854  3.067026
   H (  9)  2.753029  2.049339  1.012162  3.744623  2.626154  3.126791
   H ( 10)  2.753029  2.049339  1.012162  3.744623  3.126791  2.626154
             H (  7)   H (  8)   H (  9)
   H (  8)  1.745040
   H (  9)  2.928151  2.393428
   H ( 10)  2.393428  2.928151  1.630660
 
 A cutoff of  1.0D-08 yielded   2518 shell pairs
 There are  18718 function pairs ( 22399 Cartesian)
Evaluating contribution to one-electron hamiltonian from nuclear
 Smallest overlap matrix eigenvalue = 8.97E-05

 Q-Chem warning in module mkSTV.C, line 194:

 Overlap eigenvalue is smaller than square root of threshold

 Multipole matrices computed through 2nd order

  Scale SEOQF with 1.000000e-01/1.000000e-01/1.000000e-01

 Standard Electronic Orientation quadrupole field applied
 Nucleus-field energy     =    -0.0000000055 hartrees
 Guess from superposition of atomic densities
 Warning:  Energy on first SCF cycle will be non-variational
 Long-range K will be added via erf
 Coulomb attenuation parameter = 0.41 bohr**(-1)
 An unrestricted Kohn-Sham SCF calculation will be
 performed using Pulay DIIS extrapolation
 Exchange:  wPBE + LR-HF      Correlation:  PBE
 Using SG-1 standard quadrature grid
 SCF converges when DIIS error is below 1.0E-05
 Requested basis set is G3large
 There are 72 shells and 196 basis functions
 A cutoff of  1.0D-08 yielded   2518 shell pairs
 There are  18718 function pairs ( 22399 Cartesian)
 Warning!  Inaccurate integrated density:
   Number of electrons =    25
   Numerical integral  =    25.999489604020
   Relative error      =     3.9979584161 %
 ---------------------------------------
  Cycle       Energy         DIIS Error
 ---------------------------------------
    1    -135.8192570833      3.16E-02
    2    -134.7338651812      2.67E-03
    3    -134.7735668851      1.56E-03
    4    -134.7840996004      5.43E-04
    5    -134.7857424098      1.20E-04
    6    -134.7860149124      8.13E-05
    7    -134.7861535557      3.67E-05
    8    -134.7862216362      1.51E-05
    9    -134.7862339500      3.92E-06 Convergence criterion met
 ---------------------------------------
 One-Electron    Energy =  -338.4254789406
 Total Coulomb   Energy =   140.5878719716
 Alpha Exchange  Energy =    -2.6457551227
 Beta  Exchange  Energy =    -2.4283507289
 DFT   Exchange  Energy =   -14.1366467344
 DFT Correlation Energy =    -0.7988524350
 Nuclear Repu.   Energy =    83.0609780400
 Nuclear Attr.   Energy =  -472.6297241715
 Kinetic         Energy =   134.2042452309
 <S^2> = 0.7550
 SCF time:  CPU 126.94 s  wall 146.71 s
 Final Alpha MO Eigenvalues
            1           2           3           4           5           6
    1 -14.5814657 -10.3840793 -10.3202003  -1.3767958  -1.1372450  -1.0114092
            7           8           9          10          11          12
    1  -0.9544920  -0.8538925  -0.8420923  -0.7867326  -0.7183906  -0.7038946
           13          14          15          16          17          18
    1  -0.6852902  -0.1235007  -0.0871302  -0.0816876  -0.0715948  -0.0436100
 Final Beta MO Eigenvalues
            1           2           3           4           5           6
    1 -14.5638930 -10.3838664 -10.3180340  -1.3391124  -1.1222036  -1.0020551
            7           8           9          10          11          12
    1  -0.9412645  -0.8427464  -0.7831328  -0.7558891  -0.7056978  -0.6833571
           13          14          15          16          17
    1  -0.3375629  -0.1205481  -0.0857545  -0.0808535  -0.0691978
 Analysis of SCF Wavefunction
 
 --------------------------------------------------------------
                    Orbital Energies (a.u.)
 --------------------------------------------------------------
 
 Alpha MOs
 -- Occupied --
-14.581 -10.384 -10.320  -1.377  -1.137  -1.011  -0.954  -0.854
 -0.842  -0.787  -0.718  -0.704  -0.685
 -- Virtual --
 -0.124  -0.087  -0.082  -0.072  -0.044  -0.041  -0.030  -0.029
 -0.019  -0.007   0.024   0.030   0.034   0.038   0.044   0.049
  0.064   0.070   0.071   0.076   0.092   0.109   0.111   0.129
  0.152   0.173   0.205   0.220   0.325   0.325   0.331   0.359
  0.391   0.401   0.441   0.462   0.475   0.480   0.490   0.495
  0.497   0.504   0.538   0.549   0.582   0.611   0.646   0.677
  0.709   0.716   0.740   0.765   0.808   0.883   0.921   0.940
  0.969   1.012   1.070   1.070   1.087   1.102   1.112   1.133
  1.150   1.175   1.209   1.227   1.262   1.311   1.337   1.366
  1.376   1.382   1.428   1.449   1.468   1.489   1.535   1.543
  1.648   1.717   1.753   2.275   2.331   2.349   2.452   2.455
  2.565   2.655   2.666   2.722   2.725   2.825   2.847   2.871
  2.921   2.958   2.989   3.019   3.029   3.120   3.156   3.168
  3.180   3.239   3.261   3.293   3.340   3.410   3.434   3.461
  3.467   3.526   3.534   3.644   3.647   3.649   3.716   3.755
  3.790   3.858   3.866   3.905   3.924   3.925   4.043   4.118
  4.141   4.150   4.160   4.249   4.266   4.307   4.315   4.387
  4.424   4.461   4.515   4.587   4.614   4.742   4.762   4.844
  4.963   4.973   5.084   5.130   5.300   5.332   5.540   5.572
  5.603   5.626   5.942   6.227  23.959  24.128  27.441  27.832
 27.870  27.927  27.962  28.170  35.262  37.168  37.858  37.865
 40.191  40.240  40.314  40.365  40.432  40.705  40.725  40.770
 40.844  40.937  40.986  41.009  41.020  41.033  41.072
 
 Beta MOs
 -- Occupied --
-14.564 -10.384 -10.318  -1.339  -1.122  -1.002  -0.941  -0.843
 -0.783  -0.756  -0.706  -0.683
 -- Virtual --
 -0.338  -0.121  -0.086  -0.081  -0.069  -0.042  -0.040  -0.029
 -0.027  -0.016  -0.005   0.027   0.034   0.035   0.040   0.046
  0.050   0.067   0.072   0.079   0.083   0.094   0.110   0.113
  0.134   0.159   0.178   0.210   0.226   0.325   0.329   0.333
  0.368   0.394   0.407   0.447   0.464   0.482   0.487   0.492
  0.502   0.505   0.516   0.547   0.557   0.583   0.626   0.649
  0.680   0.712   0.718   0.750   0.799   0.809   0.889   0.923
  0.945   0.981   1.016   1.071   1.076   1.089   1.105   1.116
  1.137   1.156   1.188   1.222   1.232   1.270   1.313   1.344
  1.368   1.381   1.387   1.436   1.465   1.479   1.491   1.550
  1.561   1.661   1.739   1.762   2.282   2.334   2.355   2.454
  2.461   2.571   2.660   2.678   2.730   2.737   2.827   2.854
  2.874   2.929   2.961   2.999   3.030   3.031   3.135   3.165
  3.182   3.188   3.248   3.274   3.303   3.363   3.413   3.441
  3.465   3.478   3.542   3.566   3.648   3.662   3.670   3.722
  3.768   3.807   3.862   3.880   3.919   3.931   3.934   4.048
  4.130   4.150   4.153   4.167   4.260   4.271   4.314   4.330
  4.403   4.432   4.473   4.526   4.595   4.626   4.753   4.792
  4.885   5.002   5.029   5.136   5.183   5.309   5.359   5.544
  5.579   5.619   5.629   5.963   6.245  23.961  24.129  27.445
 27.831  27.871  27.928  27.963  28.174  35.282  37.217  37.870
 37.876  40.240  40.251  40.344  40.395  40.443  40.708  40.725
 40.771  40.848  40.938  40.989  41.010  41.020  41.037  41.074
 --------------------------------------------------------------
 
          Ground-State Mulliken Net Atomic Charges

     Atom                 Charge (a.u.)    Spin (a.u.)
  --------------------------------------------------------
      1 C                    -0.185258       0.108947
      2 C                    -0.238928      -0.002213
      3 N                     0.240374       0.879009
      4 H                     0.134308       0.012275
      5 H                     0.120807      -0.004561
      6 H                     0.120846      -0.004561
      7 H                     0.158148       0.014116
      8 H                     0.158105       0.013862
      9 H                     0.245809      -0.008385
     10 H                     0.245790      -0.008490
  --------------------------------------------------------
  Sum of atomic charges =     1.000000
  Sum of spin   charges =     1.000000

 -----------------------------------------------------------------
                    Cartesian Multipole Moments
 -----------------------------------------------------------------
    Charge (ESU x 10^10)
                 4.8032
    Dipole Moment (Debye)
         X       4.2903      Y      -0.0002      Z       6.8437
       Tot       8.0773
    Quadrupole Moments (Debye-Ang)
        XX      -8.1211     XY       0.0003     YY     -15.2995
        XZ       8.6970     YZ      -0.0007     ZZ      -4.8568
    Octapole Moments (Debye-Ang^2)
       XXX      -5.4466    XXY       0.0001    XYY      -3.0740
       YYY      -0.0002    XXZ      -2.9511    XYZ       0.0002
       YYZ     -15.6408    XZZ       8.4053    YZZ      -0.0018
       ZZZ     -37.6873
    Hexadecapole Moments (Debye-Ang^3)
      XXXX     -58.9097   XXXY       0.0009   XXYY     -11.6638
      XYYY       0.0002   YYYY     -29.0724   XXXZ     -12.7525
      XXYZ      -0.0007   XYYZ      -9.6434   YYYZ      -0.0003
      XXZZ     -25.5963   XYZZ      -0.0008   YYZZ     -38.5518
      XZZZ     -16.6511   YZZZ      -0.0050   ZZZZ    -219.8141
 -----------------------------------------------------------------
 Total job time:  146.95s(wall), 127.17s(cpu) 
 Wed May 29 17:30:05 2013

        *************************************************************
        *                                                           *
        *  Thank you very much for using Q-Chem.  Have a nice day.  *
        *                                                           *
        *************************************************************


0 sent ACK to 0 
now end server 0 ... 
