Process 0 of 1 is on cl243.stfx.acenet.ca - thread support 1
initial socket setup ...start
initial socket setup ...done 
now start server 0 ... 

cmd = /usr/bin/ssh clhead /usr/local/qchem/bin/get_hostid 1692396186 > /scratch/tmp/6028475.1.long.q/qchem3354/lic.dat
                  Welcome to Q-Chem
     A Quantum Leap Into The Future Of Chemistry

 Y. Shao, L. Fusti-Molnar, Y. Jung, J. Kussmann, C. Ochsenfeld,
 S. T. Brown, A. T. B. Gilbert, L. V. Slipchenko,S. V. Levchenko,
 D. P. O'Neill, R. A. DiStasio Jr., R. C. Lochan, T. Wang,
 G. J. O. Beran, N. A. Besley, J. M. Herbert, C. Y. Lin,
 T. Van Voorhis, S. H. Chien, A. Sodt, R. P. Steele, 
 V. A. Rassolov, P. E. Maslen, P. P. Korambath, R. D. Adamson,
 B. Austin, J. Baker, E. F. C. Byrd, H. Dachsel, R. J. Doerksen,
 A. Dreuw, B. D. Dunietz, A. D. Dutoi, T. R. Furlani,
 S. R. Gwaltney, A. Heyden, S. Hirata, C.-P. Hsu, G. Kedziora,
 R. Z. Khaliullin, P. Klunzinger, A. M. Lee, M. S. Lee, W. Liang,
 I. Lotan, N. Nair, B. Peters, E. I. Proynov, P. A. Pieniazek, 
 Y. M. Rhee, J. Ritchie, E. Rosta, C. D. Sherrill, 
 A. C. Simmonett, J. E. Subotnik, H. L. Woodcock III,
 W. Zhang, A. T. Bell, A. K. Chakraborty, D. M. Chipman,
 F. J. Keil, A. Warshel, W. J. Hehre, H. F. Schaefer III,
 J. Kong, A. I. Krylov, P. M. W. Gill, M. Head-Gordon,
 Q-Chem, Version 3.1, Q-Chem, Inc., Pittsburgh, PA (2007).

 Additional authors for Version 3.1: 
 Z. Gan, Y. Zhao, N. E. Schultz, D. Truhlar, E. Epifanovsky and M. Oana.

 Additional authors for Version 3.2: 
 R. Baer, B. R. Brooks, D. Casanova, J.-D. Chai, C.-L. Cheng, 
 C. Cramer, D. Crittenden, A. Ghysels, G. Hawkins, E. G. Hohenstein, 
 C. Kelley, W. Kurlancheek, D. Liotard, E. Livshits, P. Manohar, 
 A. Marenich, D. Neuhauser, R. Olson, M. A. Rohrdanz, K. S. Thanthiriwatte, 
 A. J. W. Thom, V. Vanovschi, C. F. Williams, Q. Wu and Z.-Q. You. 


 Intel X86 Linux Version

 Q-chem begins on Tue Jun  4 15:35:04 2013  

 Parallel job on  1  processors
Processing $rem in /usr/local/qchem/config/preferences.

theFileMan(): MAXOPENFILES=974 MAX_SUB_FILE_NUM=16
Maximum size of a physical file is 2.0 GB, maximum size of a tmp-file is 32.0 GB


--------------------------------------------------------------
User input:
--------------------------------------------------------------

$molecule
-1,2
Si        -0.00000       -0.00000        0.05795
Si         0.00000        0.00000        2.29228
H          1.38673       -0.00000       -0.43020
H         -0.69338       -1.20095       -0.43019
H         -0.69338        1.20095       -0.43019
H         -1.38673       -0.00000        2.78043
H          0.69338       -1.20095        2.78042
H          0.69338        1.20095        2.78042
$end

$comment
negative
$end

$xc_functional
C PBE   1.00
X wPBE  1.00
$end

$rem
SYMMETRY_DECOMPOSITION	0
exchange 		general
LRC_DFT                 true
BASIS                   g3large
omega			300
mem_static              760
max_scf_cycles          200
scf_final_print         1
sym_ignore              true
$end

--------------------------------------------------------------
 Writing REM_CC_EA            8
 ----------------------------------------------------
       Standard Nuclear Orientation (Angstroms)
    I     Atom         X            Y            Z
 ----------------------------------------------------
    1      Si      0.000000     0.000000     0.057950
    2      Si      0.000000     0.000000     2.292280
    3      H       1.386730     0.000000    -0.430200
    4      H      -0.693380    -1.200950    -0.430190
    5      H      -0.693380     1.200950    -0.430190
    6      H      -1.386730     0.000000     2.780430
    7      H       0.693380    -1.200950     2.780420
    8      H       0.693380     1.200950     2.780420
 ----------------------------------------------------
 Nuclear Repulsion Energy =    93.8088899611 hartrees
 There are       18 alpha and       17 beta electrons
 Requested basis set is G3large
 There are 74 shells and 192 basis functions

Total QAlloc Memory Limit   2000 MB
Mega-Array Size       743 MB
MEM_STATIC part       760 MB

                       Distance Matrix (Angstroms)
             Si(  1)   Si(  2)   H (  3)   H (  4)   H (  5)   H (  6)
   Si(  2)  2.234330
   H (  3)  1.470140  3.055310
   H (  4)  1.470149  3.055307  2.401903
   H (  5)  1.470149  3.055307  2.401903  2.401900
   H (  6)  3.055310  1.470140  4.242667  3.497298  3.497298
   H (  7)  3.055307  1.470149  3.497298  3.497302  4.242669  2.401903
   H (  8)  3.055307  1.470149  3.497298  4.242669  3.497302  2.401903
             H (  7)
   H (  8)  2.401900
 
 A cutoff of  1.0D-08 yielded   2559 shell pairs
 There are  17404 function pairs ( 22567 Cartesian)
Evaluating contribution to one-electron hamiltonian from nuclear
 Smallest overlap matrix eigenvalue = 1.65E-04
 Multipole matrices computed through 2nd order

  Scale SEOQF with 1.000000e-01/1.000000e-01/1.000000e-01

 Standard Electronic Orientation quadrupole field applied
 Nucleus-field energy     =    -0.0000000098 hartrees
 Guess from superposition of atomic densities
 Warning:  Energy on first SCF cycle will be non-variational
 Long-range K will be added via erf
 Coulomb attenuation parameter = 0.3 bohr**(-1)
 An unrestricted Kohn-Sham SCF calculation will be
 performed using Pulay DIIS extrapolation
 Exchange:  wPBE + LR-HF      Correlation:  PBE
 Using SG-1 standard quadrature grid
 SCF converges when DIIS error is below 1.0E-05
 Requested basis set is G3large
 There are 74 shells and 192 basis functions
 A cutoff of  1.0D-08 yielded   2559 shell pairs
 There are  17404 function pairs ( 22567 Cartesian)
 Warning!  Inaccurate integrated density:
   Number of electrons =    35
   Numerical integral  =    34.000156064543
   Relative error      =    -2.8566969584 %
 ---------------------------------------
  Cycle       Energy         DIIS Error
 ---------------------------------------
    1    -582.3809497424      2.30E-02
    2    -582.2399642551      1.66E-03
    3    -582.2693032117      8.23E-04
    4    -582.2731030900      1.86E-04
    5    -582.2737459169      6.46E-05
    6    -582.2739764663      3.07E-05
    7    -582.2740933017      1.86E-05
    8    -582.2742158892      1.92E-05
    9    -582.2741500338      1.76E-05
   10    -582.2740167368      1.21E-05
   11    -582.2739964891      6.43E-06 Convergence criterion met
 ---------------------------------------
 One-Electron    Energy =  -999.4908007240
 Total Coulomb   Energy =   367.4175682183
 Alpha Exchange  Energy =    -2.7884569308
 Beta  Exchange  Energy =    -2.6780163977
 DFT   Exchange  Energy =   -37.3201418788
 DFT Correlation Energy =    -1.2230387274
 Nuclear Repu.   Energy =    93.8088899513
 Nuclear Attr.   Energy = -1581.0750253811
 Kinetic         Energy =   581.5842246571
 <S^2> = 0.7545
 SCF time:  CPU 159.17 s  wall 160.17 s
 Final Alpha MO Eigenvalues
            1           2           3           4           5           6
    1 -65.3551606 -65.3551480  -5.0163186  -5.0161532  -3.4230509  -3.4229897
            7           8           9          10          11          12
    1  -3.4223255  -3.4218312  -3.4215237  -3.4211455  -0.4993955  -0.4249434
           13          14          15          16          17          18
    1  -0.2836524  -0.2821443  -0.2522669  -0.2491184  -0.1991033   0.0677579
           19          20          21          22          23
    1   0.1617707   0.1644410   0.1937172   0.1966892   0.1996334
 Final Beta MO Eigenvalues
            1           2           3           4           5           6
    1 -65.3551067 -65.3550941  -5.0160959  -5.0159396  -3.4229901  -3.4229573
            7           8           9          10          11          12
    1  -3.4222494  -3.4214959  -3.4208311  -3.4207769  -0.4908584  -0.4211941
           13          14          15          16          17          18
    1  -0.2795202  -0.2682539  -0.2480139  -0.2381999  -0.1864223   0.1637348
           19          20          21          22
    1   0.1666684   0.1952155   0.1983570   0.2010769
 Analysis of SCF Wavefunction
 
 --------------------------------------------------------------
                    Orbital Energies (a.u.)
 --------------------------------------------------------------
 
 Alpha MOs
 -- Occupied --
-65.355 -65.355  -5.016  -5.016  -3.423  -3.423  -3.422  -3.422
 -3.422  -3.421  -0.499  -0.425  -0.284  -0.282  -0.252  -0.249
 -0.199   0.068
 -- Virtual --
  0.162   0.164   0.194   0.197   0.200   0.200   0.204   0.210
  0.211   0.221   0.225   0.260   0.292   0.295   0.296   0.300
  0.324   0.332   0.358   0.373   0.394   0.397   0.445   0.478
  0.484   0.486   0.487   0.490   0.537   0.539   0.548   0.552
  0.573   0.582   0.584   0.658   0.665   0.670   0.704   0.705
  0.714   0.729   0.747   0.750   0.752   0.874   0.875   0.885
  0.893   0.912   0.915   0.927   0.931   0.935   0.956   0.957
  0.996   1.089   1.089   1.100   1.100   1.136   1.165   1.167
  1.213   1.214   1.218   1.253   1.323   1.361   1.373   1.375
  1.410   1.411   1.461   1.462   1.507   1.509   1.509   1.576
  1.607   1.609   1.611   1.672   1.681   1.683   1.772   1.774
  1.786   1.788   1.873   1.952   2.303   2.331   2.333   2.375
  2.395   2.441   2.442   2.504   2.524   2.525   2.615   2.648
  2.649   2.784   3.083   3.088   3.092   3.098   3.348   3.349
  3.797   3.798   3.861   3.864   3.865   4.033   4.036   4.045
  4.048   4.295   4.308   4.311   4.314   4.317   4.325   4.367
  4.373   4.375   4.400   4.406   4.466   4.468   4.585   4.715
  4.718   4.759   4.814   4.818   6.252   6.398  11.629  11.630
 11.677  11.678  11.748  11.868  17.685  17.727  17.736  17.780
 17.813  17.932  17.989  17.996  18.022  18.055  22.336  22.344
 22.347  22.351  22.354  22.365  22.367  22.372  22.378  22.379
 22.382  22.384  22.397  22.413 141.120 141.300
 
 Beta MOs
 -- Occupied --
-65.355 -65.355  -5.016  -5.016  -3.423  -3.423  -3.422  -3.421
 -3.421  -3.421  -0.491  -0.421  -0.280  -0.268  -0.248  -0.238
 -0.186
 -- Virtual --
  0.164   0.167   0.195   0.198   0.201   0.205   0.207   0.212
  0.215   0.222   0.228   0.230   0.296   0.297   0.301   0.303
  0.310   0.338   0.340   0.362   0.378   0.399   0.400   0.452
  0.483   0.487   0.490   0.493   0.495   0.546   0.548   0.557
  0.562   0.575   0.586   0.592   0.669   0.674   0.678   0.714
  0.718   0.722   0.735   0.752   0.759   0.760   0.881   0.887
  0.889   0.896   0.920   0.922   0.933   0.933   0.938   0.959
  0.962   1.006   1.092   1.093   1.102   1.107   1.139   1.173
  1.181   1.217   1.222   1.227   1.256   1.328   1.368   1.379
  1.380   1.415   1.419   1.468   1.468   1.511   1.516   1.516
  1.583   1.613   1.613   1.620   1.678   1.685   1.693   1.777
  1.784   1.789   1.797   1.881   1.957   2.304   2.332   2.341
  2.380   2.400   2.446   2.449   2.508   2.530   2.532   2.622
  2.649   2.656   2.788   3.086   3.095   3.098   3.106   3.354
  3.355   3.798   3.800   3.862   3.865   3.868   4.035   4.042
  4.047   4.054   4.299   4.311   4.315   4.321   4.326   4.330
  4.371   4.379   4.383   4.403   4.415   4.472   4.474   4.591
  4.717   4.726   4.764   4.816   4.826   6.254   6.400  11.629
 11.632  11.677  11.680  11.749  11.869  17.684  17.727  17.737
 17.780  17.813  17.933  17.989  17.996  18.022  18.055  22.336
 22.344  22.347  22.351  22.355  22.365  22.367  22.372  22.378
 22.380  22.382  22.384  22.397  22.414 141.121 141.300
 --------------------------------------------------------------
 
          Ground-State Mulliken Net Atomic Charges

     Atom                 Charge (a.u.)    Spin (a.u.)
  --------------------------------------------------------
      1 Si                   -0.092984       0.471449
      2 Si                   -0.093003       0.471434
      3 H                    -0.139580       0.013229
      4 H                    -0.142855      -0.006261
      5 H                    -0.124572       0.021587
      6 H                    -0.139534       0.013189
      7 H                    -0.124634       0.021656
      8 H                    -0.142840      -0.006283
  --------------------------------------------------------
  Sum of atomic charges =    -1.000000
  Sum of spin   charges =     1.000000

 -----------------------------------------------------------------
                    Cartesian Multipole Moments
 -----------------------------------------------------------------
    Charge (ESU x 10^10)
                -4.8032
    Dipole Moment (Debye)
         X      -0.0001      Y       0.0000      Z      -5.6444
       Tot       5.6444
    Quadrupole Moments (Debye-Ang)
        XX     -43.8393     XY       2.0264     YY     -43.8484
        XZ       0.0138     YZ       3.4478     ZZ     -58.3901
    Octapole Moments (Debye-Ang^2)
       XXX      -0.0008    XXY      -0.0001    XYY      -0.0002
       YYY       0.0002    XXZ     -51.5157    XYZ       2.3821
       YYZ     -51.5279    XZZ       0.0323    YZZ       8.1039
       ZZZ    -190.2571
    Hexadecapole Moments (Debye-Ang^3)
      XXXX    -181.3242   XXXY      -2.0847   XXYY     -60.7975
      XYYY      18.7830   YYYY    -179.8484   XXXZ      14.3213
      XXYZ       9.0630   XYYZ     -13.8921   YYYZ      26.9204
      XXZZ    -198.6494   XYZZ      10.7774   YYZZ    -197.3884
      XZZZ       0.0702   YZZZ      57.9700   ZZZZ    -950.7996
 -----------------------------------------------------------------
 Total job time:  160.42s(wall), 159.40s(cpu) 
 Tue Jun  4 15:37:45 2013

        *************************************************************
        *                                                           *
        *  Thank you very much for using Q-Chem.  Have a nice day.  *
        *                                                           *
        *************************************************************


0 sent ACK to 0 
now end server 0 ... 
 
**********************************************************************
Job 2 of 3 
**********************************************************************
 
Process 0 of 1 is on cl243.stfx.acenet.ca - thread support 1
initial socket setup ...start
initial socket setup ...done 
now start server 0 ... 

cmd = /usr/bin/ssh clhead /usr/local/qchem/bin/get_hostid 1514847818 > /scratch/tmp/6028475.1.long.q/qchem3354/lic.dat
                  Welcome to Q-Chem
     A Quantum Leap Into The Future Of Chemistry

 Y. Shao, L. Fusti-Molnar, Y. Jung, J. Kussmann, C. Ochsenfeld,
 S. T. Brown, A. T. B. Gilbert, L. V. Slipchenko,S. V. Levchenko,
 D. P. O'Neill, R. A. DiStasio Jr., R. C. Lochan, T. Wang,
 G. J. O. Beran, N. A. Besley, J. M. Herbert, C. Y. Lin,
 T. Van Voorhis, S. H. Chien, A. Sodt, R. P. Steele, 
 V. A. Rassolov, P. E. Maslen, P. P. Korambath, R. D. Adamson,
 B. Austin, J. Baker, E. F. C. Byrd, H. Dachsel, R. J. Doerksen,
 A. Dreuw, B. D. Dunietz, A. D. Dutoi, T. R. Furlani,
 S. R. Gwaltney, A. Heyden, S. Hirata, C.-P. Hsu, G. Kedziora,
 R. Z. Khaliullin, P. Klunzinger, A. M. Lee, M. S. Lee, W. Liang,
 I. Lotan, N. Nair, B. Peters, E. I. Proynov, P. A. Pieniazek, 
 Y. M. Rhee, J. Ritchie, E. Rosta, C. D. Sherrill, 
 A. C. Simmonett, J. E. Subotnik, H. L. Woodcock III,
 W. Zhang, A. T. Bell, A. K. Chakraborty, D. M. Chipman,
 F. J. Keil, A. Warshel, W. J. Hehre, H. F. Schaefer III,
 J. Kong, A. I. Krylov, P. M. W. Gill, M. Head-Gordon,
 Q-Chem, Version 3.1, Q-Chem, Inc., Pittsburgh, PA (2007).

 Additional authors for Version 3.1: 
 Z. Gan, Y. Zhao, N. E. Schultz, D. Truhlar, E. Epifanovsky and M. Oana.

 Additional authors for Version 3.2: 
 R. Baer, B. R. Brooks, D. Casanova, J.-D. Chai, C.-L. Cheng, 
 C. Cramer, D. Crittenden, A. Ghysels, G. Hawkins, E. G. Hohenstein, 
 C. Kelley, W. Kurlancheek, D. Liotard, E. Livshits, P. Manohar, 
 A. Marenich, D. Neuhauser, R. Olson, M. A. Rohrdanz, K. S. Thanthiriwatte, 
 A. J. W. Thom, V. Vanovschi, C. F. Williams, Q. Wu and Z.-Q. You. 


 Intel X86 Linux Version

 Q-chem begins on Tue Jun  4 15:37:47 2013  

 Parallel job on  1  processors
Processing $rem in /usr/local/qchem/config/preferences.

theFileMan(): MAXOPENFILES=974 MAX_SUB_FILE_NUM=16
Maximum size of a physical file is 2.0 GB, maximum size of a tmp-file is 32.0 GB


--------------------------------------------------------------
User input:
--------------------------------------------------------------

$molecule
0,1
Si        -0.00000       -0.00000        0.05795
Si         0.00000        0.00000        2.29228
H          1.38673       -0.00000       -0.43020
H         -0.69338       -1.20095       -0.43019
H         -0.69338        1.20095       -0.43019
H         -1.38673       -0.00000        2.78043
H          0.69338       -1.20095        2.78042
H          0.69338        1.20095        2.78042
$end

$comment
neutral
$end

$xc_functional
C PBE   1.00
X wPBE  1.00
$end


$rem
SYMMETRY_DECOMPOSITION	0
LRC_DFT                 true
exchange 		general
BASIS                   g3large
omega			300
mem_static              760
max_scf_cycles          200
scf_final_print         1
sym_ignore              true
$end

--------------------------------------------------------------
 Writing REM_CC_EA            8
 ----------------------------------------------------
       Standard Nuclear Orientation (Angstroms)
    I     Atom         X            Y            Z
 ----------------------------------------------------
    1      Si      0.000000     0.000000     0.057950
    2      Si      0.000000     0.000000     2.292280
    3      H       1.386730     0.000000    -0.430200
    4      H      -0.693380    -1.200950    -0.430190
    5      H      -0.693380     1.200950    -0.430190
    6      H      -1.386730     0.000000     2.780430
    7      H       0.693380    -1.200950     2.780420
    8      H       0.693380     1.200950     2.780420
 ----------------------------------------------------
 Nuclear Repulsion Energy =    93.8088899611 hartrees
 There are       17 alpha and       17 beta electrons
 Requested basis set is G3large
 There are 74 shells and 192 basis functions

Total QAlloc Memory Limit   2000 MB
Mega-Array Size       743 MB
MEM_STATIC part       760 MB

                       Distance Matrix (Angstroms)
             Si(  1)   Si(  2)   H (  3)   H (  4)   H (  5)   H (  6)
   Si(  2)  2.234330
   H (  3)  1.470140  3.055310
   H (  4)  1.470149  3.055307  2.401903
   H (  5)  1.470149  3.055307  2.401903  2.401900
   H (  6)  3.055310  1.470140  4.242667  3.497298  3.497298
   H (  7)  3.055307  1.470149  3.497298  3.497302  4.242669  2.401903
   H (  8)  3.055307  1.470149  3.497298  4.242669  3.497302  2.401903
             H (  7)
   H (  8)  2.401900
 
 A cutoff of  1.0D-08 yielded   2559 shell pairs
 There are  17404 function pairs ( 22567 Cartesian)
Evaluating contribution to one-electron hamiltonian from nuclear
 Smallest overlap matrix eigenvalue = 1.65E-04
 Multipole matrices computed through 2nd order

  Scale SEOQF with 1.000000e-01/1.000000e-01/1.000000e-01

 Standard Electronic Orientation quadrupole field applied
 Nucleus-field energy     =    -0.0000000098 hartrees
 Guess from superposition of atomic densities
 Warning:  Energy on first SCF cycle will be non-variational
 Long-range K will be added via erf
 Coulomb attenuation parameter = 0.3 bohr**(-1)
 A restricted Kohn-Sham SCF calculation will be
 performed using Pulay DIIS extrapolation
 Exchange:  wPBE + LR-HF      Correlation:  PBE
 Using SG-1 standard quadrature grid
 SCF converges when DIIS error is below 1.0E-05
 Requested basis set is G3large
 There are 74 shells and 192 basis functions
 A cutoff of  1.0D-08 yielded   2559 shell pairs
 There are  17404 function pairs ( 22567 Cartesian)
 ---------------------------------------
  Cycle       Energy         DIIS Error
 ---------------------------------------
    1    -582.3809497424      2.30E-02
    2    -582.3250752562      1.48E-03
    3    -582.3445402311      3.59E-04
    4    -582.3455427915      1.06E-04
    5    -582.3456617816      4.02E-05
    6    -582.3456723455      7.80E-06 Convergence criterion met
 ---------------------------------------
 One-Electron    Energy =  -993.0404608479
 Total Coulomb   Energy =   360.7153629444
 Alpha Exchange  Energy =    -2.6832264793
 Beta  Exchange  Energy =    -2.6832264793
 DFT   Exchange  Energy =   -37.2636530492
 DFT Correlation Energy =    -1.1993583856
 Nuclear Repu.   Energy =    93.8088899513
 Nuclear Attr.   Energy = -1574.5183553687
 Kinetic         Energy =   581.4778945208
 SCF time:  CPU 69.46 s  wall 71.00 s
 Final Alpha MO Eigenvalues
            1           2           3           4           5           6
    1 -65.5473336 -65.5473300  -5.2115058  -5.2113441  -3.6175525  -3.6171817
            7           8           9          10          11          12
    1  -3.6171651  -3.6170796  -3.6170636  -3.6165554  -0.6920060  -0.6124165
           13          14          15          16          17          18
    1  -0.4669770  -0.4669463  -0.4325812  -0.4325670  -0.3893712   0.0413398
           19          20          21          22
    1   0.0501813   0.0743703   0.0743752   0.0755227
 Analysis of SCF Wavefunction
 
 --------------------------------------------------------------
                    Orbital Energies (a.u.)
 --------------------------------------------------------------
 
 Alpha MOs
 -- Occupied --
-65.547 -65.547  -5.212  -5.211  -3.618  -3.617  -3.617  -3.617
 -3.617  -3.617  -0.692  -0.612  -0.467  -0.467  -0.433  -0.433
 -0.389
 -- Virtual --
  0.041   0.050   0.074   0.074   0.076   0.076   0.077   0.077
  0.079   0.098   0.098   0.104   0.147   0.148   0.148   0.154
  0.168   0.176   0.176   0.217   0.220   0.227   0.227   0.296
  0.328   0.328   0.329   0.336   0.336   0.384   0.384   0.392
  0.392   0.419   0.437   0.437   0.486   0.502   0.511   0.538
  0.538   0.547   0.560   0.580   0.580   0.580   0.705   0.705
  0.719   0.724   0.743   0.743   0.752   0.766   0.766   0.780
  0.780   0.830   0.909   0.910   0.927   0.927   0.965   0.989
  0.989   1.039   1.039   1.044   1.067   1.151   1.187   1.200
  1.200   1.232   1.232   1.287   1.287   1.331   1.331   1.338
  1.402   1.427   1.427   1.434   1.494   1.499   1.499   1.597
  1.597   1.610   1.610   1.683   1.771   2.107   2.138   2.138
  2.181   2.201   2.250   2.250   2.311   2.333   2.333   2.427
  2.454   2.454   2.592   2.902   2.902   2.911   2.911   3.164
  3.165   3.602   3.603   3.667   3.668   3.669   3.845   3.847
  3.857   3.859   4.111   4.126   4.126   4.129   4.129   4.141
  4.185   4.185   4.187   4.218   4.218   4.281   4.283   4.399
  4.527   4.529   4.568   4.626   4.627   6.057   6.205  11.436
 11.436  11.484  11.484  11.553  11.674  17.489  17.532  17.541
 17.585  17.618  17.737  17.794  17.801  17.827  17.860  22.141
 22.149  22.152  22.156  22.159  22.170  22.171  22.176  22.183
 22.184  22.187  22.188  22.202  22.218 140.928 141.107
 --------------------------------------------------------------
 
          Ground-State Mulliken Net Atomic Charges

     Atom                 Charge (a.u.)
  ----------------------------------------
      1 Si                    0.220009
      2 Si                    0.220018
      3 H                    -0.073242
      4 H                    -0.073463
      5 H                    -0.073306
      6 H                    -0.073246
      7 H                    -0.073306
      8 H                    -0.073464
  ----------------------------------------
  Sum of atomic charges =     0.000000

 -----------------------------------------------------------------
                    Cartesian Multipole Moments
 -----------------------------------------------------------------
    Charge (ESU x 10^10)
                 0.0000
    Dipole Moment (Debye)
         X       0.0000      Y       0.0000      Z       0.0000
       Tot       0.0000
    Quadrupole Moments (Debye-Ang)
        XX     -30.8747     XY      -0.0004     YY     -30.8764
        XZ      -0.0009     YZ      -0.0005     ZZ     -31.6472
    Octapole Moments (Debye-Ang^2)
       XXX       0.0000    XXY       0.0000    XYY       0.0000
       YYY       0.0000    XXZ     -36.2814    XYZ      -0.0004
       YYZ     -36.2834    XZZ      -0.0022    YZZ      -0.0013
       ZZZ    -111.5674
    Hexadecapole Moments (Debye-Ang^3)
      XXXX     -81.5343   XXXY      -0.0019   XXYY     -27.1799
      XYYY      -0.0028   YYYY     -81.5433   XXXZ       1.0717
      XXYZ      -0.0014   XYYZ      -1.0776   YYYZ      -0.0040
      XXZZ    -113.4631   XYZZ      -0.0056   YYZZ    -113.4708
      XZZZ      -0.0074   YZZZ      -0.0055   ZZZZ    -586.7338
 -----------------------------------------------------------------
 Total job time:  71.24s(wall), 69.69s(cpu) 
 Tue Jun  4 15:38:59 2013

        *************************************************************
        *                                                           *
        *  Thank you very much for using Q-Chem.  Have a nice day.  *
        *                                                           *
        *************************************************************


0 sent ACK to 0 
now end server 0 ... 
 
**********************************************************************
Job 3 of 3 
**********************************************************************
 
Process 0 of 1 is on cl243.stfx.acenet.ca - thread support 1
initial socket setup ...start
initial socket setup ...done 
now start server 0 ... 

cmd = /usr/bin/ssh clhead /usr/local/qchem/bin/get_hostid 488178997 > /scratch/tmp/6028475.1.long.q/qchem3354/lic.dat
                  Welcome to Q-Chem
     A Quantum Leap Into The Future Of Chemistry

 Y. Shao, L. Fusti-Molnar, Y. Jung, J. Kussmann, C. Ochsenfeld,
 S. T. Brown, A. T. B. Gilbert, L. V. Slipchenko,S. V. Levchenko,
 D. P. O'Neill, R. A. DiStasio Jr., R. C. Lochan, T. Wang,
 G. J. O. Beran, N. A. Besley, J. M. Herbert, C. Y. Lin,
 T. Van Voorhis, S. H. Chien, A. Sodt, R. P. Steele, 
 V. A. Rassolov, P. E. Maslen, P. P. Korambath, R. D. Adamson,
 B. Austin, J. Baker, E. F. C. Byrd, H. Dachsel, R. J. Doerksen,
 A. Dreuw, B. D. Dunietz, A. D. Dutoi, T. R. Furlani,
 S. R. Gwaltney, A. Heyden, S. Hirata, C.-P. Hsu, G. Kedziora,
 R. Z. Khaliullin, P. Klunzinger, A. M. Lee, M. S. Lee, W. Liang,
 I. Lotan, N. Nair, B. Peters, E. I. Proynov, P. A. Pieniazek, 
 Y. M. Rhee, J. Ritchie, E. Rosta, C. D. Sherrill, 
 A. C. Simmonett, J. E. Subotnik, H. L. Woodcock III,
 W. Zhang, A. T. Bell, A. K. Chakraborty, D. M. Chipman,
 F. J. Keil, A. Warshel, W. J. Hehre, H. F. Schaefer III,
 J. Kong, A. I. Krylov, P. M. W. Gill, M. Head-Gordon,
 Q-Chem, Version 3.1, Q-Chem, Inc., Pittsburgh, PA (2007).

 Additional authors for Version 3.1: 
 Z. Gan, Y. Zhao, N. E. Schultz, D. Truhlar, E. Epifanovsky and M. Oana.

 Additional authors for Version 3.2: 
 R. Baer, B. R. Brooks, D. Casanova, J.-D. Chai, C.-L. Cheng, 
 C. Cramer, D. Crittenden, A. Ghysels, G. Hawkins, E. G. Hohenstein, 
 C. Kelley, W. Kurlancheek, D. Liotard, E. Livshits, P. Manohar, 
 A. Marenich, D. Neuhauser, R. Olson, M. A. Rohrdanz, K. S. Thanthiriwatte, 
 A. J. W. Thom, V. Vanovschi, C. F. Williams, Q. Wu and Z.-Q. You. 


 Intel X86 Linux Version

 Q-chem begins on Tue Jun  4 15:39:02 2013  

 Parallel job on  1  processors
Processing $rem in /usr/local/qchem/config/preferences.

theFileMan(): MAXOPENFILES=974 MAX_SUB_FILE_NUM=16
Maximum size of a physical file is 2.0 GB, maximum size of a tmp-file is 32.0 GB


--------------------------------------------------------------
User input:
--------------------------------------------------------------

$molecule
1,2
Si        -0.00000       -0.00000        0.05795
Si         0.00000        0.00000        2.29228
H          1.38673       -0.00000       -0.43020
H         -0.69338       -1.20095       -0.43019
H         -0.69338        1.20095       -0.43019
H         -1.38673       -0.00000        2.78043
H          0.69338       -1.20095        2.78042
H          0.69338        1.20095        2.78042
$end

$comment
positive
$end

$xc_functional
C PBE   1.00
X wPBE  1.00
$end

$rem
SYMMETRY_DECOMPOSITION	0
LRC_DFT                 true
exchange 		general
BASIS                   g3large
omega			300
mem_static              760
max_scf_cycles          200
scf_final_print         1
sym_ignore              true
$end

--------------------------------------------------------------
 Writing REM_CC_EA            8
 ----------------------------------------------------
       Standard Nuclear Orientation (Angstroms)
    I     Atom         X            Y            Z
 ----------------------------------------------------
    1      Si      0.000000     0.000000     0.057950
    2      Si      0.000000     0.000000     2.292280
    3      H       1.386730     0.000000    -0.430200
    4      H      -0.693380    -1.200950    -0.430190
    5      H      -0.693380     1.200950    -0.430190
    6      H      -1.386730     0.000000     2.780430
    7      H       0.693380    -1.200950     2.780420
    8      H       0.693380     1.200950     2.780420
 ----------------------------------------------------
 Nuclear Repulsion Energy =    93.8088899611 hartrees
 There are       17 alpha and       16 beta electrons
 Requested basis set is G3large
 There are 74 shells and 192 basis functions

Total QAlloc Memory Limit   2000 MB
Mega-Array Size       743 MB
MEM_STATIC part       760 MB

                       Distance Matrix (Angstroms)
             Si(  1)   Si(  2)   H (  3)   H (  4)   H (  5)   H (  6)
   Si(  2)  2.234330
   H (  3)  1.470140  3.055310
   H (  4)  1.470149  3.055307  2.401903
   H (  5)  1.470149  3.055307  2.401903  2.401900
   H (  6)  3.055310  1.470140  4.242667  3.497298  3.497298
   H (  7)  3.055307  1.470149  3.497298  3.497302  4.242669  2.401903
   H (  8)  3.055307  1.470149  3.497298  4.242669  3.497302  2.401903
             H (  7)
   H (  8)  2.401900
 
 A cutoff of  1.0D-08 yielded   2559 shell pairs
 There are  17404 function pairs ( 22567 Cartesian)
Evaluating contribution to one-electron hamiltonian from nuclear
 Smallest overlap matrix eigenvalue = 1.65E-04
 Multipole matrices computed through 2nd order

  Scale SEOQF with 1.000000e-01/1.000000e-01/1.000000e-01

 Standard Electronic Orientation quadrupole field applied
 Nucleus-field energy     =    -0.0000000098 hartrees
 Guess from superposition of atomic densities
 Warning:  Energy on first SCF cycle will be non-variational
 Long-range K will be added via erf
 Coulomb attenuation parameter = 0.3 bohr**(-1)
 An unrestricted Kohn-Sham SCF calculation will be
 performed using Pulay DIIS extrapolation
 Exchange:  wPBE + LR-HF      Correlation:  PBE
 Using SG-1 standard quadrature grid
 SCF converges when DIIS error is below 1.0E-05
 Requested basis set is G3large
 There are 74 shells and 192 basis functions
 A cutoff of  1.0D-08 yielded   2559 shell pairs
 There are  17404 function pairs ( 22567 Cartesian)
 Warning!  Inaccurate integrated density:
   Number of electrons =    33
   Numerical integral  =    34.000156064543
   Relative error      =     3.0307759532 %
 ---------------------------------------
  Cycle       Energy         DIIS Error
 ---------------------------------------
    1    -582.3809497424      2.30E-02
    2    -581.8894551007      2.59E-03
    3    -581.9448922324      1.40E-03
    4    -581.9538176600      2.60E-04
    5    -581.9542657858      5.71E-05
    6    -581.9543551026      1.60E-05
    7    -581.9543740597      8.19E-06 Convergence criterion met
 ---------------------------------------
 One-Electron    Energy =  -984.3896191879
 Total Coulomb   Energy =   352.1564149342
 Alpha Exchange  Energy =    -2.6912248531
 Beta  Exchange  Energy =    -2.5367711161
 DFT   Exchange  Energy =   -37.1391980279
 DFT Correlation Energy =    -1.1628657602
 Nuclear Repu.   Energy =    93.8088899513
 Nuclear Attr.   Energy = -1565.6387653676
 Kinetic         Energy =   581.2491461797
 <S^2> = 0.7544
 SCF time:  CPU 100.49 s  wall 104.02 s
 Final Alpha MO Eigenvalues
            1           2           3           4           5           6
    1 -65.8146323 -65.8146280  -5.4775375  -5.4773580  -3.8906945  -3.8896140
            7           8           9          10          11          12
    1  -3.8802410  -3.8802360  -3.8801393  -3.8801343  -0.9584469  -0.8492445
           13          14          15          16          17          18
    1  -0.6999139  -0.6992886  -0.6694002  -0.6602808  -0.6593362  -0.1505427
           19          20          21          22
    1  -0.1502240  -0.1178864  -0.1145599  -0.0929093
 Final Beta MO Eigenvalues
            1           2           3           4           5           6
    1 -65.8130037 -65.8129999  -5.4757154  -5.4755482  -3.8848264  -3.8837822
            7           8           9          10          11          12
    1  -3.8795384  -3.8795134  -3.8794430  -3.8794182  -0.9218099  -0.8251904
           13          14          15          16          17          18
    1  -0.6913493  -0.6911773  -0.6513973  -0.6512776  -0.3911514  -0.1296592
           19          20          21
    1  -0.1295169  -0.1104935  -0.0983024
 Analysis of SCF Wavefunction
 
 --------------------------------------------------------------
                    Orbital Energies (a.u.)
 --------------------------------------------------------------
 
 Alpha MOs
 -- Occupied --
-65.815 -65.815  -5.478  -5.477  -3.891  -3.890  -3.880  -3.880
 -3.880  -3.880  -0.958  -0.849  -0.700  -0.699  -0.669  -0.660
 -0.659
 -- Virtual --
 -0.151  -0.150  -0.118  -0.115  -0.093  -0.093  -0.064  -0.063
 -0.059  -0.059  -0.028  -0.028  -0.008   0.004   0.006   0.006
  0.014   0.014   0.033   0.036   0.036   0.056   0.059   0.109
  0.150   0.151   0.152   0.153   0.158   0.193   0.193   0.217
  0.217   0.243   0.270   0.270   0.284   0.303   0.324   0.341
  0.341   0.353   0.362   0.372   0.372   0.381   0.497   0.497
  0.504   0.525   0.540   0.540   0.547   0.566   0.566   0.570
  0.571   0.630   0.689   0.689   0.719   0.719   0.758   0.768
  0.768   0.814   0.825   0.825   0.837   0.946   0.969   0.996
  0.996   1.015   1.015   1.081   1.082   1.116   1.116   1.137
  1.192   1.201   1.201   1.228   1.271   1.271   1.273   1.379
  1.379   1.393   1.394   1.425   1.540   1.841   1.874   1.874
  1.940   1.960   1.997   1.997   2.065   2.080   2.080   2.189
  2.189   2.189   2.327   2.674   2.675   2.686   2.687   2.937
  2.940   3.339   3.340   3.398   3.408   3.409   3.604   3.605
  3.616   3.617   3.884   3.900   3.901   3.905   3.906   3.914
  3.938   3.957   3.958   3.992   3.993   4.050   4.058   4.168
  4.289   4.289   4.322   4.385   4.385   5.793   5.949  11.175
 11.175  11.223  11.223  11.281  11.403  17.218  17.267  17.278
 17.318  17.352  17.472  17.528  17.530  17.564  17.596  21.873
 21.882  21.883  21.894  21.898  21.903  21.905  21.912  21.917
 21.919  21.920  21.921  21.940  21.952 140.661 140.841
 
 Beta MOs
 -- Occupied --
-65.813 -65.813  -5.476  -5.476  -3.885  -3.884  -3.880  -3.880
 -3.879  -3.879  -0.922  -0.825  -0.691  -0.691  -0.651  -0.651
 -- Virtual --
 -0.391  -0.130  -0.130  -0.110  -0.098  -0.091  -0.091  -0.059
 -0.059  -0.057  -0.053  -0.028  -0.028  -0.001   0.009   0.013
  0.013   0.015   0.015   0.034   0.039   0.039   0.059   0.063
  0.125   0.153   0.153   0.157   0.157   0.166   0.197   0.197
  0.220   0.220   0.249   0.274   0.274   0.284   0.313   0.334
  0.346   0.346   0.355   0.367   0.382   0.384   0.384   0.505
  0.505   0.515   0.536   0.544   0.544   0.551   0.573   0.573
  0.576   0.576   0.635   0.694   0.694   0.722   0.722   0.766
  0.774   0.774   0.832   0.832   0.840   0.842   0.952   0.982
  0.999   0.999   1.023   1.024   1.086   1.086   1.125   1.125
  1.141   1.199   1.205   1.205   1.235   1.274   1.274   1.283
  1.385   1.386   1.399   1.399   1.448   1.550   1.867   1.903
  1.903   1.940   1.959   2.013   2.013   2.071   2.094   2.094
  2.193   2.215   2.215   2.354   2.683   2.683   2.694   2.694
  2.945   2.947   3.345   3.346   3.411   3.412   3.413   3.608
  3.610   3.620   3.621   3.892   3.908   3.909   3.913   3.913
  3.922   3.950   3.966   3.966   4.000   4.000   4.060   4.066
  4.176   4.297   4.298   4.333   4.394   4.394   5.802   5.953
 11.176  11.176  11.224  11.224  11.292  11.414  17.224  17.269
 17.279  17.321  17.354  17.474  17.530  17.536  17.565  17.598
 21.875  21.883  21.885  21.895  21.898  21.905  21.906  21.913
 21.918  21.920  21.922  21.923  21.940  21.954 140.663 140.843
 --------------------------------------------------------------
 
          Ground-State Mulliken Net Atomic Charges

     Atom                 Charge (a.u.)    Spin (a.u.)
  --------------------------------------------------------
      1 Si                    0.391825       0.378637
      2 Si                    0.391861       0.378631
      3 H                     0.035596       0.036410
      4 H                     0.036288       0.042362
      5 H                     0.036278       0.042590
      6 H                     0.035596       0.036421
      7 H                     0.036271       0.042590
      8 H                     0.036285       0.042359
  --------------------------------------------------------
  Sum of atomic charges =     1.000000
  Sum of spin   charges =     1.000000

 -----------------------------------------------------------------
                    Cartesian Multipole Moments
 -----------------------------------------------------------------
    Charge (ESU x 10^10)
                 4.8032
    Dipole Moment (Debye)
         X       0.0000      Y       0.0000      Z       5.6443
       Tot       5.6443
    Quadrupole Moments (Debye-Ang)
        XX     -25.0218     XY      -0.0003     YY     -24.9832
        XZ       0.0656     YZ      -0.0010     ZZ      -8.6969
    Octapole Moments (Debye-Ang^2)
       XXX      -0.0001    XXY       0.0000    XYY       0.0000
       YYY       0.0000    XXZ     -29.4034    XYZ      -0.0004
       YYZ     -29.3581    XZZ       0.1542    YZZ      -0.0023
       ZZZ     -46.2481
    Hexadecapole Moments (Debye-Ang^3)
      XXXX     -60.9434   XXXY      -0.0004   XXYY     -20.2888
      XYYY      -0.0003   YYYY     -60.8066   XXXZ      -3.1640
      XXYZ      -0.0004   XYYZ       3.3261   YYYZ      -0.0010
      XXZZ     -83.8471   XYZZ      -0.0013   YYZZ     -83.6611
      XZZZ       0.5746   YZZZ      -0.0088   ZZZZ    -345.5601
 -----------------------------------------------------------------
 Total job time:  104.27s(wall), 100.71s(cpu) 
 Tue Jun  4 15:40:46 2013

        *************************************************************
        *                                                           *
        *  Thank you very much for using Q-Chem.  Have a nice day.  *
        *                                                           *
        *************************************************************


0 sent ACK to 0 
now end server 0 ... 
