Process 0 of 1 is on cl237.stfx.acenet.ca - thread support 1
initial socket setup ...start
initial socket setup ...done 
now start server 0 ... 

cmd = /usr/bin/ssh clhead /usr/local/qchem/bin/get_hostid 1139667319 > /scratch/tmp/6065267.1.long.q/qchem2889/lic.dat
                  Welcome to Q-Chem
     A Quantum Leap Into The Future Of Chemistry

 Y. Shao, L. Fusti-Molnar, Y. Jung, J. Kussmann, C. Ochsenfeld,
 S. T. Brown, A. T. B. Gilbert, L. V. Slipchenko,S. V. Levchenko,
 D. P. O'Neill, R. A. DiStasio Jr., R. C. Lochan, T. Wang,
 G. J. O. Beran, N. A. Besley, J. M. Herbert, C. Y. Lin,
 T. Van Voorhis, S. H. Chien, A. Sodt, R. P. Steele, 
 V. A. Rassolov, P. E. Maslen, P. P. Korambath, R. D. Adamson,
 B. Austin, J. Baker, E. F. C. Byrd, H. Dachsel, R. J. Doerksen,
 A. Dreuw, B. D. Dunietz, A. D. Dutoi, T. R. Furlani,
 S. R. Gwaltney, A. Heyden, S. Hirata, C.-P. Hsu, G. Kedziora,
 R. Z. Khaliullin, P. Klunzinger, A. M. Lee, M. S. Lee, W. Liang,
 I. Lotan, N. Nair, B. Peters, E. I. Proynov, P. A. Pieniazek, 
 Y. M. Rhee, J. Ritchie, E. Rosta, C. D. Sherrill, 
 A. C. Simmonett, J. E. Subotnik, H. L. Woodcock III,
 W. Zhang, A. T. Bell, A. K. Chakraborty, D. M. Chipman,
 F. J. Keil, A. Warshel, W. J. Hehre, H. F. Schaefer III,
 J. Kong, A. I. Krylov, P. M. W. Gill, M. Head-Gordon,
 Q-Chem, Version 3.1, Q-Chem, Inc., Pittsburgh, PA (2007).

 Additional authors for Version 3.1: 
 Z. Gan, Y. Zhao, N. E. Schultz, D. Truhlar, E. Epifanovsky and M. Oana.

 Additional authors for Version 3.2: 
 R. Baer, B. R. Brooks, D. Casanova, J.-D. Chai, C.-L. Cheng, 
 C. Cramer, D. Crittenden, A. Ghysels, G. Hawkins, E. G. Hohenstein, 
 C. Kelley, W. Kurlancheek, D. Liotard, E. Livshits, P. Manohar, 
 A. Marenich, D. Neuhauser, R. Olson, M. A. Rohrdanz, K. S. Thanthiriwatte, 
 A. J. W. Thom, V. Vanovschi, C. F. Williams, Q. Wu and Z.-Q. You. 


 Intel X86 Linux Version

 Q-chem begins on Mon Jul  8 16:57:49 2013  

 Parallel job on  1  processors
Processing $rem in /usr/local/qchem/config/preferences.

theFileMan(): MAXOPENFILES=974 MAX_SUB_FILE_NUM=16
Maximum size of a physical file is 2.0 GB, maximum size of a tmp-file is 32.0 GB


--------------------------------------------------------------
User input:
--------------------------------------------------------------

$molecule
-1,2
N          0.00000        0.00000        1.83618
C          0.00000        0.00000        0.69391
C          0.00000        0.00000       -0.69391
N          0.00000        0.00000       -1.83618
$end

$comment
negative
$end

$xc_functional
C PBE   1.00
X wPBE  1.00
$end

$rem
SYMMETRY_DECOMPOSITION	0
exchange 		general
LRC_DFT                 true
BASIS                   g3large
omega			390
mem_static              760
max_scf_cycles          200
scf_final_print         1
sym_ignore              true
$end

--------------------------------------------------------------
 Writing REM_CC_EA            4
 ----------------------------------------------------
       Standard Nuclear Orientation (Angstroms)
    I     Atom         X            Y            Z
 ----------------------------------------------------
    1      N       0.000000     0.000000     1.836180
    2      C       0.000000     0.000000     0.693910
    3      C       0.000000     0.000000    -0.693910
    4      N       0.000000     0.000000    -1.836180
 ----------------------------------------------------
 Nuclear Repulsion Energy =    77.2710182365 hartrees
 There are       14 alpha and       13 beta electrons
 Requested basis set is G3large
 There are 40 shells and 168 basis functions

Total QAlloc Memory Limit   2000 MB
Mega-Array Size       743 MB
MEM_STATIC part       760 MB

                       Distance Matrix (Angstroms)
             N (  1)   C (  2)   C (  3)
   C (  2)  1.142270
   C (  3)  2.530090  1.387820
   N (  4)  3.672360  2.530090  1.142270
 
 A cutoff of  1.0D-08 yielded    716 shell pairs
 There are  12995 function pairs ( 17001 Cartesian)
Evaluating contribution to one-electron hamiltonian from nuclear
 Smallest overlap matrix eigenvalue = 9.69E-06

 Q-Chem warning in module mkSTV.C, line 194:

 Overlap eigenvalue is smaller than square root of threshold

 Multipole matrices computed through 2nd order

  Scale SEOQF with 1.000000e-01/1.000000e-01/1.000000e-01

 Standard Electronic Orientation quadrupole field applied
 Nucleus-field energy     =    -0.0000000057 hartrees
 Guess from superposition of atomic densities
 Warning:  Energy on first SCF cycle will be non-variational
 Long-range K will be added via erf
 Coulomb attenuation parameter = 0.39 bohr**(-1)
 An unrestricted Kohn-Sham SCF calculation will be
 performed using Pulay DIIS extrapolation
 Exchange:  wPBE + LR-HF      Correlation:  PBE
 Using SG-1 standard quadrature grid
 SCF converges when DIIS error is below 1.0E-05
 Requested basis set is G3large
 There are 40 shells and 168 basis functions
 A cutoff of  1.0D-08 yielded    716 shell pairs
 There are  12995 function pairs ( 17001 Cartesian)
 Warning!  Inaccurate integrated density:
   Number of electrons =    27
   Numerical integral  =    26.000074941606
   Relative error      =    -3.7034261422 %
 ---------------------------------------
  Cycle       Energy         DIIS Error
 ---------------------------------------
    1    -186.2965697785      3.76E-02
    2    -185.3919031126      6.55E-03
    3    -185.3590845521      8.27E-03
    4    -185.5503234129      7.07E-04
    5    -185.5530478646      2.98E-04
    6    -185.5537742905      5.86E-05
    7    -185.5538629097      1.57E-05
    8    -185.5538696082      4.57E-06 Convergence criterion met
 ---------------------------------------
 One-Electron    Energy =  -409.4673836323
 Total Coulomb   Energy =   171.3420794280
 Alpha Exchange  Energy =    -2.7347014047
 Beta  Exchange  Energy =    -2.5448065454
 DFT   Exchange  Energy =   -18.5445544848
 DFT Correlation Energy =    -0.8755211998
 Nuclear Repu.   Energy =    77.2710182308
 Nuclear Attr.   Energy =  -594.7953985508
 Kinetic         Energy =   185.3280149185
 <S^2> = 0.7636
 SCF time:  CPU 53.36 s  wall 53.72 s
 Final Alpha MO Eigenvalues
            1           2           3           4           5           6
    1 -13.9742275 -13.9741687  -9.9328006  -9.9322642  -0.8561858  -0.8335578
            7           8           9          10          11          12
    1  -0.6078487  -0.3445099  -0.3282321  -0.3069063  -0.2930481  -0.2604663
           13          14          15          16          17          18
    1  -0.2362521  -0.0090721   0.1948720   0.2053911   0.2419551   0.2605748
           19
    1   0.2616289
 Final Beta MO Eigenvalues
            1           2           3           4           5           6
    1 -13.9674554 -13.9673937  -9.9318436  -9.9313743  -0.8462943  -0.8238902
            7           8           9          10          11          12
    1  -0.5867558  -0.3244132  -0.3067498  -0.2931812  -0.2808146  -0.2312730
           13          14          15          16          17          18
    1  -0.2124401   0.1955638   0.2059665   0.2480949   0.2583912   0.2635524
 Analysis of SCF Wavefunction
 
 --------------------------------------------------------------
                    Orbital Energies (a.u.)
 --------------------------------------------------------------
 
 Alpha MOs
 -- Occupied --
-13.974 -13.974  -9.933  -9.932  -0.856  -0.834  -0.608  -0.345
 -0.328  -0.307  -0.293  -0.260  -0.236  -0.009
 -- Virtual --
  0.195   0.205   0.242   0.261   0.262   0.273   0.275   0.313
  0.319   0.411   0.414   0.416   0.426   0.428   0.430   0.447
  0.492   0.504   0.526   0.569   0.782   0.792   0.792   0.836
  0.837   0.895   0.900   0.924   0.969   1.049   1.049   1.087
  1.097   1.109   1.113   1.116   1.169   1.172   1.232   1.237
  1.251   1.427   1.428   1.496   1.614   1.614   1.630   1.701
  1.702   1.867   2.010   2.011   2.320   2.334   2.345   2.347
  2.366   2.667   2.953   2.953   2.958   2.958   2.971   2.972
  2.974   3.072   3.074   3.174   3.176   3.192   3.192   3.412
  3.413   3.427   3.427   3.496   3.498   3.503   3.541   3.730
  3.731   3.782   3.783   3.954   3.954   3.993   3.993   4.138
  4.141   4.234   4.285   4.288   4.423   4.525   4.526   4.711
  4.874   4.875   4.949   4.999   5.000   5.085   5.087   5.149
  5.151   5.344   5.413   5.415   5.561   5.562   6.043   6.238
  6.238   6.812   7.217   7.217   7.240   8.513  24.652  25.036
 27.542  27.542  27.737  27.737  28.923  30.396  36.329  37.186
 37.682  37.685  38.050  38.052  38.514  38.648  40.672  40.681
 40.779  40.785  40.794  40.864  40.865  41.027  41.041  41.055
 41.057  41.282  41.293  41.306  41.476  41.476  41.552  41.552
 41.879  41.920
 
 Beta MOs
 -- Occupied --
-13.967 -13.967  -9.932  -9.931  -0.846  -0.824  -0.587  -0.324
 -0.307  -0.293  -0.281  -0.231  -0.212
 -- Virtual --
  0.196   0.206   0.248   0.258   0.264   0.273   0.276   0.278
  0.315   0.319   0.418   0.424   0.428   0.431   0.432   0.437
  0.448   0.493   0.530   0.546   0.576   0.792   0.794   0.804
  0.850   0.850   0.895   0.904   0.925   0.974   1.052   1.052
  1.094   1.103   1.118   1.122   1.131   1.176   1.189   1.241
  1.259   1.260   1.449   1.449   1.502   1.631   1.631   1.638
  1.703   1.718   1.873   2.015   2.030   2.324   2.341   2.348
  2.360   2.373   2.679   2.961   2.961   2.967   2.969   2.973
  2.983   2.988   3.073   3.086   3.176   3.188   3.199   3.199
  3.422   3.422   3.431   3.431   3.497   3.509   3.510   3.546
  3.744   3.744   3.785   3.799   3.975   3.976   4.015   4.015
  4.149   4.171   4.242   4.294   4.315   4.434   4.539   4.540
  4.721   4.878   4.896   4.958   5.014   5.014   5.119   5.119
  5.181   5.181   5.351   5.420   5.438   5.565   5.581   6.047
  6.241   6.258   6.817   7.221   7.238   7.247   8.517  24.653
 25.038  27.542  27.546  27.737  27.741  28.924  30.396  36.337
 37.196  37.690  37.701  38.057  38.069  38.518  38.652  40.688
 40.697  40.782  40.801  40.809  40.867  40.878  41.030  41.043
 41.058  41.069  41.283  41.296  41.309  41.476  41.479  41.552
 41.556  41.882  41.922
 --------------------------------------------------------------
 
          Ground-State Mulliken Net Atomic Charges

     Atom                 Charge (a.u.)    Spin (a.u.)
  --------------------------------------------------------
      1 N                    -0.579102       0.373300
      2 C                     0.079088       0.126698
      3 C                     0.079146       0.126697
      4 N                    -0.579132       0.373305
  --------------------------------------------------------
  Sum of atomic charges =    -1.000000
  Sum of spin   charges =     1.000000

 -----------------------------------------------------------------
                    Cartesian Multipole Moments
 -----------------------------------------------------------------
    Charge (ESU x 10^10)
                -4.8032
    Dipole Moment (Debye)
         X       0.0000      Y       0.0000      Z       0.0002
       Tot       0.0002
    Quadrupole Moments (Debye-Ang)
        XX     -24.9105     XY      -1.0204     YY     -24.9078
        XZ      -0.0001     YZ       0.0000     ZZ     -47.6693
    Octapole Moments (Debye-Ang^2)
       XXX       0.0000    XXY       0.0000    XYY       0.0000
       YYY       0.0000    XXZ      -0.0001    XYZ       0.0000
       YYZ      -0.0001    XZZ       0.0000    YZZ       0.0000
       ZZZ       0.0004
    Hexadecapole Moments (Debye-Ang^3)
      XXXX     -31.2533   XXXY      -1.6593   XXYY     -10.4163
      XYYY      -1.6593   YYYY     -31.2445   XXXZ      -0.0001
      XXYZ       0.0000   XYYZ       0.0000   YYYZ      -0.0001
      XXZZ     -64.5342   XYZZ      -2.7977   YYZZ     -64.5267
      XZZZ      -0.0005   YZZZ      -0.0004   ZZZZ    -454.5582
 -----------------------------------------------------------------
 Total job time:  53.91s(wall), 53.54s(cpu) 
 Mon Jul  8 16:58:43 2013

        *************************************************************
        *                                                           *
        *  Thank you very much for using Q-Chem.  Have a nice day.  *
        *                                                           *
        *************************************************************


0 sent ACK to 0 
now end server 0 ... 
 
**********************************************************************
Job 2 of 3 
**********************************************************************
 
Process 0 of 1 is on cl237.stfx.acenet.ca - thread support 1
initial socket setup ...start
initial socket setup ...done 
now start server 0 ... 

cmd = /usr/bin/ssh clhead /usr/local/qchem/bin/get_hostid 1748066075 > /scratch/tmp/6065267.1.long.q/qchem2889/lic.dat
                  Welcome to Q-Chem
     A Quantum Leap Into The Future Of Chemistry

 Y. Shao, L. Fusti-Molnar, Y. Jung, J. Kussmann, C. Ochsenfeld,
 S. T. Brown, A. T. B. Gilbert, L. V. Slipchenko,S. V. Levchenko,
 D. P. O'Neill, R. A. DiStasio Jr., R. C. Lochan, T. Wang,
 G. J. O. Beran, N. A. Besley, J. M. Herbert, C. Y. Lin,
 T. Van Voorhis, S. H. Chien, A. Sodt, R. P. Steele, 
 V. A. Rassolov, P. E. Maslen, P. P. Korambath, R. D. Adamson,
 B. Austin, J. Baker, E. F. C. Byrd, H. Dachsel, R. J. Doerksen,
 A. Dreuw, B. D. Dunietz, A. D. Dutoi, T. R. Furlani,
 S. R. Gwaltney, A. Heyden, S. Hirata, C.-P. Hsu, G. Kedziora,
 R. Z. Khaliullin, P. Klunzinger, A. M. Lee, M. S. Lee, W. Liang,
 I. Lotan, N. Nair, B. Peters, E. I. Proynov, P. A. Pieniazek, 
 Y. M. Rhee, J. Ritchie, E. Rosta, C. D. Sherrill, 
 A. C. Simmonett, J. E. Subotnik, H. L. Woodcock III,
 W. Zhang, A. T. Bell, A. K. Chakraborty, D. M. Chipman,
 F. J. Keil, A. Warshel, W. J. Hehre, H. F. Schaefer III,
 J. Kong, A. I. Krylov, P. M. W. Gill, M. Head-Gordon,
 Q-Chem, Version 3.1, Q-Chem, Inc., Pittsburgh, PA (2007).

 Additional authors for Version 3.1: 
 Z. Gan, Y. Zhao, N. E. Schultz, D. Truhlar, E. Epifanovsky and M. Oana.

 Additional authors for Version 3.2: 
 R. Baer, B. R. Brooks, D. Casanova, J.-D. Chai, C.-L. Cheng, 
 C. Cramer, D. Crittenden, A. Ghysels, G. Hawkins, E. G. Hohenstein, 
 C. Kelley, W. Kurlancheek, D. Liotard, E. Livshits, P. Manohar, 
 A. Marenich, D. Neuhauser, R. Olson, M. A. Rohrdanz, K. S. Thanthiriwatte, 
 A. J. W. Thom, V. Vanovschi, C. F. Williams, Q. Wu and Z.-Q. You. 


 Intel X86 Linux Version

 Q-chem begins on Mon Jul  8 16:58:46 2013  

 Parallel job on  1  processors
Processing $rem in /usr/local/qchem/config/preferences.

theFileMan(): MAXOPENFILES=974 MAX_SUB_FILE_NUM=16
Maximum size of a physical file is 2.0 GB, maximum size of a tmp-file is 32.0 GB


--------------------------------------------------------------
User input:
--------------------------------------------------------------

$molecule
0,1
N          0.00000        0.00000        1.83618
C          0.00000        0.00000        0.69391
C          0.00000        0.00000       -0.69391
N          0.00000        0.00000       -1.83618
$end

$comment
neutral
$end

$xc_functional
C PBE   1.00
X wPBE  1.00
$end


$rem
SYMMETRY_DECOMPOSITION	0
LRC_DFT                 true
exchange 		general
BASIS                   g3large
omega			390
mem_static              760
max_scf_cycles          200
scf_final_print         1
sym_ignore              true
$end

--------------------------------------------------------------
 Writing REM_CC_EA            4
 ----------------------------------------------------
       Standard Nuclear Orientation (Angstroms)
    I     Atom         X            Y            Z
 ----------------------------------------------------
    1      N       0.000000     0.000000     1.836180
    2      C       0.000000     0.000000     0.693910
    3      C       0.000000     0.000000    -0.693910
    4      N       0.000000     0.000000    -1.836180
 ----------------------------------------------------
 Nuclear Repulsion Energy =    77.2710182365 hartrees
 There are       13 alpha and       13 beta electrons
 Requested basis set is G3large
 There are 40 shells and 168 basis functions

Total QAlloc Memory Limit   2000 MB
Mega-Array Size       743 MB
MEM_STATIC part       760 MB

                       Distance Matrix (Angstroms)
             N (  1)   C (  2)   C (  3)
   C (  2)  1.142270
   C (  3)  2.530090  1.387820
   N (  4)  3.672360  2.530090  1.142270
 
 A cutoff of  1.0D-08 yielded    716 shell pairs
 There are  12995 function pairs ( 17001 Cartesian)
Evaluating contribution to one-electron hamiltonian from nuclear
 Smallest overlap matrix eigenvalue = 9.69E-06

 Q-Chem warning in module mkSTV.C, line 194:

 Overlap eigenvalue is smaller than square root of threshold

 Multipole matrices computed through 2nd order

  Scale SEOQF with 1.000000e-01/1.000000e-01/1.000000e-01

 Standard Electronic Orientation quadrupole field applied
 Nucleus-field energy     =    -0.0000000057 hartrees
 Guess from superposition of atomic densities
 Warning:  Energy on first SCF cycle will be non-variational
 Long-range K will be added via erf
 Coulomb attenuation parameter = 0.39 bohr**(-1)
 A restricted Kohn-Sham SCF calculation will be
 performed using Pulay DIIS extrapolation
 Exchange:  wPBE + LR-HF      Correlation:  PBE
 Using SG-1 standard quadrature grid
 SCF converges when DIIS error is below 1.0E-05
 Requested basis set is G3large
 There are 40 shells and 168 basis functions
 A cutoff of  1.0D-08 yielded    716 shell pairs
 There are  12995 function pairs ( 17001 Cartesian)
 ---------------------------------------
  Cycle       Energy         DIIS Error
 ---------------------------------------
    1    -186.2965697785      3.76E-02
    2    -185.4297819091      5.65E-03
    3    -185.3326428406      8.86E-03
    4    -185.5449887775      4.60E-04
    5    -185.5471336006      1.48E-04
    6    -185.5474966631      4.19E-05
    7    -185.5475097349      1.01E-05
    8    -185.5475147441      5.12E-06 Convergence criterion met
 ---------------------------------------
 One-Electron    Energy =  -402.4139872139
 Total Coulomb   Energy =   163.9733817698
 Alpha Exchange  Energy =    -2.5599403393
 Beta  Exchange  Energy =    -2.5599403393
 DFT   Exchange  Energy =   -18.4152089663
 DFT Correlation Energy =    -0.8428378859
 Nuclear Repu.   Energy =    77.2710182308
 Nuclear Attr.   Energy =  -587.4232760591
 Kinetic         Energy =   185.0092888452
 SCF time:  CPU 43.36 s  wall 43.75 s
 Final Alpha MO Eigenvalues
            1           2           3           4           5           6
    1 -14.2670216 -14.2668073 -10.2122101 -10.2117282  -1.1259970  -1.1026470
            7           8           9          10          11          12
    1  -0.8828430  -0.5919187  -0.5919097  -0.5602360  -0.5477241  -0.4971162
           13          14          15          16          17          18
    1  -0.4971093  -0.0047041  -0.0047036   0.0486489   0.0757829   0.1002485
 Analysis of SCF Wavefunction
 
 --------------------------------------------------------------
                    Orbital Energies (a.u.)
 --------------------------------------------------------------
 
 Alpha MOs
 -- Occupied --
-14.267 -14.267 -10.212 -10.212  -1.126  -1.103  -0.883  -0.592
 -0.592  -0.560  -0.548  -0.497  -0.497
 -- Virtual --
 -0.005  -0.005   0.049   0.076   0.100   0.100   0.134   0.134
  0.150   0.167   0.218   0.218   0.230   0.254   0.254   0.262
  0.290   0.318   0.326   0.326   0.373   0.560   0.570   0.570
  0.593   0.593   0.676   0.676   0.714   0.755   0.801   0.801
  0.873   0.885   0.896   0.896   0.912   0.959   0.959   0.982
  0.982   1.005   1.191   1.191   1.233   1.375   1.375   1.406
  1.452   1.452   1.632   1.768   1.768   2.080   2.091   2.113
  2.113   2.130   2.408   2.685   2.685   2.688   2.689   2.700
  2.700   2.707   2.808   2.808   2.913   2.913   2.925   2.925
  3.143   3.143   3.163   3.163   3.231   3.231   3.244   3.274
  3.458   3.458   3.512   3.512   3.696   3.696   3.735   3.735
  3.877   3.877   3.965   4.023   4.023   4.162   4.262   4.262
  4.444   4.602   4.602   4.682   4.736   4.736   4.823   4.823
  4.885   4.885   5.083   5.153   5.153   5.303   5.303   5.777
  5.966   5.966   6.540   6.946   6.946   6.964   8.238  24.372
 24.759  27.263  27.263  27.458  27.458  28.643  30.117  36.039
 36.898  37.394  37.394  37.761  37.761  38.223  38.357  40.382
 40.391  40.492  40.494  40.504  40.574  40.574  40.748  40.762
 40.766  40.766  40.997  41.014  41.027  41.196  41.196  41.272
 41.272  41.593  41.637
 --------------------------------------------------------------
 
          Ground-State Mulliken Net Atomic Charges

     Atom                 Charge (a.u.)
  ----------------------------------------
      1 N                    -0.284886
      2 C                     0.284963
      3 C                     0.285105
      4 N                    -0.285182
  ----------------------------------------
  Sum of atomic charges =     0.000000

 -----------------------------------------------------------------
                    Cartesian Multipole Moments
 -----------------------------------------------------------------
    Charge (ESU x 10^10)
                 0.0000
    Dipole Moment (Debye)
         X       0.0000      Y       0.0000      Z       0.0017
       Tot       0.0017
    Quadrupole Moments (Debye-Ang)
        XX     -20.8498     XY       0.0000     YY     -20.8498
        XZ       0.0000     YZ       0.0000     ZZ     -30.3056
    Octapole Moments (Debye-Ang^2)
       XXX       0.0000    XXY       0.0000    XYY       0.0000
       YYY       0.0000    XXZ      -0.0002    XYZ       0.0000
       YYZ      -0.0002    XZZ       0.0000    YZZ       0.0000
       ZZZ       0.0070
    Hexadecapole Moments (Debye-Ang^3)
      XXXX     -20.2482   XXXY       0.0000   XXYY      -6.7494
      XYYY       0.0000   YYYY     -20.2482   XXXZ       0.0000
      XXYZ       0.0000   XYYZ       0.0000   YYYZ       0.0000
      XXZZ     -50.4125   XYZZ       0.0005   YYZZ     -50.4125
      XZZZ       0.0000   YZZZ       0.0000   ZZZZ    -332.2593
 -----------------------------------------------------------------
 Total job time:  43.93s(wall), 43.53s(cpu) 
 Mon Jul  8 16:59:30 2013

        *************************************************************
        *                                                           *
        *  Thank you very much for using Q-Chem.  Have a nice day.  *
        *                                                           *
        *************************************************************


0 sent ACK to 0 
now end server 0 ... 
 
**********************************************************************
Job 3 of 3 
**********************************************************************
 
Process 0 of 1 is on cl237.stfx.acenet.ca - thread support 1
initial socket setup ...start
initial socket setup ...done 
now start server 0 ... 

cmd = /usr/bin/ssh clhead /usr/local/qchem/bin/get_hostid 334375903 > /scratch/tmp/6065267.1.long.q/qchem2889/lic.dat
                  Welcome to Q-Chem
     A Quantum Leap Into The Future Of Chemistry

 Y. Shao, L. Fusti-Molnar, Y. Jung, J. Kussmann, C. Ochsenfeld,
 S. T. Brown, A. T. B. Gilbert, L. V. Slipchenko,S. V. Levchenko,
 D. P. O'Neill, R. A. DiStasio Jr., R. C. Lochan, T. Wang,
 G. J. O. Beran, N. A. Besley, J. M. Herbert, C. Y. Lin,
 T. Van Voorhis, S. H. Chien, A. Sodt, R. P. Steele, 
 V. A. Rassolov, P. E. Maslen, P. P. Korambath, R. D. Adamson,
 B. Austin, J. Baker, E. F. C. Byrd, H. Dachsel, R. J. Doerksen,
 A. Dreuw, B. D. Dunietz, A. D. Dutoi, T. R. Furlani,
 S. R. Gwaltney, A. Heyden, S. Hirata, C.-P. Hsu, G. Kedziora,
 R. Z. Khaliullin, P. Klunzinger, A. M. Lee, M. S. Lee, W. Liang,
 I. Lotan, N. Nair, B. Peters, E. I. Proynov, P. A. Pieniazek, 
 Y. M. Rhee, J. Ritchie, E. Rosta, C. D. Sherrill, 
 A. C. Simmonett, J. E. Subotnik, H. L. Woodcock III,
 W. Zhang, A. T. Bell, A. K. Chakraborty, D. M. Chipman,
 F. J. Keil, A. Warshel, W. J. Hehre, H. F. Schaefer III,
 J. Kong, A. I. Krylov, P. M. W. Gill, M. Head-Gordon,
 Q-Chem, Version 3.1, Q-Chem, Inc., Pittsburgh, PA (2007).

 Additional authors for Version 3.1: 
 Z. Gan, Y. Zhao, N. E. Schultz, D. Truhlar, E. Epifanovsky and M. Oana.

 Additional authors for Version 3.2: 
 R. Baer, B. R. Brooks, D. Casanova, J.-D. Chai, C.-L. Cheng, 
 C. Cramer, D. Crittenden, A. Ghysels, G. Hawkins, E. G. Hohenstein, 
 C. Kelley, W. Kurlancheek, D. Liotard, E. Livshits, P. Manohar, 
 A. Marenich, D. Neuhauser, R. Olson, M. A. Rohrdanz, K. S. Thanthiriwatte, 
 A. J. W. Thom, V. Vanovschi, C. F. Williams, Q. Wu and Z.-Q. You. 


 Intel X86 Linux Version

 Q-chem begins on Mon Jul  8 16:59:33 2013  

 Parallel job on  1  processors
Processing $rem in /usr/local/qchem/config/preferences.

theFileMan(): MAXOPENFILES=974 MAX_SUB_FILE_NUM=16
Maximum size of a physical file is 2.0 GB, maximum size of a tmp-file is 32.0 GB


--------------------------------------------------------------
User input:
--------------------------------------------------------------

$molecule
1,2
N          0.00000        0.00000        1.83618
C          0.00000        0.00000        0.69391
C          0.00000        0.00000       -0.69391
N          0.00000        0.00000       -1.83618
$end

$comment
positive
$end

$xc_functional
C PBE   1.00
X wPBE  1.00
$end

$rem
SYMMETRY_DECOMPOSITION	0
LRC_DFT                 true
exchange 		general
BASIS                   g3large
omega			390
mem_static              760
max_scf_cycles          200
scf_final_print         1
sym_ignore              true
$end

--------------------------------------------------------------
 Writing REM_CC_EA            4
 ----------------------------------------------------
       Standard Nuclear Orientation (Angstroms)
    I     Atom         X            Y            Z
 ----------------------------------------------------
    1      N       0.000000     0.000000     1.836180
    2      C       0.000000     0.000000     0.693910
    3      C       0.000000     0.000000    -0.693910
    4      N       0.000000     0.000000    -1.836180
 ----------------------------------------------------
 Nuclear Repulsion Energy =    77.2710182365 hartrees
 There are       13 alpha and       12 beta electrons
 Requested basis set is G3large
 There are 40 shells and 168 basis functions

Total QAlloc Memory Limit   2000 MB
Mega-Array Size       743 MB
MEM_STATIC part       760 MB

                       Distance Matrix (Angstroms)
             N (  1)   C (  2)   C (  3)
   C (  2)  1.142270
   C (  3)  2.530090  1.387820
   N (  4)  3.672360  2.530090  1.142270
 
 A cutoff of  1.0D-08 yielded    716 shell pairs
 There are  12995 function pairs ( 17001 Cartesian)
Evaluating contribution to one-electron hamiltonian from nuclear
 Smallest overlap matrix eigenvalue = 9.69E-06

 Q-Chem warning in module mkSTV.C, line 194:

 Overlap eigenvalue is smaller than square root of threshold

 Multipole matrices computed through 2nd order

  Scale SEOQF with 1.000000e-01/1.000000e-01/1.000000e-01

 Standard Electronic Orientation quadrupole field applied
 Nucleus-field energy     =    -0.0000000057 hartrees
 Guess from superposition of atomic densities
 Warning:  Energy on first SCF cycle will be non-variational
 Long-range K will be added via erf
 Coulomb attenuation parameter = 0.39 bohr**(-1)
 An unrestricted Kohn-Sham SCF calculation will be
 performed using Pulay DIIS extrapolation
 Exchange:  wPBE + LR-HF      Correlation:  PBE
 Using SG-1 standard quadrature grid
 SCF converges when DIIS error is below 1.0E-05
 Requested basis set is G3large
 There are 40 shells and 168 basis functions
 A cutoff of  1.0D-08 yielded    716 shell pairs
 There are  12995 function pairs ( 17001 Cartesian)
 Warning!  Inaccurate integrated density:
   Number of electrons =    25
   Numerical integral  =    26.000074941606
   Relative error      =     4.0002997664 %
 ---------------------------------------
  Cycle       Energy         DIIS Error
 ---------------------------------------
    1    -186.2965697785      3.76E-02
    2    -184.9234337435      4.68E-03
    3    -184.9282511397      6.24E-03
    4    -185.0409175771      6.71E-04
    5    -185.0445638482      2.51E-04
    6    -185.0456970065      7.20E-05
    7    -185.0459493849      1.75E-05
    8    -185.0459850362      7.80E-06 Convergence criterion met
 ---------------------------------------
 One-Electron    Energy =  -394.3511544042
 Total Coulomb   Energy =   156.0523690342
 Alpha Exchange  Energy =    -2.5768973467
 Beta  Exchange  Energy =    -2.3651226863
 DFT   Exchange  Energy =   -18.2760013797
 DFT Correlation Energy =    -0.8001964843
 Nuclear Repu.   Energy =    77.2710182308
 Nuclear Attr.   Energy =  -579.1573336949
 Kinetic         Energy =   184.8061792907
 <S^2> = 0.8046
 SCF time:  CPU 53.67 s  wall 54.11 s
 Final Alpha MO Eigenvalues
            1           2           3           4           5           6
    1 -14.6004631 -14.6004000 -10.5302826 -10.5298140  -1.4519935  -1.4348054
            7           8           9          10          11          12
    1  -1.1774915  -0.9076860  -0.8863608  -0.8532409  -0.8411956  -0.8321346
           13          14          15          16          17          18
    1  -0.8001845  -0.3063157  -0.2871560  -0.1210566  -0.0970786  -0.0787262
 Final Beta MO Eigenvalues
            1           2           3           4           5           6
    1 -14.5912970 -14.5912456 -10.5296703 -10.5291117  -1.4261871  -1.4018599
            7           8           9          10          11          12
    1  -1.1797043  -0.8819090  -0.8381323  -0.8274742  -0.8270649  -0.7886718
           13          14          15          16          17
    1  -0.5055900  -0.2815864  -0.2500458  -0.1206188  -0.0915053
 Analysis of SCF Wavefunction
 
 --------------------------------------------------------------
                    Orbital Energies (a.u.)
 --------------------------------------------------------------
 
 Alpha MOs
 -- Occupied --
-14.600 -14.600 -10.530 -10.530  -1.452  -1.435  -1.177  -0.908
 -0.886  -0.853  -0.841  -0.832  -0.800
 -- Virtual --
 -0.306  -0.287  -0.121  -0.097  -0.079  -0.069  -0.065  -0.063
 -0.033  -0.014  -0.012  -0.010   0.044   0.087   0.087   0.091
  0.135   0.146   0.152   0.157   0.198   0.320   0.329   0.329
  0.332   0.338   0.436   0.444   0.496   0.523   0.525   0.526
  0.627   0.648   0.648   0.660   0.688   0.694   0.706   0.719
  0.732   0.748   0.910   0.910   0.942   1.101   1.101   1.159
  1.159   1.178   1.380   1.493   1.506   1.816   1.817   1.847
  1.862   1.872   2.126   2.391   2.393   2.393   2.393   2.412
  2.415   2.419   2.509   2.519   2.617   2.627   2.629   2.629
  2.843   2.843   2.853   2.854   2.915   2.933   2.953   2.982
  3.160   3.160   3.190   3.209   3.384   3.384   3.425   3.425
  3.549   3.577   3.655   3.701   3.726   3.862   3.954   3.955
  4.141   4.289   4.305   4.380   4.437   4.438   4.491   4.492
  4.551   4.551   4.795   4.839   4.861   4.995   5.015   5.476
  5.641   5.661   6.231   6.622   6.643   6.651   7.929  24.057
 24.443  26.945  26.949  27.139  27.143  28.327  29.800  35.706
 36.564  37.050  37.064  37.418  37.432  37.895  38.028  40.041
 40.050  40.150  40.163  40.168  40.234  40.248  40.426  40.429
 40.439  40.443  40.675  40.695  40.708  40.875  40.879  40.951
 40.955  41.269  41.316
 
 Beta MOs
 -- Occupied --
-14.591 -14.591 -10.530 -10.529  -1.426  -1.402  -1.180  -0.882
 -0.838  -0.827  -0.827  -0.789
 -- Virtual --
 -0.506  -0.282  -0.250  -0.121  -0.092  -0.067  -0.065  -0.060
 -0.045  -0.031  -0.012  -0.009  -0.007   0.045   0.089   0.092
  0.092   0.136   0.148   0.158   0.159   0.200   0.320   0.330
  0.332   0.334   0.338   0.444   0.445   0.502   0.531   0.544
  0.545   0.636   0.653   0.662   0.662   0.701   0.712   0.717
  0.736   0.738   0.753   0.933   0.935   0.952   1.118   1.120
  1.168   1.183   1.185   1.384   1.506   1.507   1.822   1.828
  1.865   1.866   1.881   2.131   2.397   2.397   2.399   2.400
  2.414   2.418   2.422   2.515   2.518   2.625   2.627   2.637
  2.637   2.847   2.848   2.869   2.870   2.936   2.937   2.962
  2.987   3.164   3.165   3.213   3.214   3.419   3.420   3.458
  3.458   3.587   3.597   3.668   3.735   3.742   3.877   3.975
  3.976   4.155   4.308   4.310   4.393   4.453   4.454   4.537
  4.542   4.597   4.601   4.802   4.867   4.874   5.020   5.024
  5.484   5.665   5.668   6.239   6.647   6.651   6.658   7.935
 24.058  24.444  26.948  26.948  27.143  27.143  28.327  29.801
 35.717  36.578  37.071  37.077  37.439  37.445  37.900  38.034
 40.063  40.072  40.170  40.176  40.185  40.250  40.253  40.431
 40.442  40.444  40.445  40.678  40.697  40.710  40.878  40.878
 40.954  40.955  41.272  41.318
 --------------------------------------------------------------
 
          Ground-State Mulliken Net Atomic Charges

     Atom                 Charge (a.u.)    Spin (a.u.)
  --------------------------------------------------------
      1 N                     0.016913       0.451824
      2 C                     0.483082       0.048181
      3 C                     0.483086       0.048179
      4 N                     0.016919       0.451816
  --------------------------------------------------------
  Sum of atomic charges =     1.000000
  Sum of spin   charges =     1.000000

 -----------------------------------------------------------------
                    Cartesian Multipole Moments
 -----------------------------------------------------------------
    Charge (ESU x 10^10)
                 4.8032
    Dipole Moment (Debye)
         X       0.0000      Y       0.0000      Z      -0.0001
       Tot       0.0001
    Quadrupole Moments (Debye-Ang)
        XX     -17.9293     XY      -0.6028     YY     -17.9283
        XZ       0.0074     YZ      -0.0074     ZZ     -15.0437
    Octapole Moments (Debye-Ang^2)
       XXX       0.0000    XXY       0.0000    XYY       0.0000
       YYY       0.0000    XXZ       0.0000    XYZ       0.0000
       YYZ       0.0000    XZZ       0.0000    YZZ       0.0000
       ZZZ      -0.0001
    Hexadecapole Moments (Debye-Ang^3)
      XXXX     -15.0894   XXXY      -0.3863   XXYY      -5.0298
      XYYY      -0.3863   YYYY     -15.0881   XXXZ       0.0059
      XXYZ      -0.0020   XYYZ       0.0020   YYYZ      -0.0060
      XXZZ     -41.3698   XYZZ      -1.6739   YYZZ     -41.3671
      XZZZ       0.0411   YZZZ      -0.0412   ZZZZ    -248.7474
 -----------------------------------------------------------------
 Total job time:  54.30s(wall), 53.85s(cpu) 
 Mon Jul  8 17:00:28 2013

        *************************************************************
        *                                                           *
        *  Thank you very much for using Q-Chem.  Have a nice day.  *
        *                                                           *
        *************************************************************


0 sent ACK to 0 
now end server 0 ... 
