Process 0 of 1 is on cl178.stfx.acenet.ca - thread support 1
initial socket setup ...start
initial socket setup ...done 
now start server 0 ... 

cmd = /usr/bin/ssh clhead /usr/local/qchem/bin/get_hostid 1554833930 > /scratch/tmp/6029094.1.medium.q/qchem16610/lic.dat
                  Welcome to Q-Chem
     A Quantum Leap Into The Future Of Chemistry

 Y. Shao, L. Fusti-Molnar, Y. Jung, J. Kussmann, C. Ochsenfeld,
 S. T. Brown, A. T. B. Gilbert, L. V. Slipchenko,S. V. Levchenko,
 D. P. O'Neill, R. A. DiStasio Jr., R. C. Lochan, T. Wang,
 G. J. O. Beran, N. A. Besley, J. M. Herbert, C. Y. Lin,
 T. Van Voorhis, S. H. Chien, A. Sodt, R. P. Steele, 
 V. A. Rassolov, P. E. Maslen, P. P. Korambath, R. D. Adamson,
 B. Austin, J. Baker, E. F. C. Byrd, H. Dachsel, R. J. Doerksen,
 A. Dreuw, B. D. Dunietz, A. D. Dutoi, T. R. Furlani,
 S. R. Gwaltney, A. Heyden, S. Hirata, C.-P. Hsu, G. Kedziora,
 R. Z. Khaliullin, P. Klunzinger, A. M. Lee, M. S. Lee, W. Liang,
 I. Lotan, N. Nair, B. Peters, E. I. Proynov, P. A. Pieniazek, 
 Y. M. Rhee, J. Ritchie, E. Rosta, C. D. Sherrill, 
 A. C. Simmonett, J. E. Subotnik, H. L. Woodcock III,
 W. Zhang, A. T. Bell, A. K. Chakraborty, D. M. Chipman,
 F. J. Keil, A. Warshel, W. J. Hehre, H. F. Schaefer III,
 J. Kong, A. I. Krylov, P. M. W. Gill, M. Head-Gordon,
 Q-Chem, Version 3.1, Q-Chem, Inc., Pittsburgh, PA (2007).

 Additional authors for Version 3.1: 
 Z. Gan, Y. Zhao, N. E. Schultz, D. Truhlar, E. Epifanovsky and M. Oana.

 Additional authors for Version 3.2: 
 R. Baer, B. R. Brooks, D. Casanova, J.-D. Chai, C.-L. Cheng, 
 C. Cramer, D. Crittenden, A. Ghysels, G. Hawkins, E. G. Hohenstein, 
 C. Kelley, W. Kurlancheek, D. Liotard, E. Livshits, P. Manohar, 
 A. Marenich, D. Neuhauser, R. Olson, M. A. Rohrdanz, K. S. Thanthiriwatte, 
 A. J. W. Thom, V. Vanovschi, C. F. Williams, Q. Wu and Z.-Q. You. 


 Intel X86 Linux Version

 Q-chem begins on Tue Jun  4 16:42:35 2013  

 Parallel job on  1  processors
Processing $rem in /usr/local/qchem/config/preferences.

theFileMan(): MAXOPENFILES=974 MAX_SUB_FILE_NUM=16
Maximum size of a physical file is 2.0 GB, maximum size of a tmp-file is 32.0 GB


--------------------------------------------------------------
User input:
--------------------------------------------------------------

$molecule
-1,2
Si        -0.00000        0.00000       -0.00000
Cl        -0.00000       -0.00000        2.09442
Cl         1.97464       -0.00000       -0.69814
Cl        -0.98732        1.71009       -0.69814
Cl        -0.98732       -1.71009       -0.69814
$end

$comment
negative
$end

$xc_functional
C PBE   1.00
X wPBE  1.00
$end

$rem
SYMMETRY_DECOMPOSITION	0
exchange 		general
LRC_DFT                 true
BASIS                   g3large
omega			410
mem_static              760
max_scf_cycles          200
scf_final_print         1
sym_ignore              true
$end

--------------------------------------------------------------
 Writing REM_CC_EA            5
 ----------------------------------------------------
       Standard Nuclear Orientation (Angstroms)
    I     Atom         X            Y            Z
 ----------------------------------------------------
    1      Si      0.000000     0.000000     0.000000
    2      Cl      0.000000     0.000000     2.094420
    3      Cl      1.974640     0.000000    -0.698140
    4      Cl     -0.987320     1.710090    -0.698140
    5      Cl     -0.987320    -1.710090    -0.698140
 ----------------------------------------------------
 Nuclear Repulsion Energy =   508.8208325231 hartrees
 There are       42 alpha and       41 beta electrons
 Requested basis set is G3large
 There are 95 shells and 330 basis functions

Total QAlloc Memory Limit   2000 MB
Mega-Array Size       743 MB
MEM_STATIC part       760 MB

                       Distance Matrix (Angstroms)
             Si(  1)   Cl(  2)   Cl(  3)   Cl(  4)
   Cl(  2)  2.094420
   Cl(  3)  2.094422  3.420175
   Cl(  4)  2.094423  3.420175  3.420178
   Cl(  5)  2.094423  3.420175  3.420178  3.420180
 
 A cutoff of  1.0D-08 yielded   3394 shell pairs
 There are  42765 function pairs ( 61004 Cartesian)
Evaluating contribution to one-electron hamiltonian from nuclear
 Smallest overlap matrix eigenvalue = 3.17E-04
 Multipole matrices computed through 2nd order

  Scale SEOQF with 1.000000e-01/1.000000e-01/1.000000e-01

 Standard Electronic Orientation quadrupole field applied
 Guess from superposition of atomic densities
 Warning:  Energy on first SCF cycle will be non-variational
 Long-range K will be added via erf
 Coulomb attenuation parameter = 0.41 bohr**(-1)
 An unrestricted Kohn-Sham SCF calculation will be
 performed using Pulay DIIS extrapolation
 Exchange:  wPBE + LR-HF      Correlation:  PBE
 Using SG-1 standard quadrature grid
 SCF converges when DIIS error is below 1.0E-05
 Requested basis set is G3large
 There are 95 shells and 330 basis functions
 A cutoff of  1.0D-08 yielded   3394 shell pairs
 There are  42765 function pairs ( 61004 Cartesian)
 Warning!  Inaccurate integrated density:
   Number of electrons =    83
   Numerical integral  =    81.999884338267
   Relative error      =    -1.2049586286 %
 ---------------------------------------
  Cycle       Energy         DIIS Error
 ---------------------------------------
    1   -2130.3621853745      1.69E-02
    2   -2129.8067238928      1.97E-03
    3   -2129.8486634269      1.50E-03
    4   -2129.8703494261      2.10E-04
    5   -2129.8711313601      8.67E-05
    6   -2129.8713208167      2.81E-05
    7   -2129.8713703014      7.46E-06 Convergence criterion met
 ---------------------------------------
 One-Electron    Energy = -3973.7929276928
 Total Coulomb   Energy =  1468.7060786335
 Alpha Exchange  Energy =    -8.8842218145
 Beta  Exchange  Energy =    -8.7229472016
 DFT   Exchange  Energy =  -112.7670683853
 DFT Correlation Energy =    -3.2311163637
 Nuclear Repu.   Energy =   508.8208325231
 Nuclear Attr.   Energy = -6101.3162019701
 Kinetic         Energy =  2127.5232742773
 <S^2> = 0.7553
 SCF time:  CPU 458.62 s  wall 462.21 s
 Final Alpha MO Eigenvalues
            1           2           3           4           5           6
    1-100.7123601-100.7115978-100.7114483-100.7114236 -65.5425039  -9.2369096
            7           8           9          10          11          12
    1  -9.2362481  -9.2361540  -9.2361012  -7.0518038  -7.0510724  -7.0510081
           13          14          15          16          17          18
    1  -7.0509684  -7.0464214  -7.0463901  -7.0457652  -7.0457634  -7.0456578
           19          20          21          22          23          24
    1  -7.0456257  -7.0456070  -7.0455875  -5.1938994  -3.5959440  -3.5959165
           25          26          27          28          29          30
    1  -3.5958978  -0.8500803  -0.8063486  -0.8060109  -0.8059254  -0.5093070
           31          32          33          34          35          36
    1  -0.3852008  -0.3850143  -0.3849814  -0.3157817  -0.3157806  -0.3046219
           37          38          39          40          41          42
    1  -0.3045654  -0.3045088  -0.2759364  -0.2759000  -0.2757445  -0.0099361
           43          44          45          46          47
    1   0.1753373   0.1894936   0.1895278   0.1895453   0.2345401
 Final Beta MO Eigenvalues
            1           2           3           4           5           6
    1-100.7113248-100.7105577-100.7104037-100.7103957 -65.5394066  -9.2358838
            7           8           9          10          11          12
    1  -9.2352161  -9.2351330  -9.2350652  -7.0494762  -7.0486986  -7.0486086
           13          14          15          16          17          18
    1  -7.0485471  -7.0456528  -7.0455658  -7.0450289  -7.0450263  -7.0448935
           19          20          21          22          23          24
    1  -7.0448671  -7.0448068  -7.0447941  -5.1897089  -3.5916192  -3.5915821
           25          26          27          28          29          30
    1  -3.5915628  -0.8420214  -0.7991274  -0.7987856  -0.7986526  -0.4843354
           31          32          33          34          35          36
    1  -0.3732111  -0.3731017  -0.3730521  -0.3130447  -0.3130407  -0.2966119
           37          38          39          40          41          42
    1  -0.2965907  -0.2965688  -0.2734441  -0.2733955  -0.2732296   0.1647626
           43          44          45          46
    1   0.1937236   0.1937713   0.1937936   0.2237932
 Analysis of SCF Wavefunction
 
 --------------------------------------------------------------
                    Orbital Energies (a.u.)
 --------------------------------------------------------------
 
 Alpha MOs
 -- Occupied --
*******-100.712-100.711-100.711 -65.543  -9.237  -9.236  -9.236
 -9.236  -7.052  -7.051  -7.051  -7.051  -7.046  -7.046  -7.046
 -7.046  -7.046  -7.046  -7.046  -7.046  -5.194  -3.596  -3.596
 -3.596  -0.850  -0.806  -0.806  -0.806  -0.509  -0.385  -0.385
 -0.385  -0.316  -0.316  -0.305  -0.305  -0.305  -0.276  -0.276
 -0.276  -0.010
 -- Virtual --
  0.175   0.189   0.190   0.190   0.235   0.235   0.235   0.264
  0.264   0.275   0.275   0.275   0.287   0.293   0.293   0.293
  0.324   0.324   0.324   0.330   0.330   0.330   0.334   0.407
  0.407   0.453   0.454   0.454   0.527   0.527   0.527   0.554
  0.554   0.554   0.570   0.570   0.576   0.576   0.576   0.625
  0.625   0.625   0.644   0.697   0.697   0.697   0.720   0.720
  0.726   0.740   0.740   0.740   0.813   0.833   0.833   0.833
  0.838   0.838   0.838   0.894   0.894   0.894   0.952   0.952
  1.042   1.050   1.051   1.051   1.096   1.096   1.138   1.138
  1.138   1.165   1.165   1.165   1.339   1.339   1.340   1.341
  1.341   1.341   1.366   1.366   1.381   1.381   1.381   1.384
  1.384   1.384   1.398   1.433   1.438   1.438   1.438   1.469
  1.469   1.470   1.478   1.478   1.478   1.478   1.478   1.570
  1.570   1.570   1.590   1.599   1.599   1.729   1.729   1.729
  1.786   1.803   1.803   1.803   1.853   1.853   1.853   1.900
  1.900   1.901   1.926   1.926   1.926   2.052   2.076   2.076
  2.189   2.190   2.190   2.405   2.469   2.469   2.505   2.505
  2.506   2.514   2.514   2.515   2.626   2.626   2.626   2.680
  2.680   2.680   2.791   2.791   2.791   2.944   3.935   3.936
  4.196   4.197   4.199   4.638   4.642   4.642   4.643   4.643
  4.644   4.644   4.663   4.663   4.676   4.724   4.724   4.725
  4.749   4.749   4.749   4.781   4.824   4.824   4.834   4.834
  4.834   4.841   4.841   4.841   4.862   4.863   4.863   5.314
  5.315   5.318   5.319   5.319   5.328   5.329   5.330   5.425
  5.426   5.426   5.466   5.466   5.467   5.507   5.572   5.572
  5.619   5.620   5.620   6.491  10.068  10.068  10.068  10.223
 11.809  11.809  11.809  17.740  17.820  17.821  17.901  17.959
 20.762  20.762  20.800  20.800  20.800  20.852  20.852  20.852
 21.047  21.056  21.056  21.057  22.311  22.312  22.318  22.320
 22.321  22.322  22.333  27.282  27.285  27.292  27.305  27.331
 27.342  27.360  27.361  27.362  27.370  27.380  27.389  27.403
 27.405  27.412  27.430  27.437  27.455  27.460  27.463  36.997
 36.997  36.998  36.998  36.998  36.999  36.999  37.001  37.001
 37.002  37.006  37.008  37.008  37.012  37.013  37.014  37.019
 37.020  37.021  37.023  37.023  37.023  37.024  37.024  37.025
 37.026  37.027  37.027 141.442 215.972 215.973 215.973 216.157
 
 Beta MOs
 -- Occupied --
*******-100.711-100.710-100.710 -65.539  -9.236  -9.235  -9.235
 -9.235  -7.049  -7.049  -7.049  -7.049  -7.046  -7.046  -7.045
 -7.045  -7.045  -7.045  -7.045  -7.045  -5.190  -3.592  -3.592
 -3.592  -0.842  -0.799  -0.799  -0.799  -0.484  -0.373  -0.373
 -0.373  -0.313  -0.313  -0.297  -0.297  -0.297  -0.273  -0.273
 -0.273
 -- Virtual --
  0.165   0.194   0.194   0.194   0.224   0.242   0.242   0.242
  0.265   0.265   0.286   0.286   0.286   0.294   0.295   0.295
  0.303   0.327   0.327   0.327   0.334   0.334   0.334   0.335
  0.410   0.410   0.464   0.464   0.464   0.528   0.528   0.529
  0.555   0.555   0.556   0.571   0.571   0.584   0.584   0.584
  0.629   0.629   0.629   0.652   0.702   0.702   0.702   0.723
  0.723   0.731   0.753   0.753   0.753   0.825   0.838   0.838
  0.838   0.839   0.839   0.839   0.897   0.897   0.897   0.966
  0.966   1.047   1.053   1.053   1.053   1.098   1.098   1.143
  1.143   1.144   1.172   1.172   1.172   1.345   1.345   1.345
  1.347   1.347   1.348   1.370   1.370   1.384   1.384   1.384
  1.389   1.389   1.389   1.405   1.434   1.444   1.444   1.444
  1.475   1.475   1.475   1.479   1.479   1.479   1.483   1.483
  1.575   1.575   1.575   1.592   1.605   1.605   1.732   1.732
  1.732   1.790   1.810   1.810   1.810   1.855   1.855   1.855
  1.904   1.905   1.905   1.929   1.930   1.930   2.059   2.079
  2.079   2.197   2.197   2.197   2.423   2.472   2.472   2.508
  2.508   2.508   2.533   2.533   2.533   2.629   2.629   2.629
  2.698   2.698   2.698   2.799   2.799   2.800   2.956   3.941
  3.942   4.202   4.203   4.205   4.641   4.646   4.646   4.646
  4.647   4.647   4.647   4.669   4.669   4.679   4.731   4.731
  4.731   4.757   4.757   4.757   4.790   4.832   4.832   4.841
  4.841   4.842   4.848   4.848   4.848   4.870   4.870   4.870
  5.315   5.315   5.319   5.319   5.320   5.329   5.330   5.332
  5.427   5.428   5.428   5.468   5.468   5.469   5.511   5.574
  5.574   5.622   5.623   5.623   6.498  10.069  10.070  10.070
 10.224  11.814  11.814  11.814  17.746  17.825  17.827  17.906
 17.965  20.763  20.763  20.801  20.801  20.801  20.853  20.853
 20.853  21.050  21.059  21.060  21.060  22.314  22.314  22.321
 22.323  22.324  22.325  22.336  27.283  27.286  27.293  27.306
 27.333  27.344  27.362  27.362  27.363  27.371  27.383  27.390
 27.405  27.407  27.414  27.432  27.439  27.457  27.462  27.466
 36.998  36.998  36.998  36.998  36.999  36.999  37.000  37.001
 37.002  37.003  37.007  37.008  37.009  37.013  37.014  37.015
 37.020  37.021  37.022  37.024  37.024  37.024  37.025  37.025
 37.026  37.027  37.028  37.028 141.446 215.974 215.974 215.974
216.158
 --------------------------------------------------------------
 
          Ground-State Mulliken Net Atomic Charges

     Atom                 Charge (a.u.)    Spin (a.u.)
  --------------------------------------------------------
      1 Si                    0.954030       0.840176
      2 Cl                   -0.488042       0.039766
      3 Cl                   -0.488208       0.039419
      4 Cl                   -0.489313       0.041141
      5 Cl                   -0.488468       0.039498
  --------------------------------------------------------
  Sum of atomic charges =    -1.000000
  Sum of spin   charges =     1.000000

 -----------------------------------------------------------------
                    Cartesian Multipole Moments
 -----------------------------------------------------------------
    Charge (ESU x 10^10)
                -4.8032
    Dipole Moment (Debye)
         X      -0.0189      Y       0.0084      Z      -0.0055
       Tot       0.0214
    Quadrupole Moments (Debye-Ang)
        XX     -78.4101     XY      -0.0199     YY     -78.3343
        XZ       0.0282     YZ      -0.0140     ZZ     -78.3974
    Octapole Moments (Debye-Ang^2)
       XXX     -12.3929    XXY       0.0310    XYY      12.1521
       YYY       0.0931    XXZ       8.6895    XYZ       0.0252
       YYZ       8.5907    XZZ      -0.0279    YZZ       0.0132
       ZZZ     -17.3605
    Hexadecapole Moments (Debye-Ang^3)
      XXXX    -631.3413   XXXY      -0.1525   XXYY    -210.2435
      XYYY      -0.1636   YYYY    -630.2210   XXXZ       8.4741
      XXYZ      -0.0384   XYYZ      -8.1857   YYYZ      -0.1154
      XXZZ    -204.5656   XYZZ      -0.0527   YYZZ    -204.3831
      XZZZ       0.1920   YZZZ      -0.1075   ZZZZ    -637.0035
 -----------------------------------------------------------------
 Total job time:  462.91s(wall), 459.31s(cpu) 
 Tue Jun  4 16:50:18 2013

        *************************************************************
        *                                                           *
        *  Thank you very much for using Q-Chem.  Have a nice day.  *
        *                                                           *
        *************************************************************


0 sent ACK to 0 
now end server 0 ... 
 
**********************************************************************
Job 2 of 3 
**********************************************************************
 
Process 0 of 1 is on cl178.stfx.acenet.ca - thread support 1
initial socket setup ...start
initial socket setup ...done 
now start server 0 ... 

cmd = /usr/bin/ssh clhead /usr/local/qchem/bin/get_hostid 1569201145 > /scratch/tmp/6029094.1.medium.q/qchem16610/lic.dat
                  Welcome to Q-Chem
     A Quantum Leap Into The Future Of Chemistry

 Y. Shao, L. Fusti-Molnar, Y. Jung, J. Kussmann, C. Ochsenfeld,
 S. T. Brown, A. T. B. Gilbert, L. V. Slipchenko,S. V. Levchenko,
 D. P. O'Neill, R. A. DiStasio Jr., R. C. Lochan, T. Wang,
 G. J. O. Beran, N. A. Besley, J. M. Herbert, C. Y. Lin,
 T. Van Voorhis, S. H. Chien, A. Sodt, R. P. Steele, 
 V. A. Rassolov, P. E. Maslen, P. P. Korambath, R. D. Adamson,
 B. Austin, J. Baker, E. F. C. Byrd, H. Dachsel, R. J. Doerksen,
 A. Dreuw, B. D. Dunietz, A. D. Dutoi, T. R. Furlani,
 S. R. Gwaltney, A. Heyden, S. Hirata, C.-P. Hsu, G. Kedziora,
 R. Z. Khaliullin, P. Klunzinger, A. M. Lee, M. S. Lee, W. Liang,
 I. Lotan, N. Nair, B. Peters, E. I. Proynov, P. A. Pieniazek, 
 Y. M. Rhee, J. Ritchie, E. Rosta, C. D. Sherrill, 
 A. C. Simmonett, J. E. Subotnik, H. L. Woodcock III,
 W. Zhang, A. T. Bell, A. K. Chakraborty, D. M. Chipman,
 F. J. Keil, A. Warshel, W. J. Hehre, H. F. Schaefer III,
 J. Kong, A. I. Krylov, P. M. W. Gill, M. Head-Gordon,
 Q-Chem, Version 3.1, Q-Chem, Inc., Pittsburgh, PA (2007).

 Additional authors for Version 3.1: 
 Z. Gan, Y. Zhao, N. E. Schultz, D. Truhlar, E. Epifanovsky and M. Oana.

 Additional authors for Version 3.2: 
 R. Baer, B. R. Brooks, D. Casanova, J.-D. Chai, C.-L. Cheng, 
 C. Cramer, D. Crittenden, A. Ghysels, G. Hawkins, E. G. Hohenstein, 
 C. Kelley, W. Kurlancheek, D. Liotard, E. Livshits, P. Manohar, 
 A. Marenich, D. Neuhauser, R. Olson, M. A. Rohrdanz, K. S. Thanthiriwatte, 
 A. J. W. Thom, V. Vanovschi, C. F. Williams, Q. Wu and Z.-Q. You. 


 Intel X86 Linux Version

 Q-chem begins on Tue Jun  4 16:50:21 2013  

 Parallel job on  1  processors
Processing $rem in /usr/local/qchem/config/preferences.

theFileMan(): MAXOPENFILES=974 MAX_SUB_FILE_NUM=16
Maximum size of a physical file is 2.0 GB, maximum size of a tmp-file is 32.0 GB


--------------------------------------------------------------
User input:
--------------------------------------------------------------

$molecule
0,1
Si        -0.00000        0.00000       -0.00000
Cl        -0.00000       -0.00000        2.09442
Cl         1.97464       -0.00000       -0.69814
Cl        -0.98732        1.71009       -0.69814
Cl        -0.98732       -1.71009       -0.69814
$end

$comment
neutral
$end

$xc_functional
C PBE   1.00
X wPBE  1.00
$end


$rem
SYMMETRY_DECOMPOSITION	0
LRC_DFT                 true
exchange 		general
BASIS                   g3large
omega			410
mem_static              760
max_scf_cycles          200
scf_final_print         1
sym_ignore              true
$end

--------------------------------------------------------------
 Writing REM_CC_EA            5
 ----------------------------------------------------
       Standard Nuclear Orientation (Angstroms)
    I     Atom         X            Y            Z
 ----------------------------------------------------
    1      Si      0.000000     0.000000     0.000000
    2      Cl      0.000000     0.000000     2.094420
    3      Cl      1.974640     0.000000    -0.698140
    4      Cl     -0.987320     1.710090    -0.698140
    5      Cl     -0.987320    -1.710090    -0.698140
 ----------------------------------------------------
 Nuclear Repulsion Energy =   508.8208325231 hartrees
 There are       41 alpha and       41 beta electrons
 Requested basis set is G3large
 There are 95 shells and 330 basis functions

Total QAlloc Memory Limit   2000 MB
Mega-Array Size       743 MB
MEM_STATIC part       760 MB

                       Distance Matrix (Angstroms)
             Si(  1)   Cl(  2)   Cl(  3)   Cl(  4)
   Cl(  2)  2.094420
   Cl(  3)  2.094422  3.420175
   Cl(  4)  2.094423  3.420175  3.420178
   Cl(  5)  2.094423  3.420175  3.420178  3.420180
 
 A cutoff of  1.0D-08 yielded   3394 shell pairs
 There are  42765 function pairs ( 61004 Cartesian)
Evaluating contribution to one-electron hamiltonian from nuclear
 Smallest overlap matrix eigenvalue = 3.17E-04
 Multipole matrices computed through 2nd order

  Scale SEOQF with 1.000000e-01/1.000000e-01/1.000000e-01

 Standard Electronic Orientation quadrupole field applied
 Guess from superposition of atomic densities
 Warning:  Energy on first SCF cycle will be non-variational
 Long-range K will be added via erf
 Coulomb attenuation parameter = 0.41 bohr**(-1)
 A restricted Kohn-Sham SCF calculation will be
 performed using Pulay DIIS extrapolation
 Exchange:  wPBE + LR-HF      Correlation:  PBE
 Using SG-1 standard quadrature grid
 SCF converges when DIIS error is below 1.0E-05
 Requested basis set is G3large
 There are 95 shells and 330 basis functions
 A cutoff of  1.0D-08 yielded   3394 shell pairs
 There are  42765 function pairs ( 61004 Cartesian)
 ---------------------------------------
  Cycle       Energy         DIIS Error
 ---------------------------------------
    1   -2130.3621853745      1.69E-02
    2   -2129.7821308943      2.41E-03
    3   -2129.8117531427      2.36E-03
    4   -2129.8749368030      1.69E-04
    5   -2129.8755137798      6.32E-05
    6   -2129.8756129256      2.43E-05
    7   -2129.8756265516      5.33E-06 Convergence criterion met
 ---------------------------------------
 One-Electron    Energy = -3957.2810020105
 Total Coulomb   Energy =  1451.8841260976
 Alpha Exchange  Energy =    -8.7353826322
 Beta  Exchange  Energy =    -8.7353826322
 DFT   Exchange  Energy =  -112.6282101827
 DFT Correlation Energy =    -3.2006077147
 Nuclear Repu.   Energy =   508.8208325231
 Nuclear Attr.   Energy = -6083.7414194058
 Kinetic         Energy =  2126.4604173953
 SCF time:  CPU 366.81 s  wall 371.45 s
 Final Alpha MO Eigenvalues
            1           2           3           4           5           6
    1-100.9133942-100.9133116-100.9133062-100.9132225 -65.8006525  -9.4360242
            7           8           9          10          11          12
    1  -9.4359762  -9.4359695  -9.4359013  -7.2522322  -7.2520936  -7.2520744
           13          14          15          16          17          18
    1  -7.2519685  -7.2449536  -7.2449530  -7.2449521  -7.2449388  -7.2448560
           19          20          21          22          23          24
    1  -7.2448515  -7.2448311  -7.2447305  -5.4424279  -3.8447004  -3.8446816
           25          26          27          28          29          30
    1  -3.8446755  -1.0422389  -0.9948995  -0.9948874  -0.9948624  -0.6892864
           31          32          33          34          35          36
    1  -0.5709461  -0.5709367  -0.5709312  -0.5012194  -0.5012154  -0.4866977
           37          38          39          40          41          42
    1  -0.4866789  -0.4866633  -0.4610541  -0.4610392  -0.4610262   0.0164724
           43          44          45          46
    1   0.0548383   0.0678604   0.0678710   0.0678738
 Analysis of SCF Wavefunction
 
 --------------------------------------------------------------
                    Orbital Energies (a.u.)
 --------------------------------------------------------------
 
 Alpha MOs
 -- Occupied --
*******-100.913-100.913-100.913 -65.801  -9.436  -9.436  -9.436
 -9.436  -7.252  -7.252  -7.252  -7.252  -7.245  -7.245  -7.245
 -7.245  -7.245  -7.245  -7.245  -7.245  -5.442  -3.845  -3.845
 -3.845  -1.042  -0.995  -0.995  -0.995  -0.689  -0.571  -0.571
 -0.571  -0.501  -0.501  -0.487  -0.487  -0.487  -0.461  -0.461
 -0.461
 -- Virtual --
  0.016   0.055   0.068   0.068   0.068   0.089   0.089   0.089
  0.130   0.130   0.130   0.136   0.136   0.161   0.171   0.171
  0.171   0.188   0.188   0.188   0.200   0.207   0.207   0.207
  0.224   0.224   0.289   0.289   0.289   0.367   0.367   0.367
  0.381   0.381   0.381   0.398   0.398   0.422   0.422   0.422
  0.456   0.456   0.456   0.486   0.540   0.540   0.540   0.562
  0.562   0.571   0.571   0.571   0.574   0.644   0.659   0.659
  0.659   0.673   0.673   0.673   0.731   0.731   0.731   0.763
  0.763   0.863   0.876   0.876   0.876   0.922   0.922   0.957
  0.957   0.957   0.988   0.988   0.988   1.157   1.157   1.157
  1.163   1.163   1.163   1.188   1.188   1.203   1.203   1.203
  1.207   1.208   1.208   1.221   1.257   1.257   1.257   1.259
  1.293   1.293   1.293   1.296   1.296   1.298   1.299   1.299
  1.389   1.389   1.389   1.415   1.419   1.419   1.543   1.543
  1.543   1.615   1.621   1.621   1.621   1.674   1.674   1.674
  1.720   1.720   1.720   1.750   1.750   1.750   1.865   1.895
  1.895   1.998   1.998   1.998   2.207   2.284   2.284   2.317
  2.317   2.317   2.322   2.323   2.323   2.443   2.443   2.443
  2.482   2.482   2.482   2.596   2.596   2.597   2.752   3.707
  3.708   3.972   3.973   3.975   4.449   4.453   4.453   4.453
  4.455   4.455   4.455   4.473   4.473   4.487   4.534   4.534
  4.534   4.558   4.558   4.559   4.588   4.631   4.631   4.643
  4.644   4.644   4.651   4.651   4.651   4.672   4.673   4.673
  5.121   5.121   5.124   5.125   5.126   5.135   5.135   5.137
  5.231   5.231   5.231   5.271   5.271   5.272   5.310   5.378
  5.378   5.420   5.421   5.421   6.260   9.873   9.873   9.873
 10.028  11.564  11.564  11.564  17.493  17.573  17.575  17.654
 17.713  20.564  20.564  20.602  20.602  20.602  20.654  20.654
 20.654  20.847  20.857  20.857  20.857  22.061  22.062  22.069
 22.071  22.071  22.073  22.083  27.084  27.086  27.094  27.107
 27.133  27.143  27.160  27.163  27.163  27.171  27.180  27.190
 27.204  27.206  27.212  27.230  27.237  27.255  27.260  27.264
 36.799  36.799  36.799  36.799  36.799  36.800  36.800  36.802
 36.802  36.804  36.806  36.808  36.809  36.812  36.813  36.814
 36.819  36.820  36.821  36.822  36.823  36.823  36.823  36.823
 36.825  36.826  36.826  36.827 141.185 215.772 215.772 215.772
215.956
 --------------------------------------------------------------
 
          Ground-State Mulliken Net Atomic Charges

     Atom                 Charge (a.u.)
  ----------------------------------------
      1 Si                    1.508901
      2 Cl                   -0.377131
      3 Cl                   -0.377715
      4 Cl                   -0.377055
      5 Cl                   -0.376999
  ----------------------------------------
  Sum of atomic charges =     0.000000

 -----------------------------------------------------------------
                    Cartesian Multipole Moments
 -----------------------------------------------------------------
    Charge (ESU x 10^10)
                 0.0000
    Dipole Moment (Debye)
         X       0.0005      Y      -0.0016      Z       0.0011
       Tot       0.0020
    Quadrupole Moments (Debye-Ang)
        XX     -62.5459     XY       0.0000     YY     -62.5436
        XZ       0.0014     YZ       0.0010     ZZ     -62.5425
    Octapole Moments (Debye-Ang^2)
       XXX       2.5618    XXY      -0.0027    XYY      -2.5623
       YYY      -0.0080    XXZ      -1.8082    XYZ      -0.0002
       YYZ      -1.8121    XZZ      -0.0020    YZZ      -0.0025
       ZZZ       3.6282
    Hexadecapole Moments (Debye-Ang^3)
      XXXX    -491.8766   XXXY      -0.0048   XXYY    -163.9583
      XYYY       0.0006   YYYY    -491.8529   XXXZ      -5.6175
      XXYZ       0.0010   XYYZ       5.6271   YYYZ       0.0029
      XXZZ    -167.9314   XYZZ      -0.0011   YYZZ    -167.9279
      XZZZ       0.0073   YZZZ      -0.0019   ZZZZ    -487.8700
 -----------------------------------------------------------------
 Total job time:  372.11s(wall), 367.45s(cpu) 
 Tue Jun  4 16:56:33 2013

        *************************************************************
        *                                                           *
        *  Thank you very much for using Q-Chem.  Have a nice day.  *
        *                                                           *
        *************************************************************


0 sent ACK to 0 
now end server 0 ... 
 
**********************************************************************
Job 3 of 3 
**********************************************************************
 
Process 0 of 1 is on cl178.stfx.acenet.ca - thread support 1
initial socket setup ...start
initial socket setup ...done 
now start server 0 ... 

cmd = /usr/bin/ssh clhead /usr/local/qchem/bin/get_hostid 277128757 > /scratch/tmp/6029094.1.medium.q/qchem16610/lic.dat
                  Welcome to Q-Chem
     A Quantum Leap Into The Future Of Chemistry

 Y. Shao, L. Fusti-Molnar, Y. Jung, J. Kussmann, C. Ochsenfeld,
 S. T. Brown, A. T. B. Gilbert, L. V. Slipchenko,S. V. Levchenko,
 D. P. O'Neill, R. A. DiStasio Jr., R. C. Lochan, T. Wang,
 G. J. O. Beran, N. A. Besley, J. M. Herbert, C. Y. Lin,
 T. Van Voorhis, S. H. Chien, A. Sodt, R. P. Steele, 
 V. A. Rassolov, P. E. Maslen, P. P. Korambath, R. D. Adamson,
 B. Austin, J. Baker, E. F. C. Byrd, H. Dachsel, R. J. Doerksen,
 A. Dreuw, B. D. Dunietz, A. D. Dutoi, T. R. Furlani,
 S. R. Gwaltney, A. Heyden, S. Hirata, C.-P. Hsu, G. Kedziora,
 R. Z. Khaliullin, P. Klunzinger, A. M. Lee, M. S. Lee, W. Liang,
 I. Lotan, N. Nair, B. Peters, E. I. Proynov, P. A. Pieniazek, 
 Y. M. Rhee, J. Ritchie, E. Rosta, C. D. Sherrill, 
 A. C. Simmonett, J. E. Subotnik, H. L. Woodcock III,
 W. Zhang, A. T. Bell, A. K. Chakraborty, D. M. Chipman,
 F. J. Keil, A. Warshel, W. J. Hehre, H. F. Schaefer III,
 J. Kong, A. I. Krylov, P. M. W. Gill, M. Head-Gordon,
 Q-Chem, Version 3.1, Q-Chem, Inc., Pittsburgh, PA (2007).

 Additional authors for Version 3.1: 
 Z. Gan, Y. Zhao, N. E. Schultz, D. Truhlar, E. Epifanovsky and M. Oana.

 Additional authors for Version 3.2: 
 R. Baer, B. R. Brooks, D. Casanova, J.-D. Chai, C.-L. Cheng, 
 C. Cramer, D. Crittenden, A. Ghysels, G. Hawkins, E. G. Hohenstein, 
 C. Kelley, W. Kurlancheek, D. Liotard, E. Livshits, P. Manohar, 
 A. Marenich, D. Neuhauser, R. Olson, M. A. Rohrdanz, K. S. Thanthiriwatte, 
 A. J. W. Thom, V. Vanovschi, C. F. Williams, Q. Wu and Z.-Q. You. 


 Intel X86 Linux Version

 Q-chem begins on Tue Jun  4 16:56:36 2013  

 Parallel job on  1  processors
Processing $rem in /usr/local/qchem/config/preferences.

theFileMan(): MAXOPENFILES=974 MAX_SUB_FILE_NUM=16
Maximum size of a physical file is 2.0 GB, maximum size of a tmp-file is 32.0 GB


--------------------------------------------------------------
User input:
--------------------------------------------------------------

$molecule
1,2
Si        -0.00000        0.00000       -0.00000
Cl        -0.00000       -0.00000        2.09442
Cl         1.97464       -0.00000       -0.69814
Cl        -0.98732        1.71009       -0.69814
Cl        -0.98732       -1.71009       -0.69814
$end

$comment
positive
$end

$xc_functional
C PBE   1.00
X wPBE  1.00
$end

$rem
SYMMETRY_DECOMPOSITION	0
LRC_DFT                 true
exchange 		general
BASIS                   g3large
omega			410
mem_static              760
max_scf_cycles          200
scf_final_print         1
sym_ignore              true
$end

--------------------------------------------------------------
 Writing REM_CC_EA            5
 ----------------------------------------------------
       Standard Nuclear Orientation (Angstroms)
    I     Atom         X            Y            Z
 ----------------------------------------------------
    1      Si      0.000000     0.000000     0.000000
    2      Cl      0.000000     0.000000     2.094420
    3      Cl      1.974640     0.000000    -0.698140
    4      Cl     -0.987320     1.710090    -0.698140
    5      Cl     -0.987320    -1.710090    -0.698140
 ----------------------------------------------------
 Nuclear Repulsion Energy =   508.8208325231 hartrees
 There are       41 alpha and       40 beta electrons
 Requested basis set is G3large
 There are 95 shells and 330 basis functions

Total QAlloc Memory Limit   2000 MB
Mega-Array Size       743 MB
MEM_STATIC part       760 MB

                       Distance Matrix (Angstroms)
             Si(  1)   Cl(  2)   Cl(  3)   Cl(  4)
   Cl(  2)  2.094420
   Cl(  3)  2.094422  3.420175
   Cl(  4)  2.094423  3.420175  3.420178
   Cl(  5)  2.094423  3.420175  3.420178  3.420180
 
 A cutoff of  1.0D-08 yielded   3394 shell pairs
 There are  42765 function pairs ( 61004 Cartesian)
Evaluating contribution to one-electron hamiltonian from nuclear
 Smallest overlap matrix eigenvalue = 3.17E-04
 Multipole matrices computed through 2nd order

  Scale SEOQF with 1.000000e-01/1.000000e-01/1.000000e-01

 Standard Electronic Orientation quadrupole field applied
 Guess from superposition of atomic densities
 Warning:  Energy on first SCF cycle will be non-variational
 Long-range K will be added via erf
 Coulomb attenuation parameter = 0.41 bohr**(-1)
 An unrestricted Kohn-Sham SCF calculation will be
 performed using Pulay DIIS extrapolation
 Exchange:  wPBE + LR-HF      Correlation:  PBE
 Using SG-1 standard quadrature grid
 SCF converges when DIIS error is below 1.0E-05
 Requested basis set is G3large
 There are 95 shells and 330 basis functions
 A cutoff of  1.0D-08 yielded   3394 shell pairs
 There are  42765 function pairs ( 61004 Cartesian)
 Warning!  Inaccurate integrated density:
   Number of electrons =    81
   Numerical integral  =    81.999884338267
   Relative error      =     1.2344251090 %
 ---------------------------------------
  Cycle       Energy         DIIS Error
 ---------------------------------------
    1   -2130.3621853745      1.69E-02
    2   -2129.2772892975      2.70E-03
    3   -2129.3265017230      2.73E-03
    4   -2129.4151048387      2.61E-04
    5   -2129.4167349441      1.10E-04
    6   -2129.4173653388      5.55E-05
    7   -2129.4177155979      3.39E-05
    8   -2129.4179716984      2.45E-05
    9   -2129.4182556137      1.55E-05
   10   -2129.4183988337      1.13E-05
   11   -2129.4184724623      9.01E-06 Convergence criterion met
 ---------------------------------------
 One-Electron    Energy = -3939.7423216833
 Total Coulomb   Energy =  1434.3961413280
 Alpha Exchange  Energy =    -8.7548859364
 Beta  Exchange  Energy =    -8.4999522342
 DFT   Exchange  Energy =  -112.4778402298
 DFT Correlation Energy =    -3.1604462297
 Nuclear Repu.   Energy =   508.8208325231
 Nuclear Attr.   Energy = -6065.7755849287
 Kinetic         Energy =  2126.0332632453
 <S^2> = 0.7652
 SCF time:  CPU 688.53 s  wall 690.17 s
 Final Alpha MO Eigenvalues
            1           2           3           4           5           6
    1-101.1932728-101.1517352-101.1230223-101.0870963 -66.0002572  -9.7124150
            7           8           9          10          11          12
    1  -9.6715439  -9.6434781  -9.6083412  -7.5315448  -7.5249057  -7.5179893
           13          14          15          16          17          18
    1  -7.4876666  -7.4850531  -7.4781238  -7.4590265  -7.4558695  -7.4509959
           19          20          21          22          23          24
    1  -7.4253105  -7.4172600  -7.4168840  -5.6421684  -4.0453720  -4.0443226
           25          26          27          28          29          30
    1  -4.0434411  -1.2779773  -1.2339256  -1.2038826  -1.1704199  -0.8985641
           31          32          33          34          35          36
    1  -0.7953063  -0.7902637  -0.7663189  -0.7435398  -0.7235680  -0.7141306
           37          38          39          40          41          42
    1  -0.6922048  -0.6820169  -0.6771837  -0.6457709  -0.6401726  -0.1798687
           43          44          45          46
    1  -0.1170473  -0.1140618  -0.1114962  -0.0874619
 Final Beta MO Eigenvalues
            1           2           3           4           5           6
    1-101.1897013-101.1494717-101.1216774-101.0870668 -66.0003936  -9.7092087
            7           8           9          10          11          12
    1  -9.6695242  -9.6422825  -9.6083156  -7.5231467  -7.5220969  -7.5155440
           13          14          15          16          17          18
    1  -7.4847618  -7.4806286  -7.4768356  -7.4581298  -7.4525113  -7.4501453
           19          20          21          22          23          24
    1  -7.4253206  -7.4171378  -7.4168843  -5.6423713  -4.0456628  -4.0446345
           25          26          27          28          29          30
    1  -4.0435880  -1.2562369  -1.2131102  -1.1913886  -1.1687070  -0.8935553
           31          32          33          34          35          36
    1  -0.7875820  -0.7646527  -0.7622636  -0.7135013  -0.6873841  -0.6765902
           37          38          39          40          41          42
    1  -0.6564709  -0.6523316  -0.6383624  -0.6362190  -0.4519525  -0.1762604
           43          44          45
    1  -0.1140374  -0.1106825  -0.1080963
 Analysis of SCF Wavefunction
 
 --------------------------------------------------------------
                    Orbital Energies (a.u.)
 --------------------------------------------------------------
 
 Alpha MOs
 -- Occupied --
*******-101.152-101.123-101.087 -66.000  -9.712  -9.672  -9.643
 -9.608  -7.532  -7.525  -7.518  -7.488  -7.485  -7.478  -7.459
 -7.456  -7.451  -7.425  -7.417  -7.417  -5.642  -4.045  -4.044
 -4.043  -1.278  -1.234  -1.204  -1.170  -0.899  -0.795  -0.790
 -0.766  -0.744  -0.724  -0.714  -0.692  -0.682  -0.677  -0.646
 -0.640
 -- Virtual --
 -0.180  -0.117  -0.114  -0.111  -0.087  -0.049  -0.048  -0.045
 -0.011  -0.008  -0.002  -0.001   0.000   0.016   0.022   0.028
  0.035   0.037   0.041   0.044   0.045   0.047   0.068   0.071
  0.075   0.078   0.114   0.118   0.124   0.170   0.173   0.193
  0.194   0.199   0.203   0.218   0.223   0.247   0.251   0.260
  0.261   0.274   0.286   0.317   0.360   0.367   0.368   0.381
  0.384   0.392   0.394   0.395   0.414   0.461   0.472   0.473
  0.474   0.477   0.496   0.507   0.556   0.559   0.560   0.571
  0.571   0.671   0.687   0.692   0.694   0.729   0.734   0.761
  0.771   0.775   0.799   0.799   0.803   0.945   0.946   0.951
  0.961   0.968   0.975   0.977   0.986   0.991   1.001   1.008
  1.013   1.021   1.027   1.033   1.045   1.054   1.062   1.075
  1.081   1.086   1.094   1.100   1.103   1.114   1.118   1.122
  1.181   1.190   1.203   1.225   1.228   1.229   1.325   1.343
  1.356   1.410   1.425   1.432   1.446   1.475   1.481   1.484
  1.521   1.528   1.535   1.555   1.560   1.561   1.666   1.703
  1.705   1.788   1.802   1.815   2.005   2.060   2.071   2.099
  2.116   2.119   2.121   2.130   2.135   2.237   2.243   2.250
  2.275   2.285   2.290   2.372   2.394   2.414   2.552   3.506
  3.507   3.767   3.775   3.781   4.177   4.179   4.214   4.223
  4.233   4.240   4.253   4.256   4.272   4.296   4.299   4.310
  4.324   4.325   4.341   4.349   4.374   4.399   4.411   4.415
  4.429   4.438   4.441   4.452   4.456   4.464   4.479   4.481
  4.856   4.858   4.896   4.898   4.920   4.921   4.941   4.947
  4.999   5.006   5.025   5.045   5.061   5.079   5.087   5.168
  5.172   5.182   5.210   5.238   6.060   9.614   9.653   9.687
  9.818  11.363  11.365  11.367  17.294  17.373  17.374  17.454
 17.513  20.312  20.319  20.357  20.380  20.394  20.428  20.453
 20.459  20.584  20.622  20.648  20.681  21.862  21.862  21.868
 21.871  21.872  21.873  21.884  26.807  26.857  26.876  26.886
 26.901  26.908  26.924  26.931  26.938  26.948  26.956  26.966
 26.974  26.986  27.008  27.015  27.022  27.036  27.051  27.084
 36.521  36.522  36.533  36.535  36.541  36.545  36.550  36.563
 36.566  36.573  36.576  36.584  36.585  36.587  36.593  36.595
 36.604  36.606  36.611  36.614  36.615  36.630  36.633  36.639
 36.641  36.646  36.648  36.650 140.985 215.505 215.546 215.582
215.739
 
 Beta MOs
 -- Occupied --
*******-101.149-101.122-101.087 -66.000  -9.709  -9.670  -9.642
 -9.608  -7.523  -7.522  -7.516  -7.485  -7.481  -7.477  -7.458
 -7.453  -7.450  -7.425  -7.417  -7.417  -5.642  -4.046  -4.045
 -4.044  -1.256  -1.213  -1.191  -1.169  -0.894  -0.788  -0.765
 -0.762  -0.714  -0.687  -0.677  -0.656  -0.652  -0.638  -0.636
 -- Virtual --
 -0.452  -0.176  -0.114  -0.111  -0.108  -0.087  -0.048  -0.047
 -0.045  -0.009  -0.006  -0.002   0.000   0.001   0.017   0.029
  0.032   0.036   0.039   0.042   0.044   0.046   0.048   0.068
  0.075   0.077   0.078   0.120   0.121   0.125   0.187   0.187
  0.200   0.201   0.204   0.206   0.223   0.227   0.252   0.256
  0.262   0.271   0.278   0.288   0.318   0.369   0.371   0.372
  0.385   0.388   0.394   0.395   0.398   0.414   0.465   0.475
  0.476   0.476   0.489   0.499   0.508   0.560   0.561   0.563
  0.571   0.572   0.672   0.687   0.693   0.697   0.734   0.737
  0.763   0.772   0.776   0.803   0.803   0.805   0.956   0.960
  0.962   0.967   0.974   0.979   0.988   0.992   1.001   1.009
  1.014   1.018   1.027   1.031   1.037   1.050   1.065   1.067
  1.080   1.090   1.092   1.100   1.104   1.109   1.118   1.121
  1.124   1.187   1.195   1.206   1.230   1.232   1.232   1.334
  1.346   1.359   1.418   1.430   1.435   1.447   1.482   1.484
  1.487   1.526   1.531   1.537   1.562   1.563   1.566   1.669
  1.708   1.708   1.791   1.804   1.816   2.005   2.077   2.079
  2.113   2.117   2.119   2.120   2.133   2.138   2.240   2.250
  2.256   2.277   2.284   2.289   2.375   2.396   2.415   2.553
  3.506   3.507   3.767   3.774   3.780   4.208   4.212   4.234
  4.242   4.249   4.256   4.265   4.267   4.278   4.299   4.315
  4.323   4.331   4.336   4.349   4.353   4.385   4.412   4.416
  4.425   4.435   4.447   4.449   4.455   4.460   4.466   4.482
  4.485   4.865   4.869   4.902   4.903   4.923   4.925   4.943
  4.949   5.001   5.012   5.029   5.049   5.062   5.080   5.090
  5.171   5.174   5.184   5.211   5.239   6.060   9.620   9.657
  9.689   9.820  11.363  11.364  11.366  17.294  17.373  17.374
 17.454  17.513  20.323  20.324  20.365  20.384  20.397  20.430
 20.455  20.461  20.586  20.624  20.649  20.681  21.862  21.862
 21.868  21.871  21.872  21.873  21.884  26.815  26.862  26.879
 26.894  26.905  26.911  26.926  26.936  26.941  26.950  26.958
 26.969  26.977  26.988  27.009  27.016  27.023  27.037  27.051
 27.084  36.525  36.525  36.537  36.538  36.544  36.546  36.551
 36.566  36.568  36.575  36.577  36.585  36.586  36.588  36.595
 36.596  36.605  36.607  36.611  36.614  36.615  36.630  36.633
 36.639  36.641  36.646  36.648  36.650 140.985 215.508 215.548
215.583 215.740
 --------------------------------------------------------------
 
          Ground-State Mulliken Net Atomic Charges

     Atom                 Charge (a.u.)    Spin (a.u.)
  --------------------------------------------------------
      1 Si                    1.456338      -0.095324
      2 Cl                    0.029162       0.550755
      3 Cl                   -0.158234       0.196854
      4 Cl                   -0.082881       0.341229
      5 Cl                   -0.244386       0.006485
  --------------------------------------------------------
  Sum of atomic charges =     1.000000
  Sum of spin   charges =     1.000000

 -----------------------------------------------------------------
                    Cartesian Multipole Moments
 -----------------------------------------------------------------
    Charge (ESU x 10^10)
                 4.8032
    Dipole Moment (Debye)
         X       0.0832      Y       1.3509      Z       1.8952
       Tot       2.3289
    Quadrupole Moments (Debye-Ang)
        XX     -51.7394     XY      -1.9782     YY     -51.9781
        XZ      -0.1161     YZ      -1.3592     ZZ     -46.7786
    Octapole Moments (Debye-Ang^2)
       XXX      10.4278    XXY       1.7165    XYY     -10.0088
       YYY       5.1240    XXZ      -5.6868    XYZ      -0.2329
       YYZ      -6.1399    XZZ       0.2506    YZZ       1.7575
       ZZZ      23.4604
    Hexadecapole Moments (Debye-Ang^3)
      XXXX    -431.7748   XXXY      -4.9975   XXYY    -143.8785
      XYYY      -5.3825   YYYY    -433.5360   XXXZ     -12.0090
      XXYZ      -1.1917   XYYZ      11.3445   YYYZ      -3.8707
      XXZZ    -146.2663   XYZZ      -3.4912   YYZZ    -146.0274
      XZZZ      -0.0182   YZZZ      -5.1568   ZZZZ    -393.3486
 -----------------------------------------------------------------
 Total job time:  690.85s(wall), 689.19s(cpu) 
 Tue Jun  4 17:08:07 2013

        *************************************************************
        *                                                           *
        *  Thank you very much for using Q-Chem.  Have a nice day.  *
        *                                                           *
        *************************************************************


0 sent ACK to 0 
now end server 0 ... 
