Process 0 of 1 is on cl066.stfx.acenet.ca - thread support 1
initial socket setup ...start
initial socket setup ...done 
now start server 0 ... 

cmd = /usr/bin/ssh clhead /usr/local/qchem/bin/get_hostid 575492913 > /scratch/tmp/6067181.1.short.q/qchem30100/lic.dat
                  Welcome to Q-Chem
     A Quantum Leap Into The Future Of Chemistry

 Y. Shao, L. Fusti-Molnar, Y. Jung, J. Kussmann, C. Ochsenfeld,
 S. T. Brown, A. T. B. Gilbert, L. V. Slipchenko,S. V. Levchenko,
 D. P. O'Neill, R. A. DiStasio Jr., R. C. Lochan, T. Wang,
 G. J. O. Beran, N. A. Besley, J. M. Herbert, C. Y. Lin,
 T. Van Voorhis, S. H. Chien, A. Sodt, R. P. Steele, 
 V. A. Rassolov, P. E. Maslen, P. P. Korambath, R. D. Adamson,
 B. Austin, J. Baker, E. F. C. Byrd, H. Dachsel, R. J. Doerksen,
 A. Dreuw, B. D. Dunietz, A. D. Dutoi, T. R. Furlani,
 S. R. Gwaltney, A. Heyden, S. Hirata, C.-P. Hsu, G. Kedziora,
 R. Z. Khaliullin, P. Klunzinger, A. M. Lee, M. S. Lee, W. Liang,
 I. Lotan, N. Nair, B. Peters, E. I. Proynov, P. A. Pieniazek, 
 Y. M. Rhee, J. Ritchie, E. Rosta, C. D. Sherrill, 
 A. C. Simmonett, J. E. Subotnik, H. L. Woodcock III,
 W. Zhang, A. T. Bell, A. K. Chakraborty, D. M. Chipman,
 F. J. Keil, A. Warshel, W. J. Hehre, H. F. Schaefer III,
 J. Kong, A. I. Krylov, P. M. W. Gill, M. Head-Gordon,
 Q-Chem, Version 3.1, Q-Chem, Inc., Pittsburgh, PA (2007).

 Additional authors for Version 3.1: 
 Z. Gan, Y. Zhao, N. E. Schultz, D. Truhlar, E. Epifanovsky and M. Oana.

 Additional authors for Version 3.2: 
 R. Baer, B. R. Brooks, D. Casanova, J.-D. Chai, C.-L. Cheng, 
 C. Cramer, D. Crittenden, A. Ghysels, G. Hawkins, E. G. Hohenstein, 
 C. Kelley, W. Kurlancheek, D. Liotard, E. Livshits, P. Manohar, 
 A. Marenich, D. Neuhauser, R. Olson, M. A. Rohrdanz, K. S. Thanthiriwatte, 
 A. J. W. Thom, V. Vanovschi, C. F. Williams, Q. Wu and Z.-Q. You. 


 Intel X86 Linux Version

 Q-chem begins on Wed Jul 24 16:39:23 2013  

 Parallel job on  1  processors
Processing $rem in /usr/local/qchem/config/preferences.

theFileMan(): MAXOPENFILES=974 MAX_SUB_FILE_NUM=16
Maximum size of a physical file is 2.0 GB, maximum size of a tmp-file is 32.0 GB


--------------------------------------------------------------
User input:
--------------------------------------------------------------

$molecule
0,2
C
S,1,R
H,1,ch1,2,hcs
X,1,1.,2,alpha,3,180.,0
H,1,ch,4,hch2,3,90.,0
H,1,ch,4,hch2,3,-90.,0

R=1.81256567
ch=1.09351119
hcs=106.82996657
ch1=1.09887196
hch2=55.32746965
alpha=130.50070297

$end


$comment
b3lyp opt
$end

$rem
   EXCHANGE B3LYP
   UNRESTRICTED TRUE
   SYMMETRY_DECOMPOSITION	0
   BASIS                   g3large
   JOBTYPE                 opt
   mem_static              760
   max_scf_cycles          200
   scf_final_print         1
   sym_ignore              true
$end


--------------------------------------------------------------
 Writing REM_CC_EA            5
 ----------------------------------------------------
       Standard Nuclear Orientation (Angstroms)
    I     Atom         X            Y            Z
 ----------------------------------------------------
    1      C       0.000000     0.000000     0.000000
    2      S       0.000000     0.000000     1.812566
    3      H       1.051805     0.000000    -0.318159
    4      H      -0.473030     0.899322    -0.404016
    5      H      -0.473030    -0.899322    -0.404016
 ----------------------------------------------------
 Nuclear Repulsion Energy =    48.1227557371 hartrees
 There are       13 alpha and       12 beta electrons
 Requested basis set is G3large
 There are 47 shells and 138 basis functions

Total QAlloc Memory Limit   2000 MB
Mega-Array Size       743 MB
MEM_STATIC part       760 MB
 A cutoff of  1.0D-11 yielded   1110 shell pairs
 There are   9649 function pairs ( 12538 Cartesian)
Evaluating contribution to one-electron hamiltonian from nuclear
 Smallest overlap matrix eigenvalue = 4.38E-04
 Multipole matrices computed through 2nd order

  Scale SEOQF with 1.000000e-01/1.000000e-01/1.000000e-01

 Standard Electronic Orientation quadrupole field applied
 Nucleus-field energy     =    -0.0000000055 hartrees
 Guess from superposition of atomic densities
 Warning:  Energy on first SCF cycle will be non-variational
 An unrestricted hybrid HF-DFT SCF calculation will be
 performed using Pulay DIIS extrapolation
 Exchange:     0.2000 Hartree-Fock + 0.0800 Slater + 0.7200 Becke88
 Correlation:  0.8100 LYP + 0.1900 VWN1RPA
 Using SG-1 standard quadrature grid
 SCF converges when DIIS error is below 1.0E-08
 ---------------------------------------
  Cycle       Energy         DIIS Error
 ---------------------------------------
    1    -438.1657829337      2.85E-02
    2    -438.0670788052      4.02E-03
    3    -438.0486937737      4.78E-03
    4    -438.1072359698      5.94E-04
    5    -438.1081178075      1.13E-04
    6    -438.1081657310      2.81E-05
    7    -438.1081798408      1.51E-05
    8    -438.1081927803      1.29E-05
    9    -438.1082084335      1.27E-05
   10    -438.1082407931      1.26E-05
   11    -438.1083227594      1.27E-05
   12    -438.1082927839      1.24E-05
   13    -438.1083066913      1.23E-05
   14    -438.1083246536      1.22E-05
   15    -438.1083658674      1.20E-05
   16    -438.1085640280      3.01E-05
   17    -438.1082616689      2.90E-05
   18    -438.1085854785      1.82E-04
   19    -438.1085868734      1.81E-04
   20    -438.1087686673      3.56E-05
   21    -438.1087794148      1.68E-05
   22    -438.1087823774      6.69E-06
   23    -438.1087852934      5.84E-06
   24    -438.1087873136      5.46E-06
   25    -438.1087905728      5.31E-06
   26    -438.1088142626      4.83E-06
   27    -438.1088529131      2.13E-05
   28    -438.1088490090      9.47E-06
   29    -438.1088572093      2.67E-05
   30    -438.1088595096      1.70E-05
   31    -438.1088611936      1.98E-06
   32    -438.1088612208      1.08E-07
   33    -438.1088612209      8.18E-08
   34    -438.1088612212      7.48E-09 Convergence criterion met
 ---------------------------------------
 One-Electron    Energy =  -698.3954798979
 Total Coulomb   Energy =   244.3863903036
 Alpha Exchange  Energy =    -3.1718331404
 Beta  Exchange  Energy =    -3.0764462285
 DFT   Exchange  Energy =   -24.7923696011
 DFT Correlation Energy =    -1.1818783885
 Nuclear Repu.   Energy =    48.1227557316
 Nuclear Attr.   Energy = -1135.6782523309
 Kinetic         Energy =   437.2827724330
 <S^2> = 0.7542
 SCF time:  CPU 151.12 s  wall 152.20 s
 Final Alpha MO Eigenvalues
            1           2           3           4           5           6
    1 -88.8663113 -10.2070543  -7.9492488  -5.9193515  -5.9094542  -5.9018211
            7           8           9          10          11          12
    1  -0.7847915  -0.6372126  -0.4468476  -0.4416334  -0.3753448  -0.2894346
           13          14          15          16          17          18
    1  -0.2493410  -0.0142183   0.0149762   0.0279672   0.0293973   0.0625164
 Final Beta MO Eigenvalues
            1           2           3           4           5           6
    1 -88.8605517 -10.2071967  -7.9440026  -5.9065021  -5.9007616  -5.8988912
            7           8           9          10          11          12
    1  -0.7691101  -0.6100520  -0.4401128  -0.4344974  -0.3651544  -0.2374319
           13          14          15          16          17
    1  -0.1556245  -0.0126260   0.0194119   0.0292308   0.0294478
 Analysis of SCF Wavefunction
 
 --------------------------------------------------------------
                    Orbital Energies (a.u.)
 --------------------------------------------------------------
 
 Alpha MOs
 -- Occupied --
-88.866 -10.207  -7.949  -5.919  -5.909  -5.902  -0.785  -0.637
 -0.447  -0.442  -0.375  -0.289  -0.249
 -- Virtual --
 -0.014   0.015   0.028   0.029   0.063   0.079   0.082   0.085
  0.087   0.093   0.125   0.144   0.158   0.162   0.229   0.233
  0.265   0.271   0.284   0.349   0.363   0.395   0.412   0.413
  0.429   0.537   0.543   0.561   0.622   0.685   0.689   0.695
  0.800   0.840   0.851   0.860   0.886   0.892   0.902   0.911
  0.979   0.979   1.021   1.084   1.087   1.155   1.205   1.212
  1.243   1.254   1.275   1.375   1.378   1.399   1.440   1.452
  1.559   1.801   1.843   2.015   2.411   2.418   2.522   2.901
  2.902   2.974   2.976   3.113   3.132   3.155   3.197   3.227
  3.442   3.452   3.476   3.497   3.500   3.506   3.537   3.583
  3.608   3.765   3.835   3.836   3.930   4.110   4.111   4.292
  4.296   4.301   4.387   4.524   4.524   4.722   4.764   4.978
  5.270   5.576   5.581   8.244  17.097  17.119  17.365  23.468
 23.546  23.595  23.609  23.659  24.105  27.853  28.050  28.075
 30.957  30.959  30.964  30.965  30.971  30.978  30.994  40.952
 40.978  41.167  41.194  41.245 189.419
 
 Beta MOs
 -- Occupied --
-88.861 -10.207  -7.944  -5.907  -5.901  -5.899  -0.769  -0.610
 -0.440  -0.434  -0.365  -0.237
 -- Virtual --
 -0.156  -0.013   0.019   0.029   0.029   0.066   0.083   0.086
  0.087   0.091   0.095   0.126   0.147   0.161   0.163   0.249
  0.254   0.271   0.294   0.294   0.353   0.367   0.414   0.415
  0.423   0.431   0.541   0.543   0.567   0.623   0.690   0.690
  0.704   0.808   0.858   0.866   0.869   0.903   0.909   0.916
  0.929   1.009   1.011   1.030   1.086   1.093   1.159   1.216
  1.220   1.253   1.267   1.278   1.377   1.385   1.404   1.445
  1.453   1.562   1.842   1.849   2.020   2.417   2.420   2.526
  2.903   2.904   2.976   2.979   3.119   3.136   3.156   3.203
  3.229   3.477   3.490   3.497   3.507   3.525   3.533   3.540
  3.609   3.610   3.770   3.836   3.842   3.934   4.115   4.115
  4.297   4.301   4.304   4.390   4.537   4.539   4.737   4.766
  4.981   5.278   5.578   5.586   8.255  17.122  17.122  17.369
 23.479  23.556  23.606  23.611  23.664  24.105  27.853  28.051
 28.074  30.962  30.964  30.968  30.969  30.974  30.979  30.995
 40.952  40.979  41.167  41.194  41.245 189.424
 --------------------------------------------------------------
 
          Ground-State Mulliken Net Atomic Charges

     Atom                 Charge (a.u.)    Spin (a.u.)
  --------------------------------------------------------
      1 C                    -0.165654      -0.026800
      2 S                    -0.190102       0.971898
      3 H                     0.120269       0.033953
      4 H                     0.117743       0.010475
      5 H                     0.117743       0.010475
  --------------------------------------------------------
  Sum of atomic charges =     0.000000
  Sum of spin   charges =     1.000000

 -----------------------------------------------------------------
                    Cartesian Multipole Moments
 -----------------------------------------------------------------
    Charge (ESU x 10^10)
                 0.0000
    Dipole Moment (Debye)
         X       0.0691      Y       0.0000      Z      -1.7183
       Tot       1.7197
    Quadrupole Moments (Debye-Ang)
        XX     -19.4217     XY       0.0000     YY     -21.9274
        XZ      -0.0794     YZ       0.0000     ZZ     -23.4455
    Octapole Moments (Debye-Ang^2)
       XXX       0.5916    XXY       0.0000    XYY      -0.8226
       YYY       0.0000    XXZ     -22.5026    XYZ       0.0000
       YYZ     -27.3489    XZZ      -0.2147    YZZ       0.0000
       ZZZ     -72.6079
    Hexadecapole Moments (Debye-Ang^3)
      XXXX     -30.2320   XXXY       0.0000   XXYY     -11.4698
      XYYY       0.0000   YYYY     -37.8096   XXXZ      -0.6051
      XXYZ       0.0000   XYYZ       0.1751   YYYZ       0.0000
      XXZZ     -52.1367   XYZZ       0.0000   YYZZ     -62.4078
      XZZZ      -0.3405   YZZZ       0.0000   ZZZZ    -289.8713
 -----------------------------------------------------------------
 Calculating analytic gradient of the SCF energy
 Gradient of XC Energy
            1           2           3           4           5
    1  -0.0113064  -0.0014707   0.1781721  -0.0826975  -0.0826975
    2   0.0000000  -0.0000000  -0.0000000   0.1569314  -0.1569314
    3   0.0832976   0.1423815  -0.0655842  -0.0800474  -0.0800475
 Gradient of SCF Energy
            1           2           3           4           5
    1   0.0002479  -0.0001162   0.0029546  -0.0015431  -0.0015431
    2   0.0000000  -0.0000000  -0.0000000   0.0027144  -0.0027144
    3  -0.0006497   0.0059573  -0.0015936  -0.0018570  -0.0018570
 Max gradient component =       5.957E-03
 RMS gradient           =       2.216E-03
 Gradient time:  CPU 17.21 s  wall 17.26 s
 Geometry Optimization Parameters
   NAtoms,    NIC,     NZ,  NCons,   NDum,   NFix, NCnnct, MaxDiis
        5      20       6       0       0       0       0       0


** GEOMETRY OPTIMIZATION IN DELOCALIZED INTERNAL COORDINATES **
   Searching for a Minimum

   Optimization Cycle:   1

                       Coordinates (Angstroms)
     ATOM              X           Y           Z
    1  C           0.000000    0.000000    0.000000
    2  S           0.000000    0.000000    1.812566
    3  H           1.051805    0.000000   -0.318159
    4  H          -0.473030    0.899322   -0.404016
    5  H          -0.473030   -0.899322   -0.404016
   Point Group: c1    Number of degrees of freedom:   9


   Energy is   -438.108861221


 Attempting to Generate Delocalized Internal Coordinates

  8 Hessian modes will be used to form the next step
  Hessian Eigenvalues:
     0.160000    0.160000    0.160000    0.160000    0.160000    0.251513
     0.338072    0.344100

 Minimum Search - Taking Simple RFO Step
 Searching for Lamda that Minimizes Along All modes
 Value Taken    Lamda =  -0.00026292
 Step Taken.  Stepsize is  0.031067

                             Maximum     Tolerance    Cnvgd?
         Gradient           0.008243      0.000300      NO
         Displacement       0.027272      0.001200      NO
         Energy change     *********      0.000001      NO


 New Cartesian Coordinates Obtained by Inverse Iteration

 Displacement from previous Coordinates is:  0.032411
 Writing REM_CC_EA            5
 ----------------------------------------------------
       Standard Nuclear Orientation (Angstroms)
    I     Atom         X            Y            Z
 ----------------------------------------------------
    1      C      -0.000571     0.000000    -0.000948
    2      S       0.000875     0.000000     1.799096
    3      H       1.047756     0.000000    -0.312793
    4      H      -0.471158     0.896358    -0.399490
    5      H      -0.471158    -0.896358    -0.399490
 ----------------------------------------------------
 Nuclear Repulsion Energy =    48.4433311325 hartrees
 There are       13 alpha and       12 beta electrons
 Applying Cartesian multipole field
    Component          Value
    ---------          -----
     (2,0,0)        1.00000E-11
     (0,2,0)        2.00000E-11
     (0,0,2)       -3.00000E-11
 Nucleus-field energy     =    -0.0000000054 hartrees
 Requested basis set is G3large
 There are 47 shells and 138 basis functions
 A cutoff of  1.0D-11 yielded   1110 shell pairs
 There are   9649 function pairs ( 12538 Cartesian)
Evaluating contribution to one-electron hamiltonian from nuclear
 Smallest overlap matrix eigenvalue = 4.24E-04
 Multipole matrices computed through 2nd order
 Guess MOs from SCF MO coefficient file
Reading MOs from coefficient file
Reading MOs from coefficient file
 An unrestricted hybrid HF-DFT SCF calculation will be
 performed using Pulay DIIS extrapolation
 Exchange:     0.2000 Hartree-Fock + 0.0800 Slater + 0.7200 Becke88
 Correlation:  0.8100 LYP + 0.1900 VWN1RPA
 Using SG-1 standard quadrature grid
 SCF converges when DIIS error is below 1.0E-08
 ---------------------------------------
  Cycle       Energy         DIIS Error
 ---------------------------------------
    1    -438.1173916726      3.26E-04
    2    -438.1089748565      9.01E-05
    3    -438.1089675702      1.13E-04
    4    -438.1089985131      1.09E-05
    5    -438.1089987408      2.86E-06
    6    -438.1089987636      3.87E-07
    7    -438.1089987654      1.59E-07
    8    -438.1089987650      2.96E-08
    9    -438.1089987646      1.42E-08
   10    -438.1089987646      2.59E-09 Convergence criterion met
 ---------------------------------------
 One-Electron    Energy =  -699.0307531550
 Total Coulomb   Energy =   244.7113696744
 Alpha Exchange  Energy =    -3.1729495401
 Beta  Exchange  Energy =    -3.0774738468
 DFT   Exchange  Energy =   -24.8000181763
 DFT Correlation Energy =    -1.1825048478
 Nuclear Repu.   Energy =    48.4433311271
 Nuclear Attr.   Energy = -1136.3525856533
 Kinetic         Energy =   437.3218324982
 <S^2> = 0.7542
 SCF time:  CPU 42.06 s  wall 42.32 s
 Final Alpha MO Eigenvalues
            1           2           3           4           5           6
    1 -88.8651791 -10.2049290  -7.9483596  -5.9184451  -5.9085124  -5.9009419
            7           8           9          10          11          12
    1  -0.7880551  -0.6368234  -0.4492279  -0.4439848  -0.3760559  -0.2885907
           13          14          15          16          17          18
    1  -0.2487106  -0.0136733   0.0162812   0.0279831   0.0294032   0.0627410
 Final Beta MO Eigenvalues
            1           2           3           4           5           6
    1 -88.8594300 -10.2050503  -7.9431219  -5.9055743  -5.8998813  -5.8980163
            7           8           9          10          11          12
    1  -0.7725056  -0.6096469  -0.4424139  -0.4365807  -0.3657354  -0.2368231
           13          14          15          16          17
    1  -0.1550174  -0.0121767   0.0205933   0.0292786   0.0294566
 Analysis of SCF Wavefunction
 
 --------------------------------------------------------------
                    Orbital Energies (a.u.)
 --------------------------------------------------------------
 
 Alpha MOs
 -- Occupied --
-88.865 -10.205  -7.948  -5.918  -5.909  -5.901  -0.788  -0.637
 -0.449  -0.444  -0.376  -0.289  -0.249
 -- Virtual --
 -0.014   0.016   0.028   0.029   0.063   0.079   0.083   0.086
  0.087   0.093   0.126   0.145   0.158   0.163   0.230   0.233
  0.266   0.272   0.284   0.348   0.364   0.395   0.412   0.412
  0.430   0.538   0.544   0.564   0.624   0.686   0.692   0.699
  0.800   0.840   0.851   0.861   0.886   0.892   0.904   0.913
  0.980   0.980   1.021   1.087   1.090   1.158   1.207   1.215
  1.244   1.257   1.278   1.381   1.384   1.400   1.442   1.454
  1.565   1.803   1.845   2.018   2.413   2.418   2.516   2.902
  2.907   2.972   2.975   3.116   3.134   3.158   3.197   3.226
  3.442   3.453   3.476   3.495   3.499   3.508   3.542   3.594
  3.619   3.775   3.847   3.849   3.946   4.118   4.119   4.303
  4.305   4.309   4.403   4.526   4.526   4.732   4.777   4.981
  5.291   5.597   5.602   8.254  17.099  17.121  17.371  23.469
 23.547  23.599  23.614  23.663  24.134  27.869  28.059  28.084
 30.958  30.960  30.965  30.966  30.972  30.980  30.996  40.956
 40.984  41.170  41.197  41.252 189.427
 
 Beta MOs
 -- Occupied --
-88.859 -10.205  -7.943  -5.906  -5.900  -5.898  -0.773  -0.610
 -0.442  -0.437  -0.366  -0.237
 -- Virtual --
 -0.155  -0.012   0.021   0.029   0.029   0.066   0.083   0.086
  0.088   0.091   0.095   0.126   0.148   0.162   0.164   0.250
  0.255   0.273   0.294   0.295   0.352   0.367   0.413   0.415
  0.424   0.431   0.542   0.544   0.570   0.626   0.690   0.694
  0.709   0.808   0.859   0.867   0.868   0.903   0.910   0.918
  0.931   1.010   1.012   1.030   1.089   1.095   1.162   1.218
  1.222   1.255   1.270   1.282   1.382   1.391   1.405   1.446
  1.455   1.568   1.843   1.851   2.023   2.419   2.420   2.520
  2.904   2.909   2.975   2.978   3.121   3.137   3.159   3.204
  3.229   3.476   3.490   3.496   3.505   3.526   3.535   3.544
  3.619   3.621   3.780   3.848   3.854   3.950   4.123   4.123
  4.308   4.310   4.312   4.406   4.539   4.541   4.747   4.778
  4.984   5.299   5.599   5.606   8.264  17.124  17.124  17.375
 23.480  23.557  23.610  23.615  23.668  24.134  27.868  28.059
 28.083  30.963  30.965  30.969  30.969  30.975  30.980  30.998
 40.956  40.985  41.170  41.197  41.252 189.432
 --------------------------------------------------------------
 
          Ground-State Mulliken Net Atomic Charges

     Atom                 Charge (a.u.)    Spin (a.u.)
  --------------------------------------------------------
      1 C                    -0.170957      -0.025974
      2 S                    -0.190029       0.970111
      3 H                     0.122229       0.034607
      4 H                     0.119379       0.010628
      5 H                     0.119379       0.010628
  --------------------------------------------------------
  Sum of atomic charges =     0.000000
  Sum of spin   charges =     1.000000

 -----------------------------------------------------------------
                    Cartesian Multipole Moments
 -----------------------------------------------------------------
    Charge (ESU x 10^10)
                 0.0000
    Dipole Moment (Debye)
         X       0.0690      Y       0.0000      Z      -1.7278
       Tot       1.7291
    Quadrupole Moments (Debye-Ang)
        XX     -19.3958     XY       0.0000     YY     -21.8967
        XZ      -0.0829     YZ       0.0000     ZZ     -23.4784
    Octapole Moments (Debye-Ang^2)
       XXX       0.5620    XXY       0.0000    XYY      -0.8294
       YYY       0.0000    XXZ     -22.3494    XYZ       0.0000
       YYZ     -27.1563    XZZ      -0.2284    YZZ       0.0000
       ZZZ     -72.2068
    Hexadecapole Moments (Debye-Ang^3)
      XXXX     -30.1012   XXXY       0.0000   XXYY     -11.4251
      XYYY       0.0000   YYYY     -37.6709   XXXZ      -0.6581
      XXYZ       0.0000   XYYZ       0.1347   YYYZ       0.0000
      XXZZ     -51.5503   XYZZ       0.0000   YYZZ     -61.6946
      XZZZ      -0.4134   YZZZ       0.0000   ZZZZ    -286.3261
 -----------------------------------------------------------------
 Calculating analytic gradient of the SCF energy
 Gradient of XC Energy
            1           2           3           4           5
    1  -0.0114650  -0.0013490   0.1788559  -0.0830209  -0.0830210
    2   0.0000000  -0.0000000   0.0000000   0.1578375  -0.1578375
    3   0.0806505   0.1422654  -0.0644882  -0.0792138  -0.0792138
 Gradient of SCF Energy
            1           2           3           4           5
    1   0.0004362  -0.0000937  -0.0000730  -0.0001348  -0.0001348
    2   0.0000000  -0.0000000  -0.0000000   0.0000256  -0.0000256
    3  -0.0012055   0.0006464   0.0001426   0.0002083   0.0002083
 Max gradient component =       1.206E-03
 RMS gradient           =       3.847E-04
 Gradient time:  CPU 16.82 s  wall 16.85 s
 Geometry Optimization Parameters
   NAtoms,    NIC,     NZ,  NCons,   NDum,   NFix, NCnnct, MaxDiis
        5      20       6       0       0       0       0       0

 Cartesian Hessian Update
 Hessian Updated using BFGS Update


** GEOMETRY OPTIMIZATION IN DELOCALIZED INTERNAL COORDINATES **
   Searching for a Minimum

   Optimization Cycle:   2

                       Coordinates (Angstroms)
     ATOM              X           Y           Z
    1  C          -0.000571    0.000000   -0.000948
    2  S           0.000875    0.000000    1.799096
    3  H           1.047756    0.000000   -0.312793
    4  H          -0.471158    0.896358   -0.399490
    5  H          -0.471158   -0.896358   -0.399490
   Point Group: c1    Number of degrees of freedom:   9


   Energy is   -438.108998765

 Hessian Updated using BFGS Update

  5 Hessian modes will be used to form the next step
  Hessian Eigenvalues:
     0.158087    0.164966    0.230079    0.339912    0.352774

 Minimum Search - Taking Simple RFO Step
 Searching for Lamda that Minimizes Along All modes
 Value Taken    Lamda =  -0.00000424
 Step Taken.  Stepsize is  0.004863

                             Maximum     Tolerance    Cnvgd?
         Gradient           0.000706      0.000300      NO
         Displacement       0.003584      0.001200      NO
         Energy change     -0.000138      0.000001      NO


 New Cartesian Coordinates Obtained by Inverse Iteration

 Displacement from previous Coordinates is:  0.004012
 Writing REM_CC_EA            5
 ----------------------------------------------------
       Standard Nuclear Orientation (Angstroms)
    I     Atom         X            Y            Z
 ----------------------------------------------------
    1      C      -0.001364     0.000000     0.000101
    2      S       0.001535     0.000000     1.798547
    3      H       1.046924     0.000000    -0.312248
    4      H      -0.470675     0.896224    -0.400013
    5      H      -0.470675    -0.896224    -0.400013
 ----------------------------------------------------
 Nuclear Repulsion Energy =    48.4716213975 hartrees
 There are       13 alpha and       12 beta electrons
 Applying Cartesian multipole field
    Component          Value
    ---------          -----
     (2,0,0)        1.00000E-11
     (0,2,0)        2.00000E-11
     (0,0,2)       -3.00000E-11
 Nucleus-field energy     =    -0.0000000054 hartrees
 Requested basis set is G3large
 There are 47 shells and 138 basis functions
 A cutoff of  1.0D-11 yielded   1110 shell pairs
 There are   9649 function pairs ( 12538 Cartesian)
Evaluating contribution to one-electron hamiltonian from nuclear
 Smallest overlap matrix eigenvalue = 4.22E-04
 Multipole matrices computed through 2nd order
 Guess MOs from SCF MO coefficient file
Reading MOs from coefficient file
Reading MOs from coefficient file
 An unrestricted hybrid HF-DFT SCF calculation will be
 performed using Pulay DIIS extrapolation
 Exchange:     0.2000 Hartree-Fock + 0.0800 Slater + 0.7200 Becke88
 Correlation:  0.8100 LYP + 0.1900 VWN1RPA
 Using SG-1 standard quadrature grid
 SCF converges when DIIS error is below 1.0E-08
 ---------------------------------------
  Cycle       Energy         DIIS Error
 ---------------------------------------
    1    -438.1096173115      5.22E-05
    2    -438.1090015245      5.77E-06
    3    -438.1090015816      5.01E-06
    4    -438.1090016392      4.91E-07
    5    -438.1090016411      2.36E-07
    6    -438.1090016420      1.31E-07
    7    -438.1090016424      4.45E-08
    8    -438.1090016421      9.39E-09 Convergence criterion met
 ---------------------------------------
 One-Electron    Energy =  -699.0867313859
 Total Coulomb   Energy =   244.7395809529
 Alpha Exchange  Energy =    -3.1730077261
 Beta  Exchange  Energy =    -3.0775188902
 DFT   Exchange  Energy =   -24.8003960081
 DFT Correlation Energy =    -1.1825499769
 Nuclear Repu.   Energy =    48.4716213921
 Nuclear Attr.   Energy = -1136.4105145582
 Kinetic         Energy =   437.3237831723
 <S^2> = 0.7542
 SCF time:  CPU 33.65 s  wall 33.89 s
 Final Alpha MO Eigenvalues
            1           2           3           4           5           6
    1 -88.8651266 -10.2048323  -7.9483280  -5.9184087  -5.9084778  -5.9009121
            7           8           9          10          11          12
    1  -0.7883472  -0.6368207  -0.4491538  -0.4440439  -0.3763347  -0.2884771
           13          14          15          16          17          18
    1  -0.2486927  -0.0136459   0.0164180   0.0279812   0.0293778   0.0627328
 Final Beta MO Eigenvalues
            1           2           3           4           5           6
    1 -88.8593794 -10.2049520  -7.9430919  -5.9055419  -5.8998500  -5.8979874
            7           8           9          10          11          12
    1  -0.7727914  -0.6096765  -0.4424662  -0.4364337  -0.3659891  -0.2368107
           13          14          15          16          17
    1  -0.1549702  -0.0121577   0.0207120   0.0292827   0.0294310
 Analysis of SCF Wavefunction
 
 --------------------------------------------------------------
                    Orbital Energies (a.u.)
 --------------------------------------------------------------
 
 Alpha MOs
 -- Occupied --
-88.865 -10.205  -7.948  -5.918  -5.908  -5.901  -0.788  -0.637
 -0.449  -0.444  -0.376  -0.288  -0.249
 -- Virtual --
 -0.014   0.016   0.028   0.029   0.063   0.079   0.083   0.086
  0.087   0.094   0.126   0.145   0.158   0.163   0.230   0.233
  0.266   0.273   0.285   0.348   0.364   0.395   0.412   0.412
  0.430   0.538   0.544   0.564   0.625   0.686   0.692   0.699
  0.800   0.840   0.851   0.861   0.886   0.892   0.905   0.914
  0.980   0.980   1.022   1.087   1.090   1.158   1.207   1.215
  1.244   1.257   1.278   1.381   1.384   1.400   1.442   1.455
  1.565   1.803   1.845   2.018   2.413   2.418   2.516   2.902
  2.907   2.972   2.974   3.117   3.134   3.159   3.197   3.227
  3.442   3.453   3.475   3.495   3.499   3.508   3.543   3.595
  3.620   3.775   3.846   3.849   3.947   4.119   4.120   4.303
  4.306   4.309   4.401   4.526   4.526   4.734   4.779   4.979
  5.293   5.598   5.602   8.255  17.099  17.121  17.372  23.469
 23.547  23.600  23.614  23.663  24.135  27.871  28.058  28.084
 30.958  30.960  30.965  30.966  30.972  30.980  30.997  40.956
 40.984  41.170  41.197  41.252 189.428
 
 Beta MOs
 -- Occupied --
-88.859 -10.205  -7.943  -5.906  -5.900  -5.898  -0.773  -0.610
 -0.442  -0.436  -0.366  -0.237
 -- Virtual --
 -0.155  -0.012   0.021   0.029   0.029   0.066   0.083   0.086
  0.088   0.092   0.095   0.126   0.149   0.162   0.164   0.250
  0.255   0.273   0.295   0.295   0.352   0.367   0.413   0.415
  0.424   0.432   0.542   0.544   0.570   0.626   0.690   0.693
  0.709   0.808   0.859   0.867   0.868   0.902   0.910   0.918
  0.931   1.010   1.012   1.030   1.089   1.096   1.162   1.218
  1.223   1.255   1.270   1.282   1.382   1.392   1.406   1.447
  1.456   1.567   1.843   1.851   2.024   2.419   2.420   2.519
  2.904   2.909   2.974   2.978   3.122   3.137   3.160   3.203
  3.229   3.475   3.490   3.496   3.505   3.526   3.535   3.546
  3.620   3.622   3.780   3.847   3.854   3.952   4.124   4.124
  4.308   4.310   4.312   4.404   4.539   4.541   4.749   4.781
  4.982   5.301   5.600   5.607   8.265  17.124  17.124  17.376
 23.480  23.557  23.610  23.616  23.668  24.135  27.871  28.059
 28.084  30.963  30.965  30.969  30.969  30.976  30.980  30.998
 40.956  40.985  41.170  41.197  41.252 189.433
 --------------------------------------------------------------
 
          Ground-State Mulliken Net Atomic Charges

     Atom                 Charge (a.u.)    Spin (a.u.)
  --------------------------------------------------------
      1 C                    -0.171016      -0.025876
      2 S                    -0.189832       0.969654
      3 H                     0.122305       0.034890
      4 H                     0.119271       0.010666
      5 H                     0.119271       0.010666
  --------------------------------------------------------
  Sum of atomic charges =     0.000000
  Sum of spin   charges =     1.000000

 -----------------------------------------------------------------
                    Cartesian Multipole Moments
 -----------------------------------------------------------------
    Charge (ESU x 10^10)
                 0.0000
    Dipole Moment (Debye)
         X       0.0691      Y       0.0000      Z      -1.7281
       Tot       1.7295
    Quadrupole Moments (Debye-Ang)
        XX     -19.3987     XY       0.0000     YY     -21.8951
        XZ      -0.0846     YZ       0.0000     ZZ     -23.4741
    Octapole Moments (Debye-Ang^2)
       XXX       0.5468    XXY       0.0000    XYY      -0.8334
       YYY       0.0000    XXZ     -22.3470    XYZ       0.0000
       YYZ     -27.1515    XZZ      -0.2370    YZZ       0.0000
       ZZZ     -72.1954
    Hexadecapole Moments (Debye-Ang^3)
      XXXX     -30.0984   XXXY       0.0000   XXYY     -11.4246
      XYYY       0.0000   YYYY     -37.6639   XXXZ      -0.7069
      XXYZ       0.0000   XYYZ       0.1142   YYYZ       0.0000
      XXZZ     -51.5252   XYZZ       0.0000   YYZZ     -61.6573
      XZZZ      -0.4659   YZZZ       0.0000   ZZZZ    -286.1458
 -----------------------------------------------------------------
 Calculating analytic gradient of the SCF energy
 Gradient of XC Energy
            1           2           3           4           5
    1  -0.0121140  -0.0011517   0.1786611  -0.0826977  -0.0826977
    2   0.0000000  -0.0000000  -0.0000000   0.1577903  -0.1577903
    3   0.0812043   0.1426181  -0.0646078  -0.0796073  -0.0796073
 Gradient of SCF Energy
            1           2           3           4           5
    1   0.0001487  -0.0000258  -0.0001226  -0.0000001  -0.0000001
    2   0.0000000  -0.0000000  -0.0000000  -0.0000540   0.0000540
    3  -0.0005760   0.0002072   0.0001074   0.0001307   0.0001307
 Max gradient component =       5.760E-04
 RMS gradient           =       1.759E-04
 Gradient time:  CPU 17.19 s  wall 17.25 s
 Geometry Optimization Parameters
   NAtoms,    NIC,     NZ,  NCons,   NDum,   NFix, NCnnct, MaxDiis
        5      20       6       0       0       0       0       0

 Cartesian Hessian Update
 Hessian Updated using BFGS Update


** GEOMETRY OPTIMIZATION IN DELOCALIZED INTERNAL COORDINATES **
   Searching for a Minimum

   Optimization Cycle:   3

                       Coordinates (Angstroms)
     ATOM              X           Y           Z
    1  C          -0.001364    0.000000    0.000101
    2  S           0.001535    0.000000    1.798547
    3  H           1.046924    0.000000   -0.312248
    4  H          -0.470675    0.896224   -0.400013
    5  H          -0.470675   -0.896224   -0.400013
   Point Group: c1    Number of degrees of freedom:   9


   Energy is   -438.109001642

 Hessian Updated using BFGS Update

  6 Hessian modes will be used to form the next step
  Hessian Eigenvalues:
     0.104753    0.160011    0.162272    0.220703    0.338962    0.360369

 Minimum Search - Taking Simple RFO Step
 Searching for Lamda that Minimizes Along All modes
 Value Taken    Lamda =  -0.00000116
 Step Taken.  Stepsize is  0.003213

                             Maximum     Tolerance    Cnvgd?
         Gradient           0.000341      0.000300      NO
         Displacement       0.002749      0.001200      NO
         Energy change     -0.000003      0.000001      NO


 New Cartesian Coordinates Obtained by Inverse Iteration

 Displacement from previous Coordinates is:  0.002248
 Writing REM_CC_EA            5
 ----------------------------------------------------
       Standard Nuclear Orientation (Angstroms)
    I     Atom         X            Y            Z
 ----------------------------------------------------
    1      C      -0.001764     0.000000     0.000911
    2      S       0.001848     0.000000     1.798452
    3      H       1.046652     0.000000    -0.312138
    4      H      -0.470496     0.896184    -0.400425
    5      H      -0.470495    -0.896184    -0.400425
 ----------------------------------------------------
 Nuclear Repulsion Energy =    48.4839976168 hartrees
 There are       13 alpha and       12 beta electrons
 Applying Cartesian multipole field
    Component          Value
    ---------          -----
     (2,0,0)        1.00000E-11
     (0,2,0)        2.00000E-11
     (0,0,2)       -3.00000E-11
 Nucleus-field energy     =    -0.0000000054 hartrees
 Requested basis set is G3large
 There are 47 shells and 138 basis functions
 A cutoff of  1.0D-11 yielded   1110 shell pairs
 There are   9649 function pairs ( 12538 Cartesian)
Evaluating contribution to one-electron hamiltonian from nuclear
 Smallest overlap matrix eigenvalue = 4.22E-04
 Multipole matrices computed through 2nd order
 Guess MOs from SCF MO coefficient file
Reading MOs from coefficient file
Reading MOs from coefficient file
 An unrestricted hybrid HF-DFT SCF calculation will be
 performed using Pulay DIIS extrapolation
 Exchange:     0.2000 Hartree-Fock + 0.0800 Slater + 0.7200 Becke88
 Correlation:  0.8100 LYP + 0.1900 VWN1RPA
 Using SG-1 standard quadrature grid
 SCF converges when DIIS error is below 1.0E-08
 ---------------------------------------
  Cycle       Energy         DIIS Error
 ---------------------------------------
    1    -438.1092146534      3.30E-05
    2    -438.1090021731      4.17E-06
    3    -438.1090021724      4.95E-06
    4    -438.1090022351      7.87E-07
    5    -438.1090022369      2.14E-07
    6    -438.1090022350      7.74E-08
    7    -438.1090022368      1.88E-08
    8    -438.1090022362      5.93E-09 Convergence criterion met
 ---------------------------------------
 One-Electron    Energy =  -699.1113230792
 Total Coulomb   Energy =   244.7518307124
 Alpha Exchange  Energy =    -3.1730125799
 Beta  Exchange  Energy =    -3.0775176200
 DFT   Exchange  Energy =   -24.8004137973
 DFT Correlation Energy =    -1.1825634836
 Nuclear Repu.   Energy =    48.4839976113
 Nuclear Attr.   Energy = -1136.4352365285
 Kinetic         Energy =   437.3239134493
 <S^2> = 0.7542
 SCF time:  CPU 34.14 s  wall 34.33 s
 Final Alpha MO Eigenvalues
            1           2           3           4           5           6
    1 -88.8651143 -10.2048395  -7.9483257  -5.9184035  -5.9084745  -5.9009108
            7           8           9          10          11          12
    1  -0.7884751  -0.6368056  -0.4490493  -0.4439896  -0.3765219  -0.2884201
           13          14          15          16          17          18
    1  -0.2486872  -0.0136418   0.0164912   0.0279705   0.0293594   0.0627206
 Final Beta MO Eigenvalues
            1           2           3           4           5           6
    1 -88.8593683 -10.2049589  -7.9430905  -5.9055399  -5.8998480  -5.8979867
            7           8           9          10          11          12
    1  -0.7729080  -0.6096896  -0.4424076  -0.4362844  -0.3661613  -0.2368089
           13          14          15          16          17
    1  -0.1549563  -0.0121576   0.0207749   0.0292750   0.0294124
 Analysis of SCF Wavefunction
 
 --------------------------------------------------------------
                    Orbital Energies (a.u.)
 --------------------------------------------------------------
 
 Alpha MOs
 -- Occupied --
-88.865 -10.205  -7.948  -5.918  -5.908  -5.901  -0.788  -0.637
 -0.449  -0.444  -0.377  -0.288  -0.249
 -- Virtual --
 -0.014   0.016   0.028   0.029   0.063   0.079   0.083   0.086
  0.087   0.094   0.126   0.145   0.158   0.163   0.230   0.233
  0.266   0.273   0.285   0.348   0.364   0.395   0.412   0.412
  0.430   0.538   0.544   0.564   0.624   0.686   0.692   0.699
  0.800   0.840   0.851   0.861   0.886   0.892   0.905   0.914
  0.980   0.980   1.022   1.087   1.090   1.158   1.207   1.215
  1.244   1.257   1.278   1.381   1.384   1.400   1.442   1.455
  1.564   1.803   1.845   2.019   2.413   2.418   2.516   2.902
  2.907   2.971   2.973   3.117   3.134   3.159   3.197   3.227
  3.442   3.453   3.475   3.495   3.499   3.509   3.544   3.596
  3.621   3.774   3.845   3.848   3.948   4.120   4.121   4.303
  4.305   4.309   4.400   4.526   4.526   4.734   4.780   4.977
  5.294   5.597   5.602   8.255  17.099  17.121  17.372  23.469
 23.547  23.600  23.614  23.663  24.134  27.873  28.058  28.084
 30.958  30.960  30.965  30.966  30.972  30.980  30.997  40.956
 40.984  41.170  41.197  41.252 189.429
 
 Beta MOs
 -- Occupied --
-88.859 -10.205  -7.943  -5.906  -5.900  -5.898  -0.773  -0.610
 -0.442  -0.436  -0.366  -0.237
 -- Virtual --
 -0.155  -0.012   0.021   0.029   0.029   0.066   0.083   0.086
  0.088   0.092   0.095   0.126   0.149   0.162   0.164   0.250
  0.255   0.273   0.295   0.295   0.352   0.368   0.413   0.415
  0.424   0.432   0.542   0.544   0.571   0.626   0.690   0.693
  0.709   0.808   0.858   0.867   0.868   0.902   0.910   0.918
  0.931   1.010   1.012   1.031   1.089   1.096   1.162   1.218
  1.223   1.255   1.270   1.282   1.382   1.392   1.406   1.447
  1.456   1.567   1.843   1.851   2.024   2.419   2.420   2.519
  2.904   2.910   2.973   2.977   3.122   3.138   3.160   3.203
  3.229   3.475   3.490   3.496   3.505   3.526   3.535   3.547
  3.621   3.622   3.780   3.846   3.854   3.952   4.124   4.125
  4.307   4.310   4.312   4.402   4.539   4.541   4.749   4.782
  4.981   5.302   5.599   5.607   8.266  17.124  17.124  17.376
 23.480  23.557  23.611  23.616  23.668  24.134  27.872  28.058
 28.084  30.963  30.965  30.969  30.969  30.976  30.980  30.998
 40.956  40.985  41.170  41.197  41.252 189.434
 --------------------------------------------------------------
 
          Ground-State Mulliken Net Atomic Charges

     Atom                 Charge (a.u.)    Spin (a.u.)
  --------------------------------------------------------
      1 C                    -0.170852      -0.025849
      2 S                    -0.189690       0.969367
      3 H                     0.122266       0.035092
      4 H                     0.119138       0.010695
      5 H                     0.119138       0.010695
  --------------------------------------------------------
  Sum of atomic charges =     0.000000
  Sum of spin   charges =     1.000000

 -----------------------------------------------------------------
                    Cartesian Multipole Moments
 -----------------------------------------------------------------
    Charge (ESU x 10^10)
                 0.0000
    Dipole Moment (Debye)
         X       0.0693      Y       0.0000      Z      -1.7281
       Tot       1.7295
    Quadrupole Moments (Debye-Ang)
        XX     -19.4007     XY       0.0000     YY     -21.8953
        XZ      -0.0855     YZ       0.0000     ZZ     -23.4707
    Octapole Moments (Debye-Ang^2)
       XXX       0.5400    XXY       0.0000    XYY      -0.8350
       YYY       0.0000    XXZ     -22.3490    XYZ       0.0000
       YYZ     -27.1520    XZZ      -0.2411    YZZ       0.0000
       ZZZ     -72.1964
    Hexadecapole Moments (Debye-Ang^3)
      XXXX     -30.1017   XXXY       0.0000   XXYY     -11.4258
      XYYY       0.0000   YYYY     -37.6639   XXXZ      -0.7305
      XXYZ       0.0000   XYYZ       0.1046   YYYZ       0.0000
      XXZZ     -51.5205   XYZZ       0.0000   YYZZ     -61.6472
      XZZZ      -0.4907   YZZZ       0.0000   ZZZZ    -286.0968
 -----------------------------------------------------------------
 Calculating analytic gradient of the SCF energy
 Gradient of XC Energy
            1           2           3           4           5
    1  -0.0124116  -0.0010567   0.1785051  -0.0825184  -0.0825184
    2   0.0000000  -0.0000000  -0.0000000   0.1576955  -0.1576955
    3   0.0816280   0.1428760  -0.0647424  -0.0798808  -0.0798808
 Gradient of SCF Energy
            1           2           3           4           5
    1  -0.0000287   0.0000052  -0.0000014   0.0000124   0.0000124
    2   0.0000000  -0.0000000  -0.0000000  -0.0000083   0.0000083
    3  -0.0000330  -0.0000019   0.0000119   0.0000115   0.0000115
 Max gradient component =       3.299E-05
 RMS gradient           =       1.366E-05
 Gradient time:  CPU 18.75 s  wall 18.77 s
 Geometry Optimization Parameters
   NAtoms,    NIC,     NZ,  NCons,   NDum,   NFix, NCnnct, MaxDiis
        5      20       6       0       0       0       0       0

 Cartesian Hessian Update
 Hessian Updated using BFGS Update


** GEOMETRY OPTIMIZATION IN DELOCALIZED INTERNAL COORDINATES **
   Searching for a Minimum

   Optimization Cycle:   4

                       Coordinates (Angstroms)
     ATOM              X           Y           Z
    1  C          -0.001764    0.000000    0.000911
    2  S           0.001848    0.000000    1.798452
    3  H           1.046652    0.000000   -0.312138
    4  H          -0.470496    0.896184   -0.400425
    5  H          -0.470495   -0.896184   -0.400425
   Point Group: c1    Number of degrees of freedom:   9


   Energy is   -438.109002236

 Hessian Updated using BFGS Update

  7 Hessian modes will be used to form the next step
  Hessian Eigenvalues:
     0.102605    0.160010    0.162816    0.221461    0.339623    0.344100
     0.355167

 Minimum Search - Taking Simple RFO Step
 Searching for Lamda that Minimizes Along All modes
 Value Taken    Lamda =   0.00000000
 Step Taken.  Stepsize is  0.000199

                             Maximum     Tolerance    Cnvgd?
         Gradient           0.000022      0.000300     YES
         Displacement       0.000139      0.001200     YES
         Energy change     -0.000001      0.000001     YES


                       Distance Matrix (Angstroms)
             C (  1)   S (  2)   H (  3)   H (  4)
   S (  2)  1.797546
   H (  3)  1.094155  2.355039
   H (  4)  1.088083  2.421016  1.764278
   H (  5)  1.088083  2.421016  1.764278  1.792367
 


 ******************************
 **  OPTIMIZATION CONVERGED  **
 ******************************
 Analysis of SCF Wavefunction
 
 --------------------------------------------------------------
                    Orbital Energies (a.u.)
 --------------------------------------------------------------
 
 Alpha MOs
 -- Occupied --
-88.865 -10.205  -7.948  -5.918  -5.908  -5.901  -0.788  -0.637
 -0.449  -0.444  -0.377  -0.288  -0.249
 -- Virtual --
 -0.014   0.016   0.028   0.029   0.063   0.079   0.083   0.086
  0.087   0.094   0.126   0.145   0.158   0.163   0.230   0.233
  0.266   0.273   0.285   0.348   0.364   0.395   0.412   0.412
  0.430   0.538   0.544   0.564   0.624   0.686   0.692   0.699
  0.800   0.840   0.851   0.861   0.886   0.892   0.905   0.914
  0.980   0.980   1.022   1.087   1.090   1.158   1.207   1.215
  1.244   1.257   1.278   1.381   1.384   1.400   1.442   1.455
  1.564   1.803   1.845   2.019   2.413   2.418   2.516   2.902
  2.907   2.971   2.973   3.117   3.134   3.159   3.197   3.227
  3.442   3.453   3.475   3.495   3.499   3.509   3.544   3.596
  3.621   3.774   3.845   3.848   3.948   4.120   4.121   4.303
  4.305   4.309   4.400   4.526   4.526   4.734   4.780   4.977
  5.294   5.597   5.602   8.255  17.099  17.121  17.372  23.469
 23.547  23.600  23.614  23.663  24.134  27.873  28.058  28.084
 30.958  30.960  30.965  30.966  30.972  30.980  30.997  40.956
 40.984  41.170  41.197  41.252 189.429
 
 Beta MOs
 -- Occupied --
-88.859 -10.205  -7.943  -5.906  -5.900  -5.898  -0.773  -0.610
 -0.442  -0.436  -0.366  -0.237
 -- Virtual --
 -0.155  -0.012   0.021   0.029   0.029   0.066   0.083   0.086
  0.088   0.092   0.095   0.126   0.149   0.162   0.164   0.250
  0.255   0.273   0.295   0.295   0.352   0.368   0.413   0.415
  0.424   0.432   0.542   0.544   0.571   0.626   0.690   0.693
  0.709   0.808   0.858   0.867   0.868   0.902   0.910   0.918
  0.931   1.010   1.012   1.031   1.089   1.096   1.162   1.218
  1.223   1.255   1.270   1.282   1.382   1.392   1.406   1.447
  1.456   1.567   1.843   1.851   2.024   2.419   2.420   2.519
  2.904   2.910   2.973   2.977   3.122   3.138   3.160   3.203
  3.229   3.475   3.490   3.496   3.505   3.526   3.535   3.547
  3.621   3.622   3.780   3.846   3.854   3.952   4.124   4.125
  4.307   4.310   4.312   4.402   4.539   4.541   4.749   4.782
  4.981   5.302   5.599   5.607   8.266  17.124  17.124  17.376
 23.480  23.557  23.611  23.616  23.668  24.134  27.872  28.058
 28.084  30.963  30.965  30.969  30.969  30.976  30.980  30.998
 40.956  40.985  41.170  41.197  41.252 189.434
 --------------------------------------------------------------
 
          Ground-State Mulliken Net Atomic Charges

     Atom                 Charge (a.u.)    Spin (a.u.)
  --------------------------------------------------------
      1 C                    -0.170852      -0.025849
      2 S                    -0.189690       0.969367
      3 H                     0.122266       0.035092
      4 H                     0.119138       0.010695
      5 H                     0.119138       0.010695
  --------------------------------------------------------
  Sum of atomic charges =     0.000000
  Sum of spin   charges =     1.000000

 -----------------------------------------------------------------
                    Cartesian Multipole Moments
 -----------------------------------------------------------------
    Charge (ESU x 10^10)
                 0.0000
    Dipole Moment (Debye)
         X       0.0693      Y       0.0000      Z      -1.7281
       Tot       1.7295
    Quadrupole Moments (Debye-Ang)
        XX     -19.4007     XY       0.0000     YY     -21.8953
        XZ      -0.0855     YZ       0.0000     ZZ     -23.4707
    Octapole Moments (Debye-Ang^2)
       XXX       0.5400    XXY       0.0000    XYY      -0.8350
       YYY       0.0000    XXZ     -22.3490    XYZ       0.0000
       YYZ     -27.1520    XZZ      -0.2411    YZZ       0.0000
       ZZZ     -72.1964
    Hexadecapole Moments (Debye-Ang^3)
      XXXX     -30.1017   XXXY       0.0000   XXYY     -11.4258
      XYYY       0.0000   YYYY     -37.6639   XXXZ      -0.7305
      XXYZ       0.0000   XYYZ       0.1046   YYYZ       0.0000
      XXZZ     -51.5205   XYZZ       0.0000   YYZZ     -61.6472
      XZZZ      -0.4907   YZZZ       0.0000   ZZZZ    -286.0968
 -----------------------------------------------------------------
 Total job time:  333.40s(wall), 331.43s(cpu) 
 Wed Jul 24 16:44:56 2013

        *************************************************************
        *                                                           *
        *  Thank you very much for using Q-Chem.  Have a nice day.  *
        *                                                           *
        *************************************************************


0 sent ACK to 0 
now end server 0 ... 
 
**********************************************************************
Job 2 of 2 
**********************************************************************
 
Process 0 of 1 is on cl066.stfx.acenet.ca - thread support 1
initial socket setup ...start
initial socket setup ...done 
now start server 0 ... 

cmd = /usr/bin/ssh clhead /usr/local/qchem/bin/get_hostid 1476081746 > /scratch/tmp/6067181.1.short.q/qchem30100/lic.dat
                  Welcome to Q-Chem
     A Quantum Leap Into The Future Of Chemistry

 Y. Shao, L. Fusti-Molnar, Y. Jung, J. Kussmann, C. Ochsenfeld,
 S. T. Brown, A. T. B. Gilbert, L. V. Slipchenko,S. V. Levchenko,
 D. P. O'Neill, R. A. DiStasio Jr., R. C. Lochan, T. Wang,
 G. J. O. Beran, N. A. Besley, J. M. Herbert, C. Y. Lin,
 T. Van Voorhis, S. H. Chien, A. Sodt, R. P. Steele, 
 V. A. Rassolov, P. E. Maslen, P. P. Korambath, R. D. Adamson,
 B. Austin, J. Baker, E. F. C. Byrd, H. Dachsel, R. J. Doerksen,
 A. Dreuw, B. D. Dunietz, A. D. Dutoi, T. R. Furlani,
 S. R. Gwaltney, A. Heyden, S. Hirata, C.-P. Hsu, G. Kedziora,
 R. Z. Khaliullin, P. Klunzinger, A. M. Lee, M. S. Lee, W. Liang,
 I. Lotan, N. Nair, B. Peters, E. I. Proynov, P. A. Pieniazek, 
 Y. M. Rhee, J. Ritchie, E. Rosta, C. D. Sherrill, 
 A. C. Simmonett, J. E. Subotnik, H. L. Woodcock III,
 W. Zhang, A. T. Bell, A. K. Chakraborty, D. M. Chipman,
 F. J. Keil, A. Warshel, W. J. Hehre, H. F. Schaefer III,
 J. Kong, A. I. Krylov, P. M. W. Gill, M. Head-Gordon,
 Q-Chem, Version 3.1, Q-Chem, Inc., Pittsburgh, PA (2007).

 Additional authors for Version 3.1: 
 Z. Gan, Y. Zhao, N. E. Schultz, D. Truhlar, E. Epifanovsky and M. Oana.

 Additional authors for Version 3.2: 
 R. Baer, B. R. Brooks, D. Casanova, J.-D. Chai, C.-L. Cheng, 
 C. Cramer, D. Crittenden, A. Ghysels, G. Hawkins, E. G. Hohenstein, 
 C. Kelley, W. Kurlancheek, D. Liotard, E. Livshits, P. Manohar, 
 A. Marenich, D. Neuhauser, R. Olson, M. A. Rohrdanz, K. S. Thanthiriwatte, 
 A. J. W. Thom, V. Vanovschi, C. F. Williams, Q. Wu and Z.-Q. You. 


 Intel X86 Linux Version

 Q-chem begins on Wed Jul 24 16:44:59 2013  

 Parallel job on  1  processors
Processing $rem in /usr/local/qchem/config/preferences.

theFileMan(): MAXOPENFILES=974 MAX_SUB_FILE_NUM=16
Maximum size of a physical file is 2.0 GB, maximum size of a tmp-file is 32.0 GB


--------------------------------------------------------------
User input:
--------------------------------------------------------------

$molecule 
READ 
$end 

$rem
   EXCHANGE B3LYP
   UNRESTRICTED TRUE
   SYMMETRY_DECOMPOSITION       0
   BASIS                   g3large
   JOBTYPE                 freq
   mem_static              760
   max_scf_cycles          200
   scf_final_print         1
   sym_ignore              true
   JOBTYPE                 freq
   IDERIV 1
   SCF_GUESS READ
$end
--------------------------------------------------------------
 Writing REM_CC_EA            5
 ----------------------------------------------------
       Standard Nuclear Orientation (Angstroms)
    I     Atom         X            Y            Z
 ----------------------------------------------------
    1      C      -0.001764     0.000000     0.000911
    2      S       0.001848     0.000000     1.798452
    3      H       1.046652     0.000000    -0.312138
    4      H      -0.470496     0.896184    -0.400425
    5      H      -0.470495    -0.896184    -0.400425
 ----------------------------------------------------
 Nuclear Repulsion Energy =    48.4839976168 hartrees
 There are       13 alpha and       12 beta electrons
 Requested basis set is G3large
 There are 47 shells and 138 basis functions

Total QAlloc Memory Limit   2000 MB
Mega-Array Size       759 MB
MEM_STATIC part       760 MB

                       Distance Matrix (Angstroms)
             C (  1)   S (  2)   H (  3)   H (  4)
   S (  2)  1.797546
   H (  3)  1.094155  2.355039
   H (  4)  1.088083  2.421016  1.764278
   H (  5)  1.088083  2.421016  1.764278  1.792367
 
 A cutoff of  1.0D-11 yielded   1110 shell pairs
 There are   9649 function pairs ( 12538 Cartesian)
Evaluating contribution to one-electron hamiltonian from nuclear
 Smallest overlap matrix eigenvalue = 4.22E-04
 Multipole matrices computed through 2nd order
 Guess MOs from SCF MO coefficient file
Reading MOs from coefficient file
Reading MOs from coefficient file
 An unrestricted hybrid HF-DFT SCF calculation will be
 performed using Pulay DIIS extrapolation
 Exchange:     0.2000 Hartree-Fock + 0.0800 Slater + 0.7200 Becke88
 Correlation:  0.8100 LYP + 0.1900 VWN1RPA
 Using SG-1 standard quadrature grid
 SCF converges when DIIS error is below 1.0E-08
 ---------------------------------------
  Cycle       Energy         DIIS Error
 ---------------------------------------
    1    -438.1090022394      2.46E-09
    2    -438.1090022391      2.03E-09 Convergence criterion met
 ---------------------------------------
 One-Electron    Energy =  -699.1113227520
 Total Coulomb   Energy =   244.7518303675
 Alpha Exchange  Energy =    -3.1730125700
 Beta  Exchange  Energy =    -3.0775176304
 DFT   Exchange  Energy =   -24.8004137897
 DFT Correlation Energy =    -1.1825634812
 Nuclear Repu.   Energy =    48.4839976168
 Nuclear Attr.   Energy = -1136.4352360104
 Kinetic         Energy =   437.3239132583
 <S^2> = 0.7542
 SCF time:  CPU 8.76 s  wall 8.89 s
 Final Alpha MO Eigenvalues
            1           2           3           4           5           6
    1 -88.8651144 -10.2048395  -7.9483258  -5.9184036  -5.9084745  -5.9009109
            7           8           9          10          11          12
    1  -0.7884751  -0.6368056  -0.4490493  -0.4439896  -0.3765219  -0.2884202
           13          14          15          16          17          18
    1  -0.2486872  -0.0136418   0.0164912   0.0279705   0.0293594   0.0627205
 Final Beta MO Eigenvalues
            1           2           3           4           5           6
    1 -88.8593683 -10.2049590  -7.9430906  -5.9055400  -5.8998481  -5.8979867
            7           8           9          10          11          12
    1  -0.7729080  -0.6096897  -0.4424076  -0.4362845  -0.3661614  -0.2368089
           13          14          15          16          17
    1  -0.1549563  -0.0121576   0.0207749   0.0292750   0.0294124
 Analysis of SCF Wavefunction
 
 --------------------------------------------------------------
                    Orbital Energies (a.u.)
 --------------------------------------------------------------
 
 Alpha MOs
 -- Occupied --
-88.865 -10.205  -7.948  -5.918  -5.908  -5.901  -0.788  -0.637
 -0.449  -0.444  -0.377  -0.288  -0.249
 -- Virtual --
 -0.014   0.016   0.028   0.029   0.063   0.079   0.083   0.086
  0.087   0.094   0.126   0.145   0.158   0.163   0.230   0.233
  0.266   0.273   0.285   0.348   0.364   0.395   0.412   0.412
  0.430   0.538   0.544   0.564   0.624   0.686   0.692   0.699
  0.800   0.840   0.851   0.861   0.886   0.892   0.905   0.914
  0.980   0.980   1.022   1.087   1.090   1.158   1.207   1.215
  1.244   1.257   1.278   1.381   1.384   1.400   1.442   1.455
  1.564   1.803   1.845   2.019   2.413   2.418   2.516   2.902
  2.907   2.971   2.973   3.117   3.134   3.159   3.197   3.227
  3.442   3.453   3.475   3.495   3.499   3.509   3.544   3.596
  3.621   3.774   3.845   3.848   3.948   4.120   4.121   4.303
  4.305   4.309   4.400   4.526   4.526   4.734   4.780   4.977
  5.294   5.597   5.602   8.255  17.099  17.121  17.372  23.469
 23.547  23.600  23.614  23.663  24.134  27.873  28.058  28.084
 30.958  30.960  30.965  30.966  30.972  30.980  30.997  40.956
 40.984  41.170  41.197  41.252 189.429
 
 Beta MOs
 -- Occupied --
-88.859 -10.205  -7.943  -5.906  -5.900  -5.898  -0.773  -0.610
 -0.442  -0.436  -0.366  -0.237
 -- Virtual --
 -0.155  -0.012   0.021   0.029   0.029   0.066   0.083   0.086
  0.088   0.092   0.095   0.126   0.149   0.162   0.164   0.250
  0.255   0.273   0.295   0.295   0.352   0.368   0.413   0.415
  0.424   0.432   0.542   0.544   0.571   0.626   0.690   0.693
  0.709   0.808   0.858   0.867   0.868   0.902   0.910   0.918
  0.931   1.010   1.012   1.031   1.089   1.096   1.162   1.218
  1.223   1.255   1.270   1.282   1.382   1.392   1.406   1.447
  1.456   1.567   1.843   1.851   2.024   2.419   2.420   2.519
  2.904   2.910   2.973   2.977   3.122   3.138   3.160   3.203
  3.229   3.475   3.490   3.496   3.505   3.526   3.535   3.547
  3.621   3.622   3.780   3.846   3.854   3.952   4.124   4.125
  4.307   4.310   4.312   4.402   4.539   4.541   4.749   4.782
  4.981   5.302   5.599   5.607   8.266  17.124  17.124  17.376
 23.480  23.557  23.611  23.616  23.668  24.134  27.872  28.058
 28.084  30.963  30.965  30.969  30.969  30.976  30.980  30.998
 40.956  40.985  41.170  41.197  41.252 189.434
 --------------------------------------------------------------
 
          Ground-State Mulliken Net Atomic Charges

     Atom                 Charge (a.u.)    Spin (a.u.)
  --------------------------------------------------------
      1 C                    -0.170852      -0.025849
      2 S                    -0.189690       0.969367
      3 H                     0.122266       0.035092
      4 H                     0.119138       0.010695
      5 H                     0.119138       0.010695
  --------------------------------------------------------
  Sum of atomic charges =     0.000000
  Sum of spin   charges =     1.000000

 -----------------------------------------------------------------
                    Cartesian Multipole Moments
 -----------------------------------------------------------------
    Charge (ESU x 10^10)
                 0.0000
    Dipole Moment (Debye)
         X       0.0693      Y       0.0000      Z      -1.7281
       Tot       1.7295
    Quadrupole Moments (Debye-Ang)
        XX     -19.4007     XY       0.0000     YY     -21.8953
        XZ      -0.0855     YZ       0.0000     ZZ     -23.4707
    Octapole Moments (Debye-Ang^2)
       XXX       0.5400    XXY       0.0000    XYY      -0.8350
       YYY       0.0000    XXZ     -22.3490    XYZ       0.0000
       YYZ     -27.1520    XZZ      -0.2411    YZZ       0.0000
       ZZZ     -72.1964
    Hexadecapole Moments (Debye-Ang^3)
      XXXX     -30.1017   XXXY       0.0000   XXYY     -11.4258
      XYYY       0.0000   YYYY     -37.6639   XXXZ      -0.7305
      XXYZ       0.0000   XYYZ       0.1046   YYYZ       0.0000
      XXZZ     -51.5205   XYZZ       0.0000   YYZZ     -61.6472
      XZZZ      -0.4907   YZZZ       0.0000   ZZZZ    -286.0968
 -----------------------------------------------------------------
 Calculating analytic gradient of the SCF energy
 Gradient of XC Energy
            1           2           3           4           5
    1  -0.0124116  -0.0010567   0.1785051  -0.0825184  -0.0825184
    2   0.0000000  -0.0000000  -0.0000000   0.1576955  -0.1576955
    3   0.0816281   0.1428760  -0.0647424  -0.0798808  -0.0798808
 Gradient of SCF Energy
            1           2           3           4           5
    1  -0.0000286   0.0000052  -0.0000014   0.0000124   0.0000124
    2   0.0000000  -0.0000000  -0.0000000  -0.0000083   0.0000083
    3  -0.0000330  -0.0000019   0.0000119   0.0000115   0.0000115
 Max gradient component =       3.297E-05
 RMS gradient           =       1.365E-05
 Gradient time:  CPU 16.68 s  wall 16.71 s
 ######################################################
 ######################################################
 # Starting finite difference calculation for IDERIV  #
 Finite diff step size: 1.89e-03 a.u.
 Writing REM_CC_EA            5
 ----------------------------------------------------
       Standard Nuclear Orientation (Angstroms)
    I     Atom         X            Y            Z
 ----------------------------------------------------
    1      C      -0.000764     0.000000     0.000911
    2      S       0.001848     0.000000     1.798452
    3      H       1.046652     0.000000    -0.312138
    4      H      -0.470496     0.896184    -0.400425
    5      H      -0.470495    -0.896184    -0.400425
 ----------------------------------------------------
 Nuclear Repulsion Energy =    48.4842565525 hartrees
 There are       13 alpha and       12 beta electrons

                       Distance Matrix (Angstroms)
             C (  1)   S (  2)   H (  3)   H (  4)
   S (  2)  1.797544
   H (  3)  1.093197  2.355039
   H (  4)  1.088514  2.421016  1.764278
   H (  5)  1.088514  2.421016  1.764278  1.792367
 
 Requested basis set is G3large
 There are 47 shells and 138 basis functions
 A cutoff of  1.0D-11 yielded   1110 shell pairs
 There are   9649 function pairs ( 12538 Cartesian)
Evaluating contribution to one-electron hamiltonian from nuclear
 Smallest overlap matrix eigenvalue = 4.22E-04
 Multipole matrices computed through 2nd order
 Guess MOs from SCF MO coefficient file
Reading MOs from coefficient file
Reading MOs from coefficient file
 An unrestricted hybrid HF-DFT SCF calculation will be
 performed using Pulay DIIS extrapolation
 Exchange:     0.2000 Hartree-Fock + 0.0800 Slater + 0.7200 Becke88
 Correlation:  0.8100 LYP + 0.1900 VWN1RPA
 Using SG-1 standard quadrature grid
 SCF converges when DIIS error is below 1.0E-08
 ---------------------------------------
  Cycle       Energy         DIIS Error
 ---------------------------------------
    1    -438.1090201136      2.95E-05
    2    -438.1090013614      3.77E-06
    3    -438.1090013956      2.81E-06
    4    -438.1090014192      5.72E-07
    5    -438.1090014212      1.32E-07
    6    -438.1090014203      1.20E-07
    7    -438.1090014196      2.81E-08
    8    -438.1090014199      5.13E-09 Convergence criterion met
 ---------------------------------------
 One-Electron    Energy =  -699.1117287604
 Total Coulomb   Energy =   244.7520289954
 Alpha Exchange  Energy =    -3.1730177900
 Beta  Exchange  Energy =    -3.0775246714
 DFT   Exchange  Energy =   -24.8004527097
 DFT Correlation Energy =    -1.1825630363
 Nuclear Repu.   Energy =    48.4842565525
 Nuclear Attr.   Energy = -1136.4358104348
 Kinetic         Energy =   437.3240816744
 <S^2> = 0.7542
 SCF time:  CPU 33.39 s  wall 33.57 s
 Final Alpha MO Eigenvalues
            1           2           3           4           5           6
    1 -88.8651242 -10.2048190  -7.9483363  -5.9184159  -5.9084842  -5.9009208
            7           8           9          10          11          12
    1  -0.7884826  -0.6368075  -0.4492202  -0.4438006  -0.3765211  -0.2884711
           13          14          15          16          17          18
    1  -0.2486719  -0.0136359   0.0164937   0.0279754   0.0293584   0.0627244
 Final Beta MO Eigenvalues
            1           2           3           4           5           6
    1 -88.8593776 -10.2049386  -7.9431006  -5.9055493  -5.8998586  -5.8979963
            7           8           9          10          11          12
    1  -0.7729115  -0.6096887  -0.4422156  -0.4364835  -0.3661627  -0.2367935
           13          14          15          16          17
    1  -0.1549833  -0.0121523   0.0207792   0.0292784   0.0294116
 Analysis of SCF Wavefunction
 
 --------------------------------------------------------------
                    Orbital Energies (a.u.)
 --------------------------------------------------------------
 
 Alpha MOs
 -- Occupied --
-88.865 -10.205  -7.948  -5.918  -5.908  -5.901  -0.788  -0.637
 -0.449  -0.444  -0.377  -0.288  -0.249
 -- Virtual --
 -0.014   0.016   0.028   0.029   0.063   0.079   0.083   0.086
  0.087   0.094   0.126   0.145   0.158   0.163   0.230   0.233
  0.266   0.273   0.285   0.348   0.364   0.395   0.412   0.412
  0.430   0.538   0.544   0.564   0.625   0.686   0.692   0.699
  0.800   0.840   0.851   0.861   0.886   0.892   0.905   0.914
  0.980   0.980   1.022   1.087   1.090   1.158   1.207   1.215
  1.244   1.257   1.278   1.381   1.384   1.400   1.443   1.455
  1.564   1.803   1.845   2.019   2.413   2.418   2.516   2.902
  2.907   2.971   2.973   3.117   3.134   3.158   3.197   3.227
  3.442   3.453   3.475   3.495   3.499   3.509   3.544   3.596
  3.620   3.775   3.845   3.849   3.947   4.120   4.121   4.303
  4.305   4.309   4.399   4.526   4.526   4.735   4.780   4.977
  5.294   5.596   5.603   8.255  17.099  17.121  17.372  23.469
 23.547  23.600  23.614  23.663  24.134  27.873  28.059  28.083
 30.958  30.960  30.965  30.966  30.972  30.980  30.997  40.956
 40.984  41.170  41.198  41.252 189.429
 
 Beta MOs
 -- Occupied --
-88.859 -10.205  -7.943  -5.906  -5.900  -5.898  -0.773  -0.610
 -0.442  -0.436  -0.366  -0.237
 -- Virtual --
 -0.155  -0.012   0.021   0.029   0.029   0.066   0.083   0.086
  0.088   0.092   0.095   0.126   0.149   0.162   0.163   0.250
  0.255   0.273   0.295   0.295   0.352   0.368   0.413   0.415
  0.424   0.432   0.542   0.544   0.571   0.626   0.690   0.693
  0.709   0.808   0.859   0.867   0.868   0.902   0.910   0.918
  0.931   1.010   1.012   1.031   1.089   1.096   1.162   1.218
  1.223   1.255   1.270   1.282   1.382   1.392   1.406   1.447
  1.456   1.567   1.843   1.851   2.024   2.418   2.420   2.519
  2.904   2.910   2.973   2.977   3.122   3.138   3.159   3.203
  3.229   3.475   3.490   3.496   3.505   3.526   3.535   3.547
  3.621   3.622   3.780   3.846   3.854   3.952   4.124   4.125
  4.307   4.311   4.312   4.402   4.539   4.541   4.750   4.781
  4.981   5.302   5.598   5.608   8.266  17.124  17.124  17.376
 23.480  23.557  23.611  23.616  23.668  24.134  27.872  28.059
 28.083  30.963  30.965  30.969  30.969  30.976  30.980  30.998
 40.956  40.985  41.170  41.198  41.252 189.434
 --------------------------------------------------------------
 
          Ground-State Mulliken Net Atomic Charges

     Atom                 Charge (a.u.)    Spin (a.u.)
  --------------------------------------------------------
      1 C                    -0.170862      -0.025867
      2 S                    -0.189620       0.969505
      3 H                     0.122408       0.034929
      4 H                     0.119037       0.010716
      5 H                     0.119037       0.010716
  --------------------------------------------------------
  Sum of atomic charges =     0.000000
  Sum of spin   charges =     1.000000

 -----------------------------------------------------------------
                    Cartesian Multipole Moments
 -----------------------------------------------------------------
    Charge (ESU x 10^10)
                 0.0000
    Dipole Moment (Debye)
         X       0.0696      Y       0.0000      Z      -1.7274
       Tot       1.7288
    Quadrupole Moments (Debye-Ang)
        XX     -19.3988     XY       0.0000     YY     -21.8966
        XZ      -0.0852     YZ       0.0000     ZZ     -23.4705
    Octapole Moments (Debye-Ang^2)
       XXX       0.5277    XXY       0.0000    XYY      -0.8391
       YYY       0.0000    XXZ     -22.3484    XYZ       0.0000
       YYZ     -27.1508    XZZ      -0.2444    YZZ       0.0000
       ZZZ     -72.1963
    Hexadecapole Moments (Debye-Ang^3)
      XXXX     -30.0933   XXXY       0.0000   XXYY     -11.4244
      XYYY       0.0000   YYYY     -37.6710   XXXZ      -0.7307
      XXYZ       0.0000   XYYZ       0.1046   YYYZ       0.0000
      XXZZ     -51.5176   XYZZ       0.0000   YYZZ     -61.6488
      XZZZ      -0.4922   YZZZ       0.0000   ZZZZ    -286.1000
 -----------------------------------------------------------------
 Calculating analytic gradient of the SCF energy
 Gradient of XC Energy
            1           2           3           4           5
    1  -0.0121563  -0.0011650   0.1786569  -0.0826678  -0.0826678
    2   0.0000000  -0.0000000  -0.0000000   0.1575413  -0.1575413
    3   0.0816484   0.1428329  -0.0648583  -0.0798115  -0.0798115
 Gradient of SCF Energy
            1           2           3           4           5
    1   0.0008966  -0.0000282  -0.0005306  -0.0001689  -0.0001689
    2   0.0000000  -0.0000000  -0.0000000   0.0001716  -0.0001716
    3   0.0000211  -0.0000317   0.0001685  -0.0000790  -0.0000790
 Max gradient component =       8.966E-04
 RMS gradient           =       2.880E-04
 Gradient time:  CPU 16.60 s  wall 16.63 s
 Writing REM_CC_EA            5
 ----------------------------------------------------
       Standard Nuclear Orientation (Angstroms)
    I     Atom         X            Y            Z
 ----------------------------------------------------
    1      C      -0.002764     0.000000     0.000911
    2      S       0.001848     0.000000     1.798452
    3      H       1.046652     0.000000    -0.312138
    4      H      -0.470496     0.896184    -0.400425
    5      H      -0.470495    -0.896184    -0.400425
 ----------------------------------------------------
 Nuclear Repulsion Energy =    48.4837320022 hartrees
 There are       13 alpha and       12 beta electrons

                       Distance Matrix (Angstroms)
             C (  1)   S (  2)   H (  3)   H (  4)
   S (  2)  1.797548
   H (  3)  1.095113  2.355039
   H (  4)  1.087653  2.421016  1.764278
   H (  5)  1.087653  2.421016  1.764278  1.792367
 
 Requested basis set is G3large
 There are 47 shells and 138 basis functions
 A cutoff of  1.0D-11 yielded   1110 shell pairs
 There are   9649 function pairs ( 12538 Cartesian)
Evaluating contribution to one-electron hamiltonian from nuclear
 Smallest overlap matrix eigenvalue = 4.22E-04
 Multipole matrices computed through 2nd order
 Guess MOs from SCF MO coefficient file
Reading MOs from coefficient file
Reading MOs from coefficient file
 An unrestricted hybrid HF-DFT SCF calculation will be
 performed using Pulay DIIS extrapolation
 Exchange:     0.2000 Hartree-Fock + 0.0800 Slater + 0.7200 Becke88
 Correlation:  0.8100 LYP + 0.1900 VWN1RPA
 Using SG-1 standard quadrature grid
 SCF converges when DIIS error is below 1.0E-08
 ---------------------------------------
  Cycle       Energy         DIIS Error
 ---------------------------------------
    1    -438.1089628807      5.90E-05
    2    -438.1090010792      7.54E-06
    3    -438.1090012156      5.62E-06
    4    -438.1090013059      1.14E-06
    5    -438.1090013102      2.59E-07
    6    -438.1090013135      2.26E-07
    7    -438.1090013119      5.71E-08
    8    -438.1090013125      1.03E-08
    9    -438.1090013135      4.30E-09 Convergence criterion met
 ---------------------------------------
 One-Electron    Energy =  -699.1108923915
 Total Coulomb   Energy =   244.7516152497
 Alpha Exchange  Energy =    -3.1730072630
 Beta  Exchange  Energy =    -3.0775105338
 DFT   Exchange  Energy =   -24.8003744819
 DFT Correlation Energy =    -1.1825638953
 Nuclear Repu.   Energy =    48.4837320022
 Nuclear Attr.   Energy = -1136.4346346170
 Kinetic         Energy =   437.3237422255
 <S^2> = 0.7542
 SCF time:  CPU 37.23 s  wall 37.49 s
 Final Alpha MO Eigenvalues
            1           2           3           4           5           6
    1 -88.8651048 -10.2048603  -7.9483154  -5.9183915  -5.9084651  -5.9009012
            7           8           9          10          11          12
    1  -0.7884678  -0.6368041  -0.4488784  -0.4441787  -0.3765228  -0.2883692
           13          14          15          16          17          18
    1  -0.2487026  -0.0136478   0.0164886   0.0279655   0.0293604   0.0627166
 Final Beta MO Eigenvalues
            1           2           3           4           5           6
    1 -88.8593593 -10.2049796  -7.9430808  -5.9055308  -5.8998378  -5.8979773
            7           8           9          10          11          12
    1  -0.7729047  -0.6096910  -0.4425996  -0.4360853  -0.3661600  -0.2368244
           13          14          15          16          17
    1  -0.1549294  -0.0121630   0.0207704   0.0292715   0.0294132
 Analysis of SCF Wavefunction
 
 --------------------------------------------------------------
                    Orbital Energies (a.u.)
 --------------------------------------------------------------
 
 Alpha MOs
 -- Occupied --
-88.865 -10.205  -7.948  -5.918  -5.908  -5.901  -0.788  -0.637
 -0.449  -0.444  -0.377  -0.288  -0.249
 -- Virtual --
 -0.014   0.016   0.028   0.029   0.063   0.079   0.083   0.086
  0.087   0.094   0.126   0.145   0.158   0.163   0.230   0.233
  0.266   0.273   0.285   0.348   0.364   0.395   0.412   0.412
  0.430   0.538   0.544   0.564   0.624   0.686   0.692   0.699
  0.800   0.840   0.851   0.861   0.886   0.892   0.905   0.914
  0.980   0.980   1.022   1.087   1.091   1.158   1.207   1.215
  1.244   1.257   1.279   1.380   1.384   1.400   1.442   1.455
  1.564   1.803   1.845   2.019   2.413   2.418   2.516   2.902
  2.907   2.971   2.973   3.117   3.133   3.160   3.196   3.228
  3.442   3.453   3.475   3.495   3.499   3.509   3.544   3.596
  3.621   3.774   3.845   3.847   3.948   4.120   4.121   4.301
  4.306   4.308   4.400   4.526   4.526   4.734   4.781   4.977
  5.294   5.599   5.601   8.255  17.099  17.121  17.372  23.469
 23.547  23.600  23.614  23.663  24.134  27.873  28.057  28.085
 30.958  30.960  30.965  30.966  30.972  30.980  30.997  40.956
 40.984  41.170  41.197  41.252 189.429
 
 Beta MOs
 -- Occupied --
-88.859 -10.205  -7.943  -5.906  -5.900  -5.898  -0.773  -0.610
 -0.443  -0.436  -0.366  -0.237
 -- Virtual --
 -0.155  -0.012   0.021   0.029   0.029   0.066   0.083   0.086
  0.088   0.092   0.095   0.126   0.149   0.162   0.164   0.250
  0.255   0.273   0.295   0.295   0.352   0.368   0.413   0.415
  0.423   0.432   0.542   0.544   0.571   0.626   0.690   0.693
  0.709   0.808   0.858   0.867   0.868   0.902   0.910   0.918
  0.931   1.010   1.012   1.031   1.089   1.096   1.162   1.218
  1.223   1.255   1.270   1.282   1.382   1.392   1.406   1.447
  1.456   1.567   1.843   1.851   2.024   2.419   2.420   2.520
  2.904   2.909   2.973   2.977   3.122   3.137   3.160   3.203
  3.230   3.474   3.490   3.496   3.505   3.526   3.535   3.547
  3.621   3.623   3.779   3.847   3.853   3.952   4.124   4.125
  4.308   4.309   4.312   4.403   4.539   4.541   4.749   4.782
  4.981   5.302   5.600   5.606   8.266  17.124  17.124  17.376
 23.480  23.557  23.611  23.616  23.668  24.134  27.872  28.058
 28.085  30.963  30.965  30.969  30.969  30.976  30.980  30.998
 40.956  40.984  41.170  41.197  41.252 189.434
 --------------------------------------------------------------
 
          Ground-State Mulliken Net Atomic Charges

     Atom                 Charge (a.u.)    Spin (a.u.)
  --------------------------------------------------------
      1 C                    -0.170842      -0.025831
      2 S                    -0.189760       0.969228
      3 H                     0.122125       0.035257
      4 H                     0.119239       0.010673
      5 H                     0.119239       0.010673
  --------------------------------------------------------
  Sum of atomic charges =     0.000000
  Sum of spin   charges =     1.000000

 -----------------------------------------------------------------
                    Cartesian Multipole Moments
 -----------------------------------------------------------------
    Charge (ESU x 10^10)
                 0.0000
    Dipole Moment (Debye)
         X       0.0690      Y       0.0000      Z      -1.7287
       Tot       1.7301
    Quadrupole Moments (Debye-Ang)
        XX     -19.4027     XY       0.0000     YY     -21.8940
        XZ      -0.0858     YZ       0.0000     ZZ     -23.4708
    Octapole Moments (Debye-Ang^2)
       XXX       0.5523    XXY       0.0000    XYY      -0.8309
       YYY       0.0000    XXZ     -22.3496    XYZ       0.0000
       YYZ     -27.1532    XZZ      -0.2377    YZZ       0.0000
       ZZZ     -72.1965
    Hexadecapole Moments (Debye-Ang^3)
      XXXX     -30.1102   XXXY       0.0000   XXYY     -11.4272
      XYYY       0.0000   YYYY     -37.6568   XXXZ      -0.7303
      XXYZ       0.0000   XYYZ       0.1047   YYYZ       0.0000
      XXZZ     -51.5234   XYZZ       0.0000   YYZZ     -61.6456
      XZZZ      -0.4892   YZZZ       0.0000   ZZZZ    -286.0935
 -----------------------------------------------------------------
 Calculating analytic gradient of the SCF energy
 Gradient of XC Energy
            1           2           3           4           5
    1  -0.0126674  -0.0009485   0.1783531  -0.0823686  -0.0823686
    2   0.0000000  -0.0000000  -0.0000000   0.1578496  -0.1578496
    3   0.0816078   0.1429190  -0.0646268  -0.0799501  -0.0799501
 Gradient of SCF Energy
            1           2           3           4           5
    1  -0.0009502   0.0000386   0.0005246   0.0001935   0.0001935
    2  -0.0000000  -0.0000000  -0.0000000  -0.0001886   0.0001886
    3  -0.0000889   0.0000280  -0.0001435   0.0001022   0.0001022
 Max gradient component =       9.502E-04
 RMS gradient           =       3.028E-04
 Gradient time:  CPU 16.58 s  wall 16.63 s
 Writing REM_CC_EA            5
 ----------------------------------------------------
       Standard Nuclear Orientation (Angstroms)
    I     Atom         X            Y            Z
 ----------------------------------------------------
    1      C      -0.001764     0.001000     0.000911
    2      S       0.001848     0.000000     1.798452
    3      H       1.046652     0.000000    -0.312138
    4      H      -0.470496     0.896184    -0.400425
    5      H      -0.470495    -0.896184    -0.400425
 ----------------------------------------------------
 Nuclear Repulsion Energy =    48.4839945828 hartrees
 There are       13 alpha and       12 beta electrons

                       Distance Matrix (Angstroms)
             C (  1)   S (  2)   H (  3)   H (  4)
   S (  2)  1.797546
   H (  3)  1.094155  2.355039
   H (  4)  1.087260  2.421016  1.764278
   H (  5)  1.088907  2.421016  1.764278  1.792367
 
 Requested basis set is G3large
 There are 47 shells and 138 basis functions
 A cutoff of  1.0D-11 yielded   1110 shell pairs
 There are   9649 function pairs ( 12538 Cartesian)
Evaluating contribution to one-electron hamiltonian from nuclear
 Smallest overlap matrix eigenvalue = 4.22E-04
 Multipole matrices computed through 2nd order
 Guess MOs from SCF MO coefficient file
Reading MOs from coefficient file
Reading MOs from coefficient file
 An unrestricted hybrid HF-DFT SCF calculation will be
 performed using Pulay DIIS extrapolation
 Exchange:     0.2000 Hartree-Fock + 0.0800 Slater + 0.7200 Becke88
 Correlation:  0.8100 LYP + 0.1900 VWN1RPA
 Using SG-1 standard quadrature grid
 SCF converges when DIIS error is below 1.0E-08
 ---------------------------------------
  Cycle       Energy         DIIS Error
[...]
           13          14          15          16          17          18
    1  -0.2486967  -0.0136480   0.0164857   0.0279694   0.0293554   0.0627141
 Final Beta MO Eigenvalues
            1           2           3           4           5           6
    1 -88.8593872 -10.2049906  -7.9431077  -5.9055575  -5.8998649  -5.8980038
            7           8           9          10          11          12
    1  -0.7728812  -0.6097015  -0.4423187  -0.4362575  -0.3661917  -0.2368189
           13          14          15          16          17
    1  -0.1549649  -0.0121634   0.0207691   0.0292743   0.0294083
 Analysis of SCF Wavefunction
 
 --------------------------------------------------------------
                    Orbital Energies (a.u.)
 --------------------------------------------------------------
 
 Alpha MOs
 -- Occupied --
-88.865 -10.205  -7.948  -5.918  -5.908  -5.901  -0.788  -0.637
 -0.449  -0.444  -0.377  -0.288  -0.249
 -- Virtual --
 -0.014   0.016   0.028   0.029   0.063   0.079   0.083   0.086
  0.087   0.094   0.126   0.145   0.158   0.163   0.230   0.233
  0.266   0.273   0.285   0.348   0.364   0.395   0.412   0.412
  0.430   0.538   0.544   0.564   0.624   0.686   0.692   0.699
  0.800   0.840   0.851   0.861   0.886   0.892   0.905   0.914
  0.980   0.980   1.022   1.087   1.090   1.158   1.207   1.215
  1.244   1.257   1.278   1.380   1.384   1.400   1.442   1.455
  1.564   1.803   1.845   2.019   2.413   2.418   2.516   2.902
  2.907   2.971   2.973   3.117   3.134   3.159   3.197   3.227
  3.442   3.453   3.475   3.495   3.499   3.509   3.544   3.596
  3.621   3.774   3.845   3.848   3.947   4.120   4.121   4.303
  4.305   4.308   4.399   4.526   4.526   4.734   4.780   4.977
  5.294   5.597   5.602   8.255  17.099  17.121  17.372  23.469
 23.547  23.600  23.614  23.663  24.133  27.873  28.058  28.084
 30.958  30.960  30.965  30.966  30.972  30.980  30.997  40.956
 40.984  41.170  41.197  41.252 189.429
 
 Beta MOs
 -- Occupied --
-88.859 -10.205  -7.943  -5.906  -5.900  -5.898  -0.773  -0.610
 -0.442  -0.436  -0.366  -0.237
 -- Virtual --
 -0.155  -0.012   0.021   0.029   0.029   0.066   0.083   0.086
  0.088   0.092   0.095   0.126   0.149   0.162   0.163   0.250
  0.255   0.273   0.295   0.295   0.352   0.368   0.413   0.415
  0.424   0.432   0.542   0.544   0.571   0.626   0.690   0.693
  0.709   0.808   0.858   0.867   0.868   0.902   0.910   0.918
  0.931   1.010   1.012   1.031   1.089   1.096   1.162   1.218
  1.223   1.255   1.270   1.282   1.382   1.392   1.406   1.447
  1.456   1.567   1.843   1.851   2.024   2.419   2.420   2.520
  2.904   2.910   2.973   2.977   3.122   3.138   3.160   3.203
  3.229   3.475   3.490   3.496   3.505   3.526   3.535   3.547
  3.621   3.622   3.779   3.846   3.854   3.952   4.124   4.125
  4.307   4.310   4.312   4.402   4.539   4.541   4.749   4.782
  4.980   5.302   5.599   5.607   8.266  17.124  17.124  17.376
 23.480  23.557  23.611  23.616  23.668  24.133  27.872  28.058
 28.084  30.963  30.965  30.969  30.969  30.976  30.980  30.998
 40.956  40.984  41.170  41.197  41.252 189.434
 --------------------------------------------------------------
 
          Ground-State Mulliken Net Atomic Charges

     Atom                 Charge (a.u.)    Spin (a.u.)
  --------------------------------------------------------
      1 C                    -0.170730      -0.025843
      2 S                    -0.189644       0.969348
      3 H                     0.122262       0.035097
      4 H                     0.119139       0.010722
      5 H                     0.118974       0.010676
  --------------------------------------------------------
  Sum of atomic charges =     0.000000
  Sum of spin   charges =     1.000000

 -----------------------------------------------------------------
                    Cartesian Multipole Moments
 -----------------------------------------------------------------
    Charge (ESU x 10^10)
                 0.0000
    Dipole Moment (Debye)
         X       0.0694      Y       0.0004      Z      -1.7278
       Tot       1.7291
    Quadrupole Moments (Debye-Ang)
        XX     -19.4012     XY      -0.0033     YY     -21.8962
        XZ      -0.0852     YZ       0.0009     ZZ     -23.4684
    Octapole Moments (Debye-Ang^2)
       XXX       0.5403    XXY       0.0004    XYY      -0.8345
       YYY       0.0013    XXZ     -22.3478    XYZ      -0.0056
       YYZ     -27.1507    XZZ      -0.2415    YZZ       0.0011
       ZZZ     -72.1888
    Hexadecapole Moments (Debye-Ang^3)
      XXXX     -30.1029   XXXY      -0.0051   XXYY     -11.4265
      XYYY      -0.0053   YYYY     -37.6671   XXXZ      -0.7318
      XXYZ      -0.0005   XYYZ       0.1046   YYYZ      -0.0014
      XXZZ     -51.5199   XYZZ      -0.0113   YYZZ     -61.6453
      XZZZ      -0.4921   YZZZ       0.0028   ZZZZ    -286.0850
 -----------------------------------------------------------------
 Calculating analytic gradient of the SCF energy
 Gradient of XC Energy
            1           2           3           4           5
    1  -0.0124868  -0.0010384   0.1784994  -0.0825246  -0.0824496
    2  -0.0001259   0.0000261  -0.0000118   0.1576793  -0.1575677
    3   0.0817752   0.1429369  -0.0647510  -0.0798929  -0.0800681
 Gradient of SCF Energy
            1           2           3           4           5
    1   0.0000618   0.0000201  -0.0000091  -0.0000019  -0.0000709
    2   0.0001778   0.0000266  -0.0000225  -0.0000286  -0.0001533
    3   0.0001013   0.0000393   0.0000028  -0.0000002  -0.0001432
 Max gradient component =       1.778E-04
 RMS gradient           =       8.116E-05
 Gradient time:  CPU 19.34 s  wall 19.40 s
Dipole drv :
gprntSymmMtrx error report: 
 Final Hessian.
            1           2           3           4           5           6
    1   0.4886294   0.0000040   0.0290939  -0.0176857  -0.0000030  -0.0157995
    2   0.0000040   0.4387997   0.0000011  -0.0000046  -0.0024146  -0.0000020
    3   0.0290939   0.0000011   0.3394853  -0.0046115  -0.0000055  -0.1424217
    4  -0.0176857  -0.0000046  -0.0046115   0.0140399   0.0000027   0.0037884
    5  -0.0000030  -0.0024146  -0.0000055   0.0000027   0.0117407   0.0000038
    6  -0.0157995  -0.0000020  -0.1424217   0.0037884   0.0000038   0.2044681
    7  -0.2792052  -0.0000013   0.0647018   0.0001937   0.0000003   0.0044579
    8  -0.0000008  -0.0084011   0.0000012  -0.0000022  -0.0093444  -0.0000003
    9   0.0825664  -0.0000064  -0.0550853   0.0166090   0.0000029  -0.0183512
   10  -0.0958705   0.1066903  -0.0445949   0.0017276  -0.0053912   0.0037789
   11   0.0953003  -0.2140434   0.0737414  -0.0014321   0.0000220   0.0012210
   12  -0.0479346   0.0941959  -0.0709847  -0.0078851   0.0140818  -0.0218491
   13  -0.0958581  -0.1065964  -0.0445943   0.0017158   0.0053670   0.0037780
   14  -0.0953066  -0.2140379  -0.0737415   0.0014392   0.0000211  -0.0012210
   15  -0.0479355  -0.0942398  -0.0709885  -0.0078876  -0.0140684  -0.0218461
            7           8           9          10          11          12
    1  -0.2792052  -0.0000008   0.0825664  -0.0958705   0.0953003  -0.0479346
    2  -0.0000013  -0.0084011  -0.0000064   0.1066903  -0.2140434   0.0941959
    3   0.0647018   0.0000012  -0.0550853  -0.0445949   0.0737414  -0.0709847
    4   0.0001937  -0.0000022   0.0166090   0.0017276  -0.0014321  -0.0078851
    5   0.0000003  -0.0093444   0.0000029  -0.0053912   0.0000220   0.0140818
    6   0.0044579  -0.0000003  -0.0183512   0.0037789   0.0012210  -0.0218491
    7   0.3054575   0.0000024  -0.0773205  -0.0132231  -0.0004184   0.0040790
    8   0.0000024   0.0312412   0.0000002   0.0217419  -0.0067335  -0.0119112
    9  -0.0773205   0.0000002   0.0637947  -0.0109259  -0.0001155   0.0048244
   10  -0.0132231   0.0217419  -0.0109259   0.0986450  -0.1082396   0.0441253
   11  -0.0004184  -0.0067335  -0.0001155  -0.1082396   0.2441639  -0.0855974
   12   0.0040790  -0.0119112   0.0048244   0.0441253  -0.0855974   0.0818120
   13  -0.0132242  -0.0217693  -0.0109314   0.0087100   0.0147686   0.0076067
   14   0.0004187  -0.0067342   0.0001200  -0.0147893  -0.0233877  -0.0107577
   15   0.0040819   0.0119259   0.0048214   0.0076211   0.0107648   0.0061994
           13          14          15
    1  -0.0958581  -0.0953066  -0.0479355
    2  -0.1065964  -0.2140379  -0.0942398
    3  -0.0445943  -0.0737415  -0.0709885
    4   0.0017158   0.0014392  -0.0078876
    5   0.0053670   0.0000211  -0.0140684
    6   0.0037780  -0.0012210  -0.0218461
    7  -0.0132242   0.0004187   0.0040819
    8  -0.0217693  -0.0067342   0.0119259
    9  -0.0109314   0.0001200   0.0048214
   10   0.0087100  -0.0147893   0.0076211
   11   0.0147686  -0.0233877   0.0107648
   12   0.0076067  -0.0107577   0.0061994
   13   0.0986676   0.1082192   0.0441325
   14   0.1082192   0.2441617   0.0856066
   15   0.0441325   0.0856066   0.0818026
 Writing REM_CC_EA            5
 ----------------------------------------------------
       Standard Nuclear Orientation (Angstroms)
    I     Atom         X            Y            Z
 ----------------------------------------------------
    1      C      -0.001764     0.000000     0.000911
    2      S       0.001848     0.000000     1.798452
    3      H       1.046652     0.000000    -0.312138
    4      H      -0.470496     0.896184    -0.400425
    5      H      -0.470495    -0.896184    -0.400425
 ----------------------------------------------------
 Nuclear Repulsion Energy =    48.4839976168 hartrees
 There are       13 alpha and       12 beta electrons
 old dipole drv.
            1           2           3           4           5           6
    1   0.0643824   0.0000278   0.0743144  -0.1653642  -0.0000391  -0.0311717
    2   0.0000006  -0.1443964  -0.0000047   0.0000016  -0.0840047  -0.0000356
    3   0.1373220   0.0000176   0.0559790   0.0026381   0.0001266   0.0648936
            7           8           9          10          11          12
    1  -0.0285674   0.0001121   0.0003073   0.0648336   0.0589930  -0.0220092
    2  -0.0000059   0.1608455  -0.0000369   0.0675807   0.0336296   0.0728632
    3  -0.0040449   0.0000179   0.0120722  -0.0679491   0.0448801  -0.0664157
           13          14          15
    1   0.0648701  -0.0590739  -0.0218196
    2  -0.0672786   0.0336476  -0.0730376
    3  -0.0679640  -0.0449294  -0.0664874
 New transposed dipole drv.
            1           2           3
    1   0.0643824   0.0000006   0.1373220
    2   0.0000278  -0.1443964   0.0000176
    3   0.0743144  -0.0000047   0.0559790
    4  -0.1653642   0.0000016   0.0026381
    5  -0.0000391  -0.0840047   0.0001266
    6  -0.0311717  -0.0000356   0.0648936
    7  -0.0285674  -0.0000059  -0.0040449
    8   0.0001121   0.1608455   0.0000179
    9   0.0003073  -0.0000369   0.0120722
   10   0.0648336   0.0675807  -0.0679491
   11   0.0589930   0.0336296   0.0448801
   12  -0.0220092   0.0728632  -0.0664157
   13   0.0648701  -0.0672786  -0.0679640
   14  -0.0590739   0.0336476  -0.0449294
   15  -0.0218196  -0.0730376  -0.0664874
FINAL TENSOR RESULT:
Order 2, Length 15
Order 1, Length 15
   0.4886294   0.0000040   0.0290939  -0.0176857  -0.0000030  -0.0157995  -0.2792052  -0.0000008   0.0825664  -0.0958705   0.0953003  -0.0479346  -0.0958581  -0.0953066  -0.0479355
Order 1, Length 15
   0.0000040   0.4387997   0.0000011  -0.0000046  -0.0024146  -0.0000020  -0.0000013  -0.0084011  -0.0000064   0.1066903  -0.2140434   0.0941959  -0.1065964  -0.2140379  -0.0942398
Order 1, Length 15
   0.0290939   0.0000011   0.3394853  -0.0046115  -0.0000055  -0.1424217   0.0647018   0.0000012  -0.0550853  -0.0445949   0.0737414  -0.0709847  -0.0445943  -0.0737415  -0.0709885
Order 1, Length 15
  -0.0176857  -0.0000046  -0.0046115   0.0140399   0.0000027   0.0037884   0.0001937  -0.0000022   0.0166090   0.0017276  -0.0014321  -0.0078851   0.0017158   0.0014392  -0.0078876
Order 1, Length 15
  -0.0000030  -0.0024146  -0.0000055   0.0000027   0.0117407   0.0000038   0.0000003  -0.0093444   0.0000029  -0.0053912   0.0000220   0.0140818   0.0053670   0.0000211  -0.0140684
Order 1, Length 15
  -0.0157995  -0.0000020  -0.1424217   0.0037884   0.0000038   0.2044681   0.0044579  -0.0000003  -0.0183512   0.0037789   0.0012210  -0.0218491   0.0037780  -0.0012210  -0.0218461
Order 1, Length 15
  -0.2792052  -0.0000013   0.0647018   0.0001937   0.0000003   0.0044579   0.3054575   0.0000024  -0.0773205  -0.0132231  -0.0004184   0.0040790  -0.0132242   0.0004187   0.0040819
Order 1, Length 15
  -0.0000008  -0.0084011   0.0000012  -0.0000022  -0.0093444  -0.0000003   0.0000024   0.0312412   0.0000002   0.0217419  -0.0067335  -0.0119112  -0.0217693  -0.0067342   0.0119259
Order 1, Length 15
   0.0825664  -0.0000064  -0.0550853   0.0166090   0.0000029  -0.0183512  -0.0773205   0.0000002   0.0637947  -0.0109259  -0.0001155   0.0048244  -0.0109314   0.0001200   0.0048214
Order 1, Length 15
  -0.0958705   0.1066903  -0.0445949   0.0017276  -0.0053912   0.0037789  -0.0132231   0.0217419  -0.0109259   0.0986450  -0.1082396   0.0441253   0.0087100  -0.0147893   0.0076211
Order 1, Length 15
   0.0953003  -0.2140434   0.0737414  -0.0014321   0.0000220   0.0012210  -0.0004184  -0.0067335  -0.0001155  -0.1082396   0.2441639  -0.0855974   0.0147686  -0.0233877   0.0107648
Order 1, Length 15
  -0.0479346   0.0941959  -0.0709847  -0.0078851   0.0140818  -0.0218491   0.0040790  -0.0119112   0.0048244   0.0441253  -0.0855974   0.0818120   0.0076067  -0.0107577   0.0061994
Order 1, Length 15
  -0.0958581  -0.1065964  -0.0445943   0.0017158   0.0053670   0.0037780  -0.0132242  -0.0217693  -0.0109314   0.0087100   0.0147686   0.0076067   0.0986676   0.1082192   0.0441325
Order 1, Length 15
  -0.0953066  -0.2140379  -0.0737415   0.0014392   0.0000211  -0.0012210   0.0004187  -0.0067342   0.0001200  -0.0147893  -0.0233877  -0.0107577   0.1082192   0.2441617   0.0856066
Order 1, Length 15
  -0.0479355  -0.0942398  -0.0709885  -0.0078876  -0.0140684  -0.0218461   0.0040819   0.0119259   0.0048214   0.0076211   0.0107648   0.0061994   0.0441325   0.0856066   0.0818026


 # Finishing finite difference calculation for IDERIV #
 ######################################################
 ######################################################
 Requested basis set is G3large
 There are 47 shells and 138 basis functions
 **********************************************************************
 **                                                                  **
 **                       VIBRATIONAL ANALYSIS                       **
 **                       --------------------                       **
 **                                                                  **
 **        VIBRATIONAL FREQUENCIES (CM**-1) AND NORMAL MODES         **
 **     FORCE CONSTANTS (mDYN/ANGSTROM) AND REDUCED MASSES (AMU)     **
 **                  INFRARED INTENSITIES (KM/MOL)                   **
 **                                                                  **
 **********************************************************************
 

 Mode:                 1                      2                      3
 Frequency:       601.73                 712.88                 862.19
 Force Cnst:      0.2635                 1.6141                 0.5405
 Red. Mass:       1.2352                 5.3906                 1.2340
 IR Active:          YES                    YES                    YES
 IR Intens:       35.046                  0.718                  1.006
 Raman Active:       YES                    YES                    YES
               X      Y      Z        X      Y      Z        X      Y      Z
 C          0.000  0.139  0.000   -0.060  0.000  0.501   -0.117  0.000 -0.060
 S          0.000 -0.023  0.000    0.011  0.000 -0.226    0.024  0.000  0.024
 H          0.000 -0.470  0.000    0.035  0.000  0.725    0.136  0.000  0.735
 H         -0.160 -0.224 -0.551    0.161  0.009  0.241    0.248  0.042 -0.385
 H          0.159 -0.224  0.552    0.161 -0.009  0.240    0.249 -0.043 -0.384
 TransDip   0.000 -0.190  0.000    0.021  0.000 -0.017    0.030  0.000  0.010

 Mode:                 4                      5                      6
 Frequency:      1335.58                1376.46                1474.24
 Force Cnst:      1.1981                 1.1391                 1.3656
 Red. Mass:       1.1399                 1.0204                 1.0664
 IR Active:          YES                    YES                    YES
 IR Intens:        2.784                  8.606                 13.764
 Raman Active:       YES                    YES                    YES
               X      Y      Z        X      Y      Z        X      Y      Z
 C          0.024  0.000 -0.106    0.000 -0.030  0.000   -0.066  0.000 -0.031
 S          0.000  0.000 -0.009    0.000 -0.009  0.000   -0.002  0.000  0.000
 H          0.201 -0.001  0.578    0.000  0.628  0.001   -0.098  0.000 -0.208
 H         -0.246  0.096  0.488    0.359  0.014 -0.414    0.477  0.403  0.284
 H         -0.245 -0.096  0.486   -0.360  0.013  0.417    0.478 -0.403  0.284
 TransDip  -0.050  0.000 -0.019    0.000  0.094  0.000    0.091  0.000 -0.077

 Mode:                 7                      8                      9
 Frequency:      3016.08                3085.37                3108.70
 Force Cnst:      5.5535                 6.1167                 6.2611
 Red. Mass:       1.0362                 1.0906                 1.0996
 IR Active:          YES                    YES                    YES
 IR Intens:        4.225                 15.829                  1.178
 Raman Active:       YES                    YES                    YES
               X      Y      Z        X      Y      Z        X      Y      Z
 C         -0.032  0.000  0.039   -0.084  0.000 -0.020    0.000 -0.091  0.000
 S          0.000  0.000  0.001    0.000  0.000  0.000    0.000  0.000  0.000
 H          0.775  0.000 -0.219    0.544  0.000 -0.170    0.000 -0.044  0.000
 H         -0.191  0.346 -0.135    0.233 -0.488  0.202   -0.324  0.570 -0.256
 H         -0.191 -0.346 -0.135    0.234  0.489  0.202    0.324  0.570  0.255
 TransDip   0.001  0.000  0.066   -0.056  0.000 -0.114    0.000 -0.035  0.000

 STANDARD THERMODYNAMIC QUANTITIES AT   298.18 K  AND     1.00 ATM

   This Molecule has  0 Imaginary Frequencies
   Zero point vibrational energy:       22.263 kcal/mol

   Atom    1 Element C  Has Mass   12.00000
   Atom    2 Element S  Has Mass   31.97207
   Atom    3 Element H  Has Mass    1.00783
   Atom    4 Element H  Has Mass    1.00783
   Atom    5 Element H  Has Mass    1.00783
   Molecular Mass:    46.995560 amu
   Principal axes and moments of inertia in atomic units:
                             1           2           3
    Eigenvalues --       11.31606   134.70660   134.95271
          X              -0.00048     0.00000     1.00000
          Y               0.00000     1.00000     0.00000
          Z               1.00000     0.00000     0.00048
   Rotational Symmetry Number is   1
   The Molecule is an Asymmetric Top
   Translational Enthalpy:        0.889 kcal/mol
   Rotational Enthalpy:           0.889 kcal/mol
   Vibrational Enthalpy:         22.484 kcal/mol
   gas constant (RT):             0.593 kcal/mol
   Translational Entropy:        37.468  cal/mol.K
   Rotational Entropy:           19.959  cal/mol.K
   Vibrational Entropy:           0.957  cal/mol.K

   Total Enthalpy:               24.854 kcal/mol
   Total Entropy:                58.383  cal/mol.K
 Total job time:  1944.48s(wall), 1934.45s(cpu) 
 Wed Jul 24 17:17:23 2013

        *************************************************************
        *                                                           *
        *  Thank you very much for using Q-Chem.  Have a nice day.  *
        *                                                           *
        *************************************************************


0 sent ACK to 0 
now end server 0 ... 
