Process 0 of 1 is on cl244.stfx.acenet.ca - thread support 1
initial socket setup ...start
initial socket setup ...done 
now start server 0 ... 

cmd = /usr/bin/ssh clhead /usr/local/qchem/bin/get_hostid 155345590 > /globalscratch/itamblyn/bnl/g297_b3lyp_neut_g03Large_worked/g2g71015/omega400/qchem20501/lic.dat
                  Welcome to Q-Chem
     A Quantum Leap Into The Future Of Chemistry

 Y. Shao, L. Fusti-Molnar, Y. Jung, J. Kussmann, C. Ochsenfeld,
 S. T. Brown, A. T. B. Gilbert, L. V. Slipchenko,S. V. Levchenko,
 D. P. O'Neill, R. A. DiStasio Jr., R. C. Lochan, T. Wang,
 G. J. O. Beran, N. A. Besley, J. M. Herbert, C. Y. Lin,
 T. Van Voorhis, S. H. Chien, A. Sodt, R. P. Steele, 
 V. A. Rassolov, P. E. Maslen, P. P. Korambath, R. D. Adamson,
 B. Austin, J. Baker, E. F. C. Byrd, H. Dachsel, R. J. Doerksen,
 A. Dreuw, B. D. Dunietz, A. D. Dutoi, T. R. Furlani,
 S. R. Gwaltney, A. Heyden, S. Hirata, C.-P. Hsu, G. Kedziora,
 R. Z. Khaliullin, P. Klunzinger, A. M. Lee, M. S. Lee, W. Liang,
 I. Lotan, N. Nair, B. Peters, E. I. Proynov, P. A. Pieniazek, 
 Y. M. Rhee, J. Ritchie, E. Rosta, C. D. Sherrill, 
 A. C. Simmonett, J. E. Subotnik, H. L. Woodcock III,
 W. Zhang, A. T. Bell, A. K. Chakraborty, D. M. Chipman,
 F. J. Keil, A. Warshel, W. J. Hehre, H. F. Schaefer III,
 J. Kong, A. I. Krylov, P. M. W. Gill, M. Head-Gordon,
 Q-Chem, Version 3.1, Q-Chem, Inc., Pittsburgh, PA (2007).

 Additional authors for Version 3.1: 
 Z. Gan, Y. Zhao, N. E. Schultz, D. Truhlar, E. Epifanovsky and M. Oana.

 Additional authors for Version 3.2: 
 R. Baer, B. R. Brooks, D. Casanova, J.-D. Chai, C.-L. Cheng, 
 C. Cramer, D. Crittenden, A. Ghysels, G. Hawkins, E. G. Hohenstein, 
 C. Kelley, W. Kurlancheek, D. Liotard, E. Livshits, P. Manohar, 
 A. Marenich, D. Neuhauser, R. Olson, M. A. Rohrdanz, K. S. Thanthiriwatte, 
 A. J. W. Thom, V. Vanovschi, C. F. Williams, Q. Wu and Z.-Q. You. 


 Intel X86 Linux Version

 Q-chem begins on Tue Apr 12 20:31:12 2011  

 Parallel job on  1  processors
Processing $rem in /usr/local/qchem/config/preferences.

theFileMan(): MAXOPENFILES=974 MAX_SUB_FILE_NUM=16
Maximum size of a physical file is 2.0 GB, maximum size of a tmp-file is 32.0 GB


--------------------------------------------------------------
User input:
--------------------------------------------------------------

$molecule
-1,1
Si
X,1,1.
H,1,R,2,BETA
H,1,R,2,BETA,3,120.,0
H,1,R,2,BETA,3,-120.,0

 R=1.48898721
 BETA=108.02552928

$end

$comment
negative
$end

$xc_functional
   X HF 1.0
   X BNL 1.0
   C LYP 1.0
$end

$rem
SYMMETRY_DECOMPOSITION	0
exchange 		general
BASIS                   g3large
omega			400
separate_jk		true
mem_static              760
max_scf_cycles          200
scf_final_print         1
sym_ignore              true
$end

--------------------------------------------------------------
 Writing REM_CC_EA            4
 ----------------------------------------------------
       Standard Nuclear Orientation (Angstroms)
    I     Atom         X            Y            Z
 ----------------------------------------------------
    1      Si      0.000000     0.000000     0.000000
    2      H       1.415906     0.000000    -0.460753
    3      H      -0.707953    -1.226210    -0.460753
    4      H      -0.707953     1.226210    -0.460753
 ----------------------------------------------------
 Nuclear Repulsion Energy =    15.5738830141 hartrees
 There are        9 alpha and        9 beta electrons
 Requested basis set is G3large
 There are 37 shells and 96 basis functions

Total QAlloc Memory Limit   2000 MB
Mega-Array Size       743 MB
MEM_STATIC part       760 MB

                       Distance Matrix (Angstroms)
             Si(  1)   H (  2)   H (  3)
   H (  2)  1.488987
   H (  3)  1.488987  2.452421
   H (  4)  1.488987  2.452421  2.452421
 
 A cutoff of  1.0D-08 yielded    703 shell pairs
 There are   4798 function pairs (  6229 Cartesian)
Evaluating contribution to one-electron hamiltonian from nuclear
 Smallest overlap matrix eigenvalue = 1.72E-03
 Multipole matrices computed through 2nd order

  Scale SEOQF with 1.000000e-01/1.000000e-01/1.000000e-01

 Standard Electronic Orientation quadrupole field applied
 Nucleus-field energy     =     0.0000000003 hartrees
 Guess from superposition of atomic densities
 Warning:  Energy on first SCF cycle will be non-variational
 A restricted hybrid HF-DFT SCF calculation will be
 performed using Pulay DIIS extrapolation
 Exchange:     1.0000 Hartree-Fock + 1.0000 BNL
 Correlation:  1.0000 LYP
 Using SG-1 standard quadrature grid
 SCF converges when DIIS error is below 1.0E-05
 Warning!  Inaccurate integrated density:
   Number of electrons =    18
   Numerical integral  =    16.999930810780
   Relative error      =    -5.5559399401 %
 ---------------------------------------
  Cycle       Energy         DIIS Error
 ---------------------------------------
    1    -289.5521117096      2.82E-02
    2    -289.7168497946      3.65E-03
    3    -289.7495236518      2.01E-03
    4    -289.7536981201      4.15E-04
    5    -289.7540714496      1.38E-04
    6    -289.7541707623      3.86E-05
    7    -289.7541822620      1.19E-05
    8    -289.7541837929      4.17E-06 Convergence criterion met
 ---------------------------------------
 One-Electron    Energy =  -437.6882735542
 Total Coulomb   Energy =   152.9245344227
 Alpha Exchange  Energy =    -1.7711247750
 Beta  Exchange  Energy =    -1.7711247750
 DFT   Exchange  Energy =   -16.3761510890
 DFT Correlation Energy =    -0.6459270366
 Nuclear Repu.   Energy =    15.5738830143
 Nuclear Attr.   Energy =  -726.8211710067
 Kinetic         Energy =   289.1328974525
 SCF time:  CPU 15.85 s  wall 24.12 s
 Final Alpha MO Eigenvalues
            1           2           3           4           5           6
    1 -65.0482588  -4.9772827  -3.4105856  -3.4105602  -3.4075870  -0.4347405
            7           8           9          10          11          12
    1  -0.2388502  -0.2388423  -0.0435339   0.1802207   0.2025001   0.2025006
           13          14
    1   0.2183197   0.2183272
 Analysis of SCF Wavefunction
 
 --------------------------------------------------------------
                    Orbital Energies (a.u.)
 --------------------------------------------------------------
 
 Alpha MOs
 -- Occupied --
-65.048  -4.977  -3.411  -3.411  -3.408  -0.435  -0.239  -0.239
 -0.044
 -- Virtual --
  0.180   0.203   0.203   0.218   0.218   0.223   0.266   0.357
  0.357   0.370   0.428   0.428   0.489   0.521   0.521   0.558
  0.577   0.577   0.673   0.742   0.766   0.766   0.779   0.779
  0.794   0.814   0.984   0.984   1.018   1.029   1.029   1.122
  1.122   1.158   1.345   1.400   1.404   1.404   1.447   1.447
  1.566   1.618   1.618   1.651   1.822   1.822   2.460   2.461
  2.467   2.467   2.532   2.532   2.635   3.124   3.124   3.252
  3.848   3.850   3.946   4.106   4.107   4.338   4.340   4.340
  4.406   4.406   4.408   4.664   4.791   4.792   6.213  11.590
 11.669  11.669  17.807  17.838  17.913  18.068  18.162  22.492
 22.494  22.502  22.506  22.521  22.523  22.542 141.507
 --------------------------------------------------------------
 
          Ground-State Mulliken Net Atomic Charges

     Atom                 Charge (a.u.)
  ----------------------------------------
      1 Si                   -0.640966
      2 H                    -0.119629
      3 H                    -0.119669
      4 H                    -0.119736
  ----------------------------------------
  Sum of atomic charges =    -1.000000

 -----------------------------------------------------------------
                    Cartesian Multipole Moments
 -----------------------------------------------------------------
    Charge (ESU x 10^10)
                -4.8032
    Dipole Moment (Debye)
         X       0.0001      Y       0.0001      Z      -1.0426
       Tot       1.0426
    Quadrupole Moments (Debye-Ang)
        XX     -23.4307     XY       0.0000     YY     -23.4308
        XZ       0.0003     YZ       0.0003     ZZ     -30.7983
    Octapole Moments (Debye-Ang^2)
       XXX      -2.0763    XXY       0.0001    XYY       2.0764
       YYY       0.0001    XXZ       1.0993    XYZ       0.0001
       YYZ       1.1003    XZZ       0.0005    YZZ       0.0010
       ZZZ      -3.0273
    Hexadecapole Moments (Debye-Ang^3)
      XXXX     -78.9629   XXXY      -0.0001   XXYY     -26.3211
      XYYY       0.0004   YYYY     -78.9635   XXXZ       1.0924
      XXYZ       0.0005   XYYZ      -1.0922   YYYZ       0.0016
      XXZZ     -35.6485   XYZZ       0.0000   YYZZ     -35.6485
      XZZZ       0.0008   YZZZ       0.0016   ZZZZ    -128.7626
 -----------------------------------------------------------------
 Total job time:  25.17s(wall), 15.95s(cpu) 
 Tue Apr 12 20:31:37 2011

        *************************************************************
        *                                                           *
        *  Thank you very much for using Q-Chem.  Have a nice day.  *
        *                                                           *
        *************************************************************


0 sent ACK to 0 
now end server 0 ... 
 
**********************************************************************
Job 2 of 3 
**********************************************************************
 
Process 0 of 1 is on cl244.stfx.acenet.ca - thread support 1
initial socket setup ...start
initial socket setup ...done 
now start server 0 ... 

cmd = /usr/bin/ssh clhead /usr/local/qchem/bin/get_hostid 1003021703 > /globalscratch/itamblyn/bnl/g297_b3lyp_neut_g03Large_worked/g2g71015/omega400/qchem20501/lic.dat
                  Welcome to Q-Chem
     A Quantum Leap Into The Future Of Chemistry

 Y. Shao, L. Fusti-Molnar, Y. Jung, J. Kussmann, C. Ochsenfeld,
 S. T. Brown, A. T. B. Gilbert, L. V. Slipchenko,S. V. Levchenko,
 D. P. O'Neill, R. A. DiStasio Jr., R. C. Lochan, T. Wang,
 G. J. O. Beran, N. A. Besley, J. M. Herbert, C. Y. Lin,
 T. Van Voorhis, S. H. Chien, A. Sodt, R. P. Steele, 
 V. A. Rassolov, P. E. Maslen, P. P. Korambath, R. D. Adamson,
 B. Austin, J. Baker, E. F. C. Byrd, H. Dachsel, R. J. Doerksen,
 A. Dreuw, B. D. Dunietz, A. D. Dutoi, T. R. Furlani,
 S. R. Gwaltney, A. Heyden, S. Hirata, C.-P. Hsu, G. Kedziora,
 R. Z. Khaliullin, P. Klunzinger, A. M. Lee, M. S. Lee, W. Liang,
 I. Lotan, N. Nair, B. Peters, E. I. Proynov, P. A. Pieniazek, 
 Y. M. Rhee, J. Ritchie, E. Rosta, C. D. Sherrill, 
 A. C. Simmonett, J. E. Subotnik, H. L. Woodcock III,
 W. Zhang, A. T. Bell, A. K. Chakraborty, D. M. Chipman,
 F. J. Keil, A. Warshel, W. J. Hehre, H. F. Schaefer III,
 J. Kong, A. I. Krylov, P. M. W. Gill, M. Head-Gordon,
 Q-Chem, Version 3.1, Q-Chem, Inc., Pittsburgh, PA (2007).

 Additional authors for Version 3.1: 
 Z. Gan, Y. Zhao, N. E. Schultz, D. Truhlar, E. Epifanovsky and M. Oana.

 Additional authors for Version 3.2: 
 R. Baer, B. R. Brooks, D. Casanova, J.-D. Chai, C.-L. Cheng, 
 C. Cramer, D. Crittenden, A. Ghysels, G. Hawkins, E. G. Hohenstein, 
 C. Kelley, W. Kurlancheek, D. Liotard, E. Livshits, P. Manohar, 
 A. Marenich, D. Neuhauser, R. Olson, M. A. Rohrdanz, K. S. Thanthiriwatte, 
 A. J. W. Thom, V. Vanovschi, C. F. Williams, Q. Wu and Z.-Q. You. 


 Intel X86 Linux Version

 Q-chem begins on Tue Apr 12 20:31:41 2011  

 Parallel job on  1  processors
Processing $rem in /usr/local/qchem/config/preferences.

theFileMan(): MAXOPENFILES=974 MAX_SUB_FILE_NUM=16
Maximum size of a physical file is 2.0 GB, maximum size of a tmp-file is 32.0 GB


--------------------------------------------------------------
User input:
--------------------------------------------------------------

$molecule
0,2
Si
X,1,1.
H,1,R,2,BETA
H,1,R,2,BETA,3,120.,0
H,1,R,2,BETA,3,-120.,0

 R=1.48898721
 BETA=108.02552928

$end

$comment
neutral
$end

$xc_functional
   X HF 1.0
   X BNL 1.0
   C LYP 1.0
$end

$rem
SYMMETRY_DECOMPOSITION	0
exchange 		general
BASIS                   g3large
omega			400
separate_jk		true
mem_static              760
max_scf_cycles          200
scf_final_print         1
sym_ignore              true
$end

--------------------------------------------------------------
 Writing REM_CC_EA            4
 ----------------------------------------------------
       Standard Nuclear Orientation (Angstroms)
    I     Atom         X            Y            Z
 ----------------------------------------------------
    1      Si      0.000000     0.000000     0.000000
    2      H       1.415906     0.000000    -0.460753
    3      H      -0.707953    -1.226210    -0.460753
    4      H      -0.707953     1.226210    -0.460753
 ----------------------------------------------------
 Nuclear Repulsion Energy =    15.5738830141 hartrees
 There are        9 alpha and        8 beta electrons
 Requested basis set is G3large
 There are 37 shells and 96 basis functions

Total QAlloc Memory Limit   2000 MB
Mega-Array Size       743 MB
MEM_STATIC part       760 MB

                       Distance Matrix (Angstroms)
             Si(  1)   H (  2)   H (  3)
   H (  2)  1.488987
   H (  3)  1.488987  2.452421
   H (  4)  1.488987  2.452421  2.452421
 
 A cutoff of  1.0D-08 yielded    703 shell pairs
 There are   4798 function pairs (  6229 Cartesian)
Evaluating contribution to one-electron hamiltonian from nuclear
 Smallest overlap matrix eigenvalue = 1.72E-03
 Multipole matrices computed through 2nd order

  Scale SEOQF with 1.000000e-01/1.000000e-01/1.000000e-01

 Standard Electronic Orientation quadrupole field applied
 Nucleus-field energy     =     0.0000000003 hartrees
 Guess from superposition of atomic densities
 Warning:  Energy on first SCF cycle will be non-variational
 An unrestricted hybrid HF-DFT SCF calculation will be
 performed using Pulay DIIS extrapolation
 Exchange:     1.0000 Hartree-Fock + 1.0000 BNL
 Correlation:  1.0000 LYP
 Using SG-1 standard quadrature grid
 SCF converges when DIIS error is below 1.0E-05
 ---------------------------------------
  Cycle       Energy         DIIS Error
 ---------------------------------------
    1    -289.5521117096      2.82E-02
    2    -289.7077137512      2.38E-03
    3    -289.7213887669      8.11E-04
    4    -289.7225338029      2.64E-04
    5    -289.7227781542      7.25E-05
    6    -289.7228198096      2.21E-05
    7    -289.7228260325      7.25E-06 Convergence criterion met
 ---------------------------------------
 One-Electron    Energy =  -433.4444477464
 Total Coulomb   Energy =   148.5391138506
 Alpha Exchange  Energy =    -1.7972815101
 Beta  Exchange  Energy =    -1.6317792589
 DFT   Exchange  Energy =   -16.3461392216
 DFT Correlation Energy =    -0.6161751604
 Nuclear Repu.   Energy =    15.5738830143
 Nuclear Attr.   Energy =  -722.4766930620
 Kinetic         Energy =   289.0322453156
 <S^2> = 0.7519
 SCF time:  CPU 15.74 s  wall 22.50 s
 Final Alpha MO Eigenvalues
            1           2           3           4           5           6
    1 -65.3116304  -5.2396711  -3.6759959  -3.6708049  -3.6707779  -0.6811062
            7           8           9          10          11          12
    1  -0.4678680  -0.4678136  -0.3230991   0.0433040   0.0670038   0.0670061
           13          14
    1   0.0802274   0.0822516
 Final Beta MO Eigenvalues
            1           2           3           4           5           6
    1 -65.3081020  -5.2357786  -3.6680621  -3.6680391  -3.6674460  -0.6531179
            7           8           9          10          11          12
    1  -0.4605805  -0.4605549  -0.0285579   0.0423144   0.0653278   0.0653405
           13
    1   0.0831909
 Analysis of SCF Wavefunction
 
 --------------------------------------------------------------
                    Orbital Energies (a.u.)
 --------------------------------------------------------------
 
 Alpha MOs
 -- Occupied --
-65.312  -5.240  -3.676  -3.671  -3.671  -0.681  -0.468  -0.468
 -0.323
 -- Virtual --
  0.043   0.067   0.067   0.080   0.082   0.082   0.112   0.166
  0.166   0.178   0.210   0.210   0.287   0.332   0.332   0.350
  0.395   0.395   0.465   0.534   0.552   0.552   0.555   0.555
  0.573   0.604   0.769   0.769   0.790   0.790   0.791   0.903
  0.903   0.921   1.133   1.176   1.183   1.183   1.228   1.228
  1.318   1.381   1.381   1.427   1.598   1.598   2.196   2.202
  2.202   2.215   2.274   2.274   2.391   2.899   2.899   3.026
  3.588   3.589   3.681   3.865   3.867   4.112   4.116   4.116
  4.182   4.182   4.184   4.435   4.553   4.554   5.956  11.322
 11.411  11.411  17.540  17.576  17.649  17.805  17.902  22.228
 22.234  22.238  22.245  22.259  22.260  22.283 141.243
 
 Beta MOs
 -- Occupied --
-65.308  -5.236  -3.668  -3.668  -3.667  -0.653  -0.461  -0.461
 -- Virtual --
 -0.029   0.042   0.065   0.065   0.083   0.083   0.087   0.113
  0.173   0.173   0.185   0.225   0.225   0.301   0.333   0.333
  0.363   0.396   0.396   0.468   0.534   0.554   0.554   0.563
  0.563   0.576   0.609   0.771   0.771   0.800   0.801   0.801
  0.908   0.908   0.932   1.135   1.182   1.187   1.187   1.232
  1.232   1.332   1.387   1.387   1.435   1.605   1.605   2.218
  2.223   2.225   2.225   2.293   2.293   2.401   2.904   2.904
  3.031   3.596   3.598   3.694   3.870   3.871   4.117   4.121
  4.121   4.186   4.187   4.188   4.441   4.560   4.561   5.963
 11.334  11.413  11.413  17.549  17.581  17.655  17.811  17.906
 22.232  22.236  22.242  22.247  22.262  22.263  22.285 141.247
 --------------------------------------------------------------
 
          Ground-State Mulliken Net Atomic Charges

     Atom                 Charge (a.u.)    Spin (a.u.)
  --------------------------------------------------------
      1 Si                    0.030891       0.937606
      2 H                    -0.010309       0.020454
      3 H                    -0.010206       0.021260
      4 H                    -0.010376       0.020680
  --------------------------------------------------------
  Sum of atomic charges =     0.000000
  Sum of spin   charges =     1.000000

 -----------------------------------------------------------------
                    Cartesian Multipole Moments
 -----------------------------------------------------------------
    Charge (ESU x 10^10)
                 0.0000
    Dipole Moment (Debye)
         X       0.0000      Y      -0.0005      Z       0.0010
       Tot       0.0012
    Quadrupole Moments (Debye-Ang)
        XX     -16.0858     XY       0.0004     YY     -16.0856
        XZ       0.0014     YZ       0.0011     ZZ     -16.6093
    Octapole Moments (Debye-Ang^2)
       XXX      -0.5663    XXY      -0.0005    XYY       0.5656
       YYY      -0.0015    XXZ       1.5749    XYZ      -0.0008
       YYZ       1.5746    XZZ      -0.0002    YZZ      -0.0016
       ZZZ       2.8745
    Hexadecapole Moments (Debye-Ang^3)
      XXXX     -44.6485   XXXY       0.0011   XXYY     -14.8825
      XYYY       0.0013   YYYY     -44.6474   XXXZ      -0.3290
      XXYZ       0.0010   XYYZ       0.3330   YYYZ       0.0029
      XXZZ     -13.3774   XYZZ       0.0007   YYZZ     -13.3772
      XZZZ       0.0027   YZZZ       0.0020   ZZZZ     -34.8015
 -----------------------------------------------------------------
 Total job time:  24.18s(wall), 15.85s(cpu) 
 Tue Apr 12 20:32:05 2011

        *************************************************************
        *                                                           *
        *  Thank you very much for using Q-Chem.  Have a nice day.  *
        *                                                           *
        *************************************************************


0 sent ACK to 0 
now end server 0 ... 
 
**********************************************************************
Job 3 of 3 
**********************************************************************
 
Process 0 of 1 is on cl244.stfx.acenet.ca - thread support 1
initial socket setup ...start
initial socket setup ...done 
now start server 0 ... 

cmd = /usr/bin/ssh clhead /usr/local/qchem/bin/get_hostid 1076688648 > /globalscratch/itamblyn/bnl/g297_b3lyp_neut_g03Large_worked/g2g71015/omega400/qchem20501/lic.dat
                  Welcome to Q-Chem
     A Quantum Leap Into The Future Of Chemistry

 Y. Shao, L. Fusti-Molnar, Y. Jung, J. Kussmann, C. Ochsenfeld,
 S. T. Brown, A. T. B. Gilbert, L. V. Slipchenko,S. V. Levchenko,
 D. P. O'Neill, R. A. DiStasio Jr., R. C. Lochan, T. Wang,
 G. J. O. Beran, N. A. Besley, J. M. Herbert, C. Y. Lin,
 T. Van Voorhis, S. H. Chien, A. Sodt, R. P. Steele, 
 V. A. Rassolov, P. E. Maslen, P. P. Korambath, R. D. Adamson,
 B. Austin, J. Baker, E. F. C. Byrd, H. Dachsel, R. J. Doerksen,
 A. Dreuw, B. D. Dunietz, A. D. Dutoi, T. R. Furlani,
 S. R. Gwaltney, A. Heyden, S. Hirata, C.-P. Hsu, G. Kedziora,
 R. Z. Khaliullin, P. Klunzinger, A. M. Lee, M. S. Lee, W. Liang,
 I. Lotan, N. Nair, B. Peters, E. I. Proynov, P. A. Pieniazek, 
 Y. M. Rhee, J. Ritchie, E. Rosta, C. D. Sherrill, 
 A. C. Simmonett, J. E. Subotnik, H. L. Woodcock III,
 W. Zhang, A. T. Bell, A. K. Chakraborty, D. M. Chipman,
 F. J. Keil, A. Warshel, W. J. Hehre, H. F. Schaefer III,
 J. Kong, A. I. Krylov, P. M. W. Gill, M. Head-Gordon,
 Q-Chem, Version 3.1, Q-Chem, Inc., Pittsburgh, PA (2007).

 Additional authors for Version 3.1: 
 Z. Gan, Y. Zhao, N. E. Schultz, D. Truhlar, E. Epifanovsky and M. Oana.

 Additional authors for Version 3.2: 
 R. Baer, B. R. Brooks, D. Casanova, J.-D. Chai, C.-L. Cheng, 
 C. Cramer, D. Crittenden, A. Ghysels, G. Hawkins, E. G. Hohenstein, 
 C. Kelley, W. Kurlancheek, D. Liotard, E. Livshits, P. Manohar, 
 A. Marenich, D. Neuhauser, R. Olson, M. A. Rohrdanz, K. S. Thanthiriwatte, 
 A. J. W. Thom, V. Vanovschi, C. F. Williams, Q. Wu and Z.-Q. You. 


 Intel X86 Linux Version

 Q-chem begins on Tue Apr 12 20:32:08 2011  

 Parallel job on  1  processors
Processing $rem in /usr/local/qchem/config/preferences.

theFileMan(): MAXOPENFILES=974 MAX_SUB_FILE_NUM=16
Maximum size of a physical file is 2.0 GB, maximum size of a tmp-file is 32.0 GB


--------------------------------------------------------------
User input:
--------------------------------------------------------------

$molecule
1,1
Si
X,1,1.
H,1,R,2,BETA
H,1,R,2,BETA,3,120.,0
H,1,R,2,BETA,3,-120.,0

 R=1.48898721
 BETA=108.02552928

$end

$comment
positive
$end

$xc_functional
   X HF 1.0
   X BNL 1.0
   C LYP 1.0
$end

$rem
SYMMETRY_DECOMPOSITION	0
exchange 		general
BASIS                   g3large
omega			400
separate_jk		true
mem_static              760
max_scf_cycles          200
scf_final_print         1
sym_ignore              true
$end

--------------------------------------------------------------
 Writing REM_CC_EA            4
 ----------------------------------------------------
       Standard Nuclear Orientation (Angstroms)
    I     Atom         X            Y            Z
 ----------------------------------------------------
    1      Si      0.000000     0.000000     0.000000
    2      H       1.415906     0.000000    -0.460753
    3      H      -0.707953    -1.226210    -0.460753
    4      H      -0.707953     1.226210    -0.460753
 ----------------------------------------------------
 Nuclear Repulsion Energy =    15.5738830141 hartrees
 There are        8 alpha and        8 beta electrons
 Requested basis set is G3large
 There are 37 shells and 96 basis functions

Total QAlloc Memory Limit   2000 MB
Mega-Array Size       743 MB
MEM_STATIC part       760 MB

                       Distance Matrix (Angstroms)
             Si(  1)   H (  2)   H (  3)
   H (  2)  1.488987
   H (  3)  1.488987  2.452421
   H (  4)  1.488987  2.452421  2.452421
 
 A cutoff of  1.0D-08 yielded    703 shell pairs
 There are   4798 function pairs (  6229 Cartesian)
Evaluating contribution to one-electron hamiltonian from nuclear
 Smallest overlap matrix eigenvalue = 1.72E-03
 Multipole matrices computed through 2nd order

  Scale SEOQF with 1.000000e-01/1.000000e-01/1.000000e-01

 Standard Electronic Orientation quadrupole field applied
 Nucleus-field energy     =     0.0000000003 hartrees
 Guess from superposition of atomic densities
 Warning:  Energy on first SCF cycle will be non-variational
 A restricted hybrid HF-DFT SCF calculation will be
 performed using Pulay DIIS extrapolation
 Exchange:     1.0000 Hartree-Fock + 1.0000 BNL
 Correlation:  1.0000 LYP
 Using SG-1 standard quadrature grid
 SCF converges when DIIS error is below 1.0E-05
 Warning!  Inaccurate integrated density:
   Number of electrons =    16
   Numerical integral  =    16.999930810780
   Relative error      =     6.2495675674 %
 ---------------------------------------
  Cycle       Energy         DIIS Error
 ---------------------------------------
    1    -289.5521117096      2.82E-02
    2    -289.3549268705      4.68E-03
    3    -289.3937711347      2.05E-03
    4    -289.3959949889      3.72E-04
    5    -289.3961502186      7.30E-05
    6    -289.3961748623      2.22E-05
    7    -289.3961784584      9.20E-06 Convergence criterion met
 ---------------------------------------
 One-Electron    Energy =  -428.1562679542
 Total Coulomb   Energy =   143.3083237028
 Alpha Exchange  Energy =    -1.6359448389
 Beta  Exchange  Energy =    -1.6359448389
 DFT   Exchange  Energy =   -16.2518848483
 DFT Correlation Energy =    -0.5983426952
 Nuclear Repu.   Energy =    15.5738830143
 Nuclear Attr.   Energy =  -716.8589227708
 Kinetic         Energy =   288.7026548166
 SCF time:  CPU 13.59 s  wall 20.06 s
 Final Alpha MO Eigenvalues
            1           2           3           4           5           6
    1 -65.6508039  -5.5734142  -4.0150984  -4.0016194  -4.0015953  -0.9472472
            7           8           9          10          11          12
    1  -0.7342116  -0.7341731  -0.3299877  -0.1288435  -0.1280981  -0.1280929
           13
    1  -0.0833139
 Analysis of SCF Wavefunction
 
 --------------------------------------------------------------
                    Orbital Energies (a.u.)
 --------------------------------------------------------------
 
 Alpha MOs
 -- Occupied --
-65.651  -5.573  -4.015  -4.002  -4.002  -0.947  -0.734  -0.734
 -- Virtual --
 -0.330  -0.129  -0.128  -0.128  -0.083  -0.072  -0.072  -0.066
 -0.024  -0.024  -0.004  -0.004   0.001   0.084   0.130   0.130
  0.142   0.196   0.196   0.237   0.299   0.310   0.310   0.322
  0.322   0.330   0.375   0.518   0.518   0.533   0.533   0.536
  0.653   0.653   0.664   0.894   0.926   0.934   0.934   0.981
  0.981   1.039   1.108   1.108   1.177   1.343   1.343   1.898
  1.905   1.905   1.926   1.982   1.982   2.108   2.637   2.638
  2.763   3.269   3.270   3.359   3.573   3.575   3.850   3.855
  3.855   3.920   3.920   3.922   4.166   4.272   4.273   5.640
 10.990  11.083  11.083  17.204  17.245  17.316  17.473  17.572
 21.891  21.898  21.901  21.914  21.924  21.926  21.953 140.906
 --------------------------------------------------------------
 
          Ground-State Mulliken Net Atomic Charges

     Atom                 Charge (a.u.)
  ----------------------------------------
      1 Si                    0.597132
      2 H                     0.134283
      3 H                     0.134341
      4 H                     0.134244
  ----------------------------------------
  Sum of atomic charges =     1.000000

 -----------------------------------------------------------------
                    Cartesian Multipole Moments
 -----------------------------------------------------------------
    Charge (ESU x 10^10)
                 4.8032
    Dipole Moment (Debye)
         X      -0.0002      Y      -0.0004      Z       0.6085
       Tot       0.6085
    Quadrupole Moments (Debye-Ang)
        XX     -11.1525     XY       0.0006     YY     -11.1516
        XZ       0.0020     YZ       0.0022     ZZ      -9.1802
    Octapole Moments (Debye-Ang^2)
       XXX       1.1501    XXY      -0.0005    XYY      -1.1515
       YYY      -0.0014    XXZ       0.4116    XYZ      -0.0008
       YYZ       0.4106    XZZ      -0.0006    YZZ      -0.0007
       ZZZ       4.7143
    Hexadecapole Moments (Debye-Ang^3)
      XXXX     -28.2435   XXXY       0.0011   XXYY      -9.4140
      XYYY       0.0013   YYYY     -28.2403   XXXZ      -1.3710
      XXYZ       0.0012   XYYZ       1.3750   YYYZ       0.0035
      XXZZ      -6.8334   XYZZ       0.0005   YYZZ      -6.8328
      XZZZ       0.0028   YZZZ       0.0032   ZZZZ     -12.5422
 -----------------------------------------------------------------
 Total job time:  21.69s(wall), 13.69s(cpu) 
 Tue Apr 12 20:32:30 2011

        *************************************************************
        *                                                           *
        *  Thank you very much for using Q-Chem.  Have a nice day.  *
        *                                                           *
        *************************************************************


0 sent ACK to 0 
now end server 0 ... 
