Process 0 of 1 is on cl122 - thread support 1
initial socket setup ...start
initial socket setup ...done 
now start server 0 ... 

cmd = /usr/bin/ssh clhead /usr/local/qchem/bin/get_hostid 1129469126 > /tmp/1601918.1.medium.q/qchem15501/lic.dat

cmd = /usr/bin/ssh clhead /usr/local/qchem/bin/get_hostid 1129469126 > /tmp/1601918.1.medium.q/qchem15501/lic.dat

cmd = /usr/bin/ssh clhead /usr/local/qchem/bin/get_hostid 1129469126 > /tmp/1601918.1.medium.q/qchem15501/lic.dat

cmd = /usr/bin/ssh clhead /usr/local/qchem/bin/get_hostid 1129469126 > /tmp/1601918.1.medium.q/qchem15501/lic.dat

cmd = /usr/bin/ssh clhead /usr/local/qchem/bin/get_hostid 1129469126 > /tmp/1601918.1.medium.q/qchem15501/lic.dat
                  Welcome to Q-Chem
     A Quantum Leap Into The Future Of Chemistry

 Y. Shao, L. Fusti-Molnar, Y. Jung, J. Kussmann, C. Ochsenfeld,
 S. T. Brown, A. T. B. Gilbert, L. V. Slipchenko,S. V. Levchenko,
 D. P. O'Neill, R. A. DiStasio Jr., R. C. Lochan, T. Wang,
 G. J. O. Beran, N. A. Besley, J. M. Herbert, C. Y. Lin,
 T. Van Voorhis, S. H. Chien, A. Sodt, R. P. Steele, 
 V. A. Rassolov, P. E. Maslen, P. P. Korambath, R. D. Adamson,
 B. Austin, J. Baker, E. F. C. Byrd, H. Dachsel, R. J. Doerksen,
 A. Dreuw, B. D. Dunietz, A. D. Dutoi, T. R. Furlani,
 S. R. Gwaltney, A. Heyden, S. Hirata, C.-P. Hsu, G. Kedziora,
 R. Z. Khaliullin, P. Klunzinger, A. M. Lee, M. S. Lee, W. Liang,
 I. Lotan, N. Nair, B. Peters, E. I. Proynov, P. A. Pieniazek, 
 Y. M. Rhee, J. Ritchie, E. Rosta, C. D. Sherrill, 
 A. C. Simmonett, J. E. Subotnik, H. L. Woodcock III,
 W. Zhang, A. T. Bell, A. K. Chakraborty, D. M. Chipman,
 F. J. Keil, A. Warshel, W. J. Hehre, H. F. Schaefer III,
 J. Kong, A. I. Krylov, P. M. W. Gill, M. Head-Gordon,
 Q-Chem, Version 3.1, Q-Chem, Inc., Pittsburgh, PA (2007).

 Additional authors for Version 3.1: 
 Z. Gan, Y. Zhao, N. E. Schultz, D. Truhlar, E. Epifanovsky and M. Oana.

 Additional authors for Version 3.2: 
 R. Baer, B. R. Brooks, D. Casanova, J.-D. Chai, C.-L. Cheng, 
 C. Cramer, D. Crittenden, A. Ghysels, G. Hawkins, E. G. Hohenstein, 
 C. Kelley, W. Kurlancheek, D. Liotard, E. Livshits, P. Manohar, 
 A. Marenich, D. Neuhauser, R. Olson, M. A. Rohrdanz, K. S. Thanthiriwatte, 
 A. J. W. Thom, V. Vanovschi, C. F. Williams, Q. Wu and Z.-Q. You. 


 Intel X86 Linux Version

 Q-chem begins on Thu Mar 20 00:45:27 2014  

 Parallel job on  1  processors
Processing $rem in /usr/local/qchem/config/preferences.

theFileMan(): MAXOPENFILES=974 MAX_SUB_FILE_NUM=16
Maximum size of a physical file is 2.0 GB, maximum size of a tmp-file is 32.0 GB


--------------------------------------------------------------
User input:
--------------------------------------------------------------

$molecule
-1,2
Li         0.00000        0.00000        0.01317
H          0.00000        0.00000        1.60790
$end

$comment
negative
$end

$xc_functional
C PBE   1.00
X wPBE  1.00
$end

$rem
SYMMETRY_DECOMPOSITION	0
exchange 		general
LRC_DFT                 true
BASIS                   g3large
omega			370
mem_static              760
max_scf_cycles          200
scf_final_print         1
sym_ignore              true
$end

--------------------------------------------------------------
 Writing REM_CC_EA            2
 ----------------------------------------------------
       Standard Nuclear Orientation (Angstroms)
    I     Atom         X            Y            Z
 ----------------------------------------------------
    1      Li      0.000000     0.000000     0.013170
    2      H       0.000000     0.000000     1.607900
 ----------------------------------------------------
 Nuclear Repulsion Energy =     0.9954861528 hartrees
 There are        3 alpha and        2 beta electrons
 Requested basis set is G3large
 There are 16 shells and 52 basis functions

Total QAlloc Memory Limit   2000 MB
Mega-Array Size       743 MB
MEM_STATIC part       760 MB

                       Distance Matrix (Angstroms)
             Li(  1)
   H (  2)  1.594730
 
 A cutoff of  1.0D-08 yielded    136 shell pairs
 There are   1462 function pairs (  1834 Cartesian)
Evaluating contribution to one-electron hamiltonian from nuclear
 Smallest overlap matrix eigenvalue = 3.55E-03
 Multipole matrices computed through 2nd order

  Scale SEOQF with 1.000000e-02/1.000000e-02/1.000000e-02

 Standard Electronic Orientation quadrupole field applied
 Guess from superposition of atomic densities
 Warning:  Energy on first SCF cycle will be non-variational
 Long-range K will be added via erf
 Coulomb attenuation parameter = 0.37 bohr**(-1)
 An unrestricted Kohn-Sham SCF calculation will be
 performed using Pulay DIIS extrapolation
 Exchange:  wPBE + LR-HF      Correlation:  PBE
 Using SG-1 standard quadrature grid
 SCF converges when DIIS error is below 1.0E-05
 Requested basis set is G3large
 There are 16 shells and 52 basis functions
 A cutoff of  1.0D-08 yielded    136 shell pairs
 There are   1462 function pairs (  1834 Cartesian)
 Warning!  Inaccurate integrated density:
   Number of electrons =     5
   Numerical integral  =     4.012701451678
   Relative error      =   -19.7459709664 %
 ---------------------------------------
  Cycle       Energy         DIIS Error
 ---------------------------------------
    1      -7.7667484234      5.38E-03
    2      -7.9768481180      6.78E-03
    3      -8.0127422717      3.73E-03
    4      -8.0394511019      5.84E-04
 Warning!  Inaccurate integrated density:
   Number of electrons =     5
   Numerical integral  =     4.992624631890
   Relative error      =    -0.1475073622 %
    5      -8.0447689251      4.20E-04
 Warning!  Inaccurate integrated density:
   Number of electrons =     5
   Numerical integral  =     4.989497147839
   Relative error      =    -0.2100570432 %
    6      -8.0499456843      3.19E-04
 Warning!  Inaccurate integrated density:
   Number of electrons =     5
   Numerical integral  =     4.989864552038
   Relative error      =    -0.2027089592 %
    7      -8.0539257485      3.45E-04
 Warning!  Inaccurate integrated density:
   Number of electrons =     5
   Numerical integral  =     4.987932774716
   Relative error      =    -0.2413445057 %
    8      -8.0501961752      2.63E-04
 Warning!  Inaccurate integrated density:
   Number of electrons =     5
   Numerical integral  =     4.985929038619
   Relative error      =    -0.2814192276 %
    9      -8.0481098479      1.52E-04
 Warning!  Inaccurate integrated density:
   Number of electrons =     5
   Numerical integral  =     4.984264850918
   Relative error      =    -0.3147029816 %
   10      -8.0481395553      6.65E-05
 Warning!  Inaccurate integrated density:
   Number of electrons =     5
   Numerical integral  =     4.983179326534
   Relative error      =    -0.3364134693 %
   11      -8.0482301586      2.45E-05
 Warning!  Inaccurate integrated density:
   Number of electrons =     5
   Numerical integral  =     4.983322763085
   Relative error      =    -0.3335447383 %
   12      -8.0482244952      1.81E-05
 Warning!  Inaccurate integrated density:
   Number of electrons =     5
   Numerical integral  =     4.983156652606
   Relative error      =    -0.3368669479 %
   13      -8.0482303223      6.77E-06 Convergence criterion met
 ---------------------------------------
 One-Electron    Energy =   -12.8043991495
 Total Coulomb   Energy =     6.0147430092
 Alpha Exchange  Energy =    -0.3907210491
 Beta  Exchange  Energy =    -0.3531907075
 DFT   Exchange  Energy =    -1.4214315656
 DFT Correlation Energy =    -0.0887170126
 Nuclear Repu.   Energy =     0.9954861527
 Nuclear Attr.   Energy =   -20.7823442852
 Kinetic         Energy =     7.9779451357
 <S^2> = 0.7502
 SCF time:  CPU 7.34 s  wall 8.44 s
 Final Alpha MO Eigenvalues
            1           2           3           4           5           6
    1  -1.9740334  -0.2090542   0.0088795   0.0541562   0.0730347   0.0802473
            7           8
    1   0.0925098   0.1191627
 Final Beta MO Eigenvalues
            1           2           3           4           5           6
    1  -1.9739139  -0.2099308   0.0674411   0.0804339   0.0876157   0.0882499
            7
    1   0.1005597
 Analysis of SCF Wavefunction
 
 --------------------------------------------------------------
                    Orbital Energies (a.u.)
 --------------------------------------------------------------
 
 Alpha MOs
 -- Occupied --
 -1.974  -0.209   0.009
 -- Virtual --
  0.054   0.073   0.080   0.093   0.119   0.128   0.147   0.212
  0.236   0.236   0.240   0.328   0.363   0.364   0.370   0.371
  0.479   0.587   0.625   0.627   0.676   0.677   0.696   0.697
  0.697   0.697   0.722   0.918   1.162   1.163   1.275   1.363
  1.363   1.461   1.462   1.606   2.922   3.761   4.304   4.304
  4.426   6.979   6.979   7.261  20.080  20.108  21.338  21.342
 21.342
 
 Beta MOs
 -- Occupied --
 -1.974  -0.210
 -- Virtual --
  0.067   0.080   0.088   0.088   0.101   0.128   0.128   0.145
  0.211   0.234   0.235   0.240   0.327   0.364   0.364   0.370
  0.371   0.478   0.587   0.625   0.626   0.676   0.676   0.696
  0.696   0.696   0.696   0.721   0.917   1.162   1.163   1.274
  1.363   1.363   1.461   1.462   1.605   2.920   3.761   4.302
  4.303   4.424   6.979   6.979   7.261  20.080  20.108  21.338
 21.342  21.342
 --------------------------------------------------------------
 
          Ground-State Mulliken Net Atomic Charges

     Atom                 Charge (a.u.)    Spin (a.u.)
  --------------------------------------------------------
      1 Li                   -0.671465       1.013883
      2 H                    -0.328535      -0.013883
  --------------------------------------------------------
  Sum of atomic charges =    -1.000000
  Sum of spin   charges =     1.000000

 -----------------------------------------------------------------
                    Cartesian Multipole Moments
 -----------------------------------------------------------------
    Charge (ESU x 10^10)
                -4.8032
    Dipole Moment (Debye)
         X      -0.1939      Y      -0.1937      Z      -5.9050
       Tot       5.9114
    Quadrupole Moments (Debye-Ang)
        XX    -100.0573     XY     -47.2651     YY    -100.0011
        XZ       0.7043     YZ       0.7038     ZZ     -59.5340
    Octapole Moments (Debye-Ang^2)
       XXX      -7.9722    XXY      -2.6561    XYY      -2.6577
       YYY      -7.9675    XXZ      -7.5877    XYZ      -0.5245
       YYZ      -7.5871    XZZ      -2.6197    YZZ      -2.6182
       ZZZ     -28.6569
    Hexadecapole Moments (Debye-Ang^3)
      XXXX   -4178.0459   XXXY   -1387.4158   XXYY   -1392.1339
      XYYY   -1387.4158   YYYY   -4174.7624   XXXZ      23.7233
      XXYZ       7.9030   XYYZ       7.9077   YYYZ      23.7093
      XXZZ    -938.3048   XYZZ    -462.4740   YYZZ    -937.7575
      XZZZ      23.7423   YZZZ      23.7283   ZZZZ   -1460.2744
 -----------------------------------------------------------------
 Total job time:  8.53s(wall), 7.41s(cpu) 
 Thu Mar 20 00:45:36 2014

        *************************************************************
        *                                                           *
        *  Thank you very much for using Q-Chem.  Have a nice day.  *
        *                                                           *
        *************************************************************


0 sent ACK to 0 
now end server 0 ... 
 
**********************************************************************
Job 2 of 3 
**********************************************************************
 
Process 0 of 1 is on cl122 - thread support 1
initial socket setup ...start
initial socket setup ...done 
now start server 0 ... 

cmd = /usr/bin/ssh clhead /usr/local/qchem/bin/get_hostid 87015434 > /tmp/1601918.1.medium.q/qchem15501/lic.dat

cmd = /usr/bin/ssh clhead /usr/local/qchem/bin/get_hostid 87015434 > /tmp/1601918.1.medium.q/qchem15501/lic.dat

cmd = /usr/bin/ssh clhead /usr/local/qchem/bin/get_hostid 87015434 > /tmp/1601918.1.medium.q/qchem15501/lic.dat

cmd = /usr/bin/ssh clhead /usr/local/qchem/bin/get_hostid 87015434 > /tmp/1601918.1.medium.q/qchem15501/lic.dat

cmd = /usr/bin/ssh clhead /usr/local/qchem/bin/get_hostid 87015434 > /tmp/1601918.1.medium.q/qchem15501/lic.dat
                  Welcome to Q-Chem
     A Quantum Leap Into The Future Of Chemistry

 Y. Shao, L. Fusti-Molnar, Y. Jung, J. Kussmann, C. Ochsenfeld,
 S. T. Brown, A. T. B. Gilbert, L. V. Slipchenko,S. V. Levchenko,
 D. P. O'Neill, R. A. DiStasio Jr., R. C. Lochan, T. Wang,
 G. J. O. Beran, N. A. Besley, J. M. Herbert, C. Y. Lin,
 T. Van Voorhis, S. H. Chien, A. Sodt, R. P. Steele, 
 V. A. Rassolov, P. E. Maslen, P. P. Korambath, R. D. Adamson,
 B. Austin, J. Baker, E. F. C. Byrd, H. Dachsel, R. J. Doerksen,
 A. Dreuw, B. D. Dunietz, A. D. Dutoi, T. R. Furlani,
 S. R. Gwaltney, A. Heyden, S. Hirata, C.-P. Hsu, G. Kedziora,
 R. Z. Khaliullin, P. Klunzinger, A. M. Lee, M. S. Lee, W. Liang,
 I. Lotan, N. Nair, B. Peters, E. I. Proynov, P. A. Pieniazek, 
 Y. M. Rhee, J. Ritchie, E. Rosta, C. D. Sherrill, 
 A. C. Simmonett, J. E. Subotnik, H. L. Woodcock III,
 W. Zhang, A. T. Bell, A. K. Chakraborty, D. M. Chipman,
 F. J. Keil, A. Warshel, W. J. Hehre, H. F. Schaefer III,
 J. Kong, A. I. Krylov, P. M. W. Gill, M. Head-Gordon,
 Q-Chem, Version 3.1, Q-Chem, Inc., Pittsburgh, PA (2007).

 Additional authors for Version 3.1: 
 Z. Gan, Y. Zhao, N. E. Schultz, D. Truhlar, E. Epifanovsky and M. Oana.

 Additional authors for Version 3.2: 
 R. Baer, B. R. Brooks, D. Casanova, J.-D. Chai, C.-L. Cheng, 
 C. Cramer, D. Crittenden, A. Ghysels, G. Hawkins, E. G. Hohenstein, 
 C. Kelley, W. Kurlancheek, D. Liotard, E. Livshits, P. Manohar, 
 A. Marenich, D. Neuhauser, R. Olson, M. A. Rohrdanz, K. S. Thanthiriwatte, 
 A. J. W. Thom, V. Vanovschi, C. F. Williams, Q. Wu and Z.-Q. You. 


 Intel X86 Linux Version

 Q-chem begins on Thu Mar 20 00:45:41 2014  

 Parallel job on  1  processors
Processing $rem in /usr/local/qchem/config/preferences.

theFileMan(): MAXOPENFILES=974 MAX_SUB_FILE_NUM=16
Maximum size of a physical file is 2.0 GB, maximum size of a tmp-file is 32.0 GB


--------------------------------------------------------------
User input:
--------------------------------------------------------------

$molecule
0,1
Li         0.00000        0.00000        0.01317
H          0.00000        0.00000        1.60790
$end

$comment
neutral
$end

$xc_functional
C PBE   1.00
X wPBE  1.00
$end


$rem
SYMMETRY_DECOMPOSITION	0
LRC_DFT                 true
exchange 		general
BASIS                   g3large
omega			370
mem_static              760
max_scf_cycles          200
scf_final_print         1
sym_ignore              true
$end

--------------------------------------------------------------
 Writing REM_CC_EA            2
 ----------------------------------------------------
       Standard Nuclear Orientation (Angstroms)
    I     Atom         X            Y            Z
 ----------------------------------------------------
    1      Li      0.000000     0.000000     0.013170
    2      H       0.000000     0.000000     1.607900
 ----------------------------------------------------
 Nuclear Repulsion Energy =     0.9954861528 hartrees
 There are        2 alpha and        2 beta electrons
 Requested basis set is G3large
 There are 16 shells and 52 basis functions

Total QAlloc Memory Limit   2000 MB
Mega-Array Size       743 MB
MEM_STATIC part       760 MB

                       Distance Matrix (Angstroms)
             Li(  1)
   H (  2)  1.594730
 
 A cutoff of  1.0D-08 yielded    136 shell pairs
 There are   1462 function pairs (  1834 Cartesian)
Evaluating contribution to one-electron hamiltonian from nuclear
 Smallest overlap matrix eigenvalue = 3.55E-03
 Multipole matrices computed through 2nd order

  Scale SEOQF with 1.000000e-02/1.000000e-02/1.000000e-02

 Standard Electronic Orientation quadrupole field applied
 Guess from superposition of atomic densities
 Warning:  Energy on first SCF cycle will be non-variational
 Long-range K will be added via erf
 Coulomb attenuation parameter = 0.37 bohr**(-1)
 A restricted Kohn-Sham SCF calculation will be
 performed using Pulay DIIS extrapolation
 Exchange:  wPBE + LR-HF      Correlation:  PBE
 Using SG-1 standard quadrature grid
 SCF converges when DIIS error is below 1.0E-05
 Requested basis set is G3large
 There are 16 shells and 52 basis functions
 A cutoff of  1.0D-08 yielded    136 shell pairs
 There are   1462 function pairs (  1834 Cartesian)
 Warning!  Inaccurate integrated density:
   Number of electrons =     4
   Numerical integral  =     4.012701451678
   Relative error      =     0.3175362920 %
 ---------------------------------------
  Cycle       Energy         DIIS Error
 ---------------------------------------
    1      -7.7667484234      5.38E-03
    2      -8.0278581247      6.19E-03
    3      -8.0482788666      3.26E-03
    4      -8.0585216153      3.66E-04
    5      -8.0588806574      1.41E-04
    6      -8.0589473956      2.48E-05
    7      -8.0589493241      4.39E-06 Convergence criterion met
 ---------------------------------------
 One-Electron    Energy =   -12.4649294363
 Total Coulomb   Energy =     5.6226820033
 Alpha Exchange  Energy =    -0.3531836379
 Beta  Exchange  Energy =    -0.3531836379
 DFT   Exchange  Energy =    -1.4213219719
 DFT Correlation Energy =    -0.0844987962
 Nuclear Repu.   Energy =     0.9954861527
 Nuclear Attr.   Energy =   -20.4287407067
 Kinetic         Energy =     7.9638112704
 SCF time:  CPU 3.54 s  wall 4.17 s
 Final Alpha MO Eigenvalues
            1           2           3           4           5           6
    1  -2.0636536  -0.2966945  -0.0086101   0.0148133   0.0148139   0.0220286
            7
    1   0.0272189
 Analysis of SCF Wavefunction
 
 --------------------------------------------------------------
                    Orbital Energies (a.u.)
 --------------------------------------------------------------
 
 Alpha MOs
 -- Occupied --
 -2.064  -0.297
 -- Virtual --
 -0.009   0.015   0.015   0.022   0.027   0.053   0.053   0.076
  0.133   0.155   0.155   0.161   0.244   0.278   0.278   0.285
  0.285   0.394   0.501   0.538   0.538   0.590   0.590   0.608
  0.608   0.610   0.610   0.637   0.830   1.075   1.075   1.188
  1.273   1.273   1.373   1.373   1.517   2.835   3.672   4.217
  4.217   4.339   6.889   6.889   7.172  19.991  20.019  21.248
 21.253  21.253
 --------------------------------------------------------------
 
          Ground-State Mulliken Net Atomic Charges

     Atom                 Charge (a.u.)
  ----------------------------------------
      1 Li                    0.323956
      2 H                    -0.323956
  ----------------------------------------
  Sum of atomic charges =     0.000000

 -----------------------------------------------------------------
                    Cartesian Multipole Moments
 -----------------------------------------------------------------
    Charge (ESU x 10^10)
                 0.0000
    Dipole Moment (Debye)
         X       0.0000      Y       0.0000      Z      -5.8571
       Tot       5.8571
    Quadrupole Moments (Debye-Ang)
        XX      -5.3455     XY       0.0001     YY      -5.3455
        XZ       0.0000     YZ       0.0000     ZZ     -11.9617
    Octapole Moments (Debye-Ang^2)
       XXX       0.0001    XXY       0.0000    XYY       0.0000
       YYY       0.0001    XXZ      -6.3836    XYZ       0.0000
       YYZ      -6.3836    XZZ       0.0000    YZZ       0.0000
       ZZZ     -26.3509
    Hexadecapole Moments (Debye-Ang^3)
      XXXX     -12.2210   XXXY       0.0002   XXYY      -4.0737
      XYYY       0.0002   YYYY     -12.2210   XXXZ       0.0001
      XXYZ       0.0000   XYYZ       0.0000   YYYZ       0.0000
      XXZZ     -12.0851   XYZZ       0.0001   YYZZ     -12.0851
      XZZZ       0.0001   YZZZ       0.0000   ZZZZ     -68.2794
 -----------------------------------------------------------------
 Total job time:  4.25s(wall), 3.60s(cpu) 
 Thu Mar 20 00:45:45 2014

        *************************************************************
        *                                                           *
        *  Thank you very much for using Q-Chem.  Have a nice day.  *
        *                                                           *
        *************************************************************


0 sent ACK to 0 
now end server 0 ... 
 
**********************************************************************
Job 3 of 3 
**********************************************************************
 
Process 0 of 1 is on cl122 - thread support 1
initial socket setup ...start
initial socket setup ...done 
now start server 0 ... 

cmd = /usr/bin/ssh clhead /usr/local/qchem/bin/get_hostid 589020528 > /tmp/1601918.1.medium.q/qchem15501/lic.dat

cmd = /usr/bin/ssh clhead /usr/local/qchem/bin/get_hostid 589020528 > /tmp/1601918.1.medium.q/qchem15501/lic.dat

cmd = /usr/bin/ssh clhead /usr/local/qchem/bin/get_hostid 589020528 > /tmp/1601918.1.medium.q/qchem15501/lic.dat

cmd = /usr/bin/ssh clhead /usr/local/qchem/bin/get_hostid 589020528 > /tmp/1601918.1.medium.q/qchem15501/lic.dat

cmd = /usr/bin/ssh clhead /usr/local/qchem/bin/get_hostid 589020528 > /tmp/1601918.1.medium.q/qchem15501/lic.dat
                  Welcome to Q-Chem
     A Quantum Leap Into The Future Of Chemistry

 Y. Shao, L. Fusti-Molnar, Y. Jung, J. Kussmann, C. Ochsenfeld,
 S. T. Brown, A. T. B. Gilbert, L. V. Slipchenko,S. V. Levchenko,
 D. P. O'Neill, R. A. DiStasio Jr., R. C. Lochan, T. Wang,
 G. J. O. Beran, N. A. Besley, J. M. Herbert, C. Y. Lin,
 T. Van Voorhis, S. H. Chien, A. Sodt, R. P. Steele, 
 V. A. Rassolov, P. E. Maslen, P. P. Korambath, R. D. Adamson,
 B. Austin, J. Baker, E. F. C. Byrd, H. Dachsel, R. J. Doerksen,
 A. Dreuw, B. D. Dunietz, A. D. Dutoi, T. R. Furlani,
 S. R. Gwaltney, A. Heyden, S. Hirata, C.-P. Hsu, G. Kedziora,
 R. Z. Khaliullin, P. Klunzinger, A. M. Lee, M. S. Lee, W. Liang,
 I. Lotan, N. Nair, B. Peters, E. I. Proynov, P. A. Pieniazek, 
 Y. M. Rhee, J. Ritchie, E. Rosta, C. D. Sherrill, 
 A. C. Simmonett, J. E. Subotnik, H. L. Woodcock III,
 W. Zhang, A. T. Bell, A. K. Chakraborty, D. M. Chipman,
 F. J. Keil, A. Warshel, W. J. Hehre, H. F. Schaefer III,
 J. Kong, A. I. Krylov, P. M. W. Gill, M. Head-Gordon,
 Q-Chem, Version 3.1, Q-Chem, Inc., Pittsburgh, PA (2007).

 Additional authors for Version 3.1: 
 Z. Gan, Y. Zhao, N. E. Schultz, D. Truhlar, E. Epifanovsky and M. Oana.

 Additional authors for Version 3.2: 
 R. Baer, B. R. Brooks, D. Casanova, J.-D. Chai, C.-L. Cheng, 
 C. Cramer, D. Crittenden, A. Ghysels, G. Hawkins, E. G. Hohenstein, 
 C. Kelley, W. Kurlancheek, D. Liotard, E. Livshits, P. Manohar, 
 A. Marenich, D. Neuhauser, R. Olson, M. A. Rohrdanz, K. S. Thanthiriwatte, 
 A. J. W. Thom, V. Vanovschi, C. F. Williams, Q. Wu and Z.-Q. You. 


 Intel X86 Linux Version

 Q-chem begins on Thu Mar 20 00:45:50 2014  

 Parallel job on  1  processors
Processing $rem in /usr/local/qchem/config/preferences.

theFileMan(): MAXOPENFILES=974 MAX_SUB_FILE_NUM=16
Maximum size of a physical file is 2.0 GB, maximum size of a tmp-file is 32.0 GB


--------------------------------------------------------------
User input:
--------------------------------------------------------------

$molecule
1,2
Li         0.00000        0.00000        0.01317
H          0.00000        0.00000        1.60790
$end

$comment
positive
$end

$xc_functional
C PBE   1.00
X wPBE  1.00
$end

$rem
SYMMETRY_DECOMPOSITION	0
LRC_DFT                 true
exchange 		general
BASIS                   g3large
omega			370
mem_static              760
max_scf_cycles          200
scf_final_print         1
sym_ignore              true
$end

--------------------------------------------------------------
 Writing REM_CC_EA            2
 ----------------------------------------------------
       Standard Nuclear Orientation (Angstroms)
    I     Atom         X            Y            Z
 ----------------------------------------------------
    1      Li      0.000000     0.000000     0.013170
    2      H       0.000000     0.000000     1.607900
 ----------------------------------------------------
 Nuclear Repulsion Energy =     0.9954861528 hartrees
 There are        2 alpha and        1 beta electrons
 Requested basis set is G3large
 There are 16 shells and 52 basis functions

Total QAlloc Memory Limit   2000 MB
Mega-Array Size       743 MB
MEM_STATIC part       760 MB

                       Distance Matrix (Angstroms)
             Li(  1)
   H (  2)  1.594730
 
 A cutoff of  1.0D-08 yielded    136 shell pairs
 There are   1462 function pairs (  1834 Cartesian)
Evaluating contribution to one-electron hamiltonian from nuclear
 Smallest overlap matrix eigenvalue = 3.55E-03
 Multipole matrices computed through 2nd order

  Scale SEOQF with 1.000000e-02/1.000000e-02/1.000000e-02

 Standard Electronic Orientation quadrupole field applied
 Guess from superposition of atomic densities
 Warning:  Energy on first SCF cycle will be non-variational
 Long-range K will be added via erf
 Coulomb attenuation parameter = 0.37 bohr**(-1)
 An unrestricted Kohn-Sham SCF calculation will be
 performed using Pulay DIIS extrapolation
 Exchange:  wPBE + LR-HF      Correlation:  PBE
 Using SG-1 standard quadrature grid
 SCF converges when DIIS error is below 1.0E-05
 Requested basis set is G3large
 There are 16 shells and 52 basis functions
 A cutoff of  1.0D-08 yielded    136 shell pairs
 There are   1462 function pairs (  1834 Cartesian)
 Warning!  Inaccurate integrated density:
   Number of electrons =     3
   Numerical integral  =     4.012701451678
   Relative error      =    33.7567150559 %
 ---------------------------------------
  Cycle       Energy         DIIS Error
 ---------------------------------------
    1      -7.7667484234      5.38E-03
    2      -7.7519322170      2.16E-03
    3      -7.7604688418      6.34E-04
    4      -7.7613099214      5.38E-05
    5      -7.7613150582      1.06E-05
    6      -7.7613152260      1.71E-06 Convergence criterion met
 ---------------------------------------
 One-Electron    Energy =   -11.0693531620
 Total Coulomb   Energy =     4.3193315937
 Alpha Exchange  Energy =    -0.3729158438
 Beta  Exchange  Energy =    -0.2006848773
 DFT   Exchange  Energy =    -1.3813486283
 DFT Correlation Energy =    -0.0518304611
 Nuclear Repu.   Energy =     0.9954861527
 Nuclear Attr.   Energy =   -18.8443978025
 Kinetic         Energy =     7.7750446405
 <S^2> = 0.7500
 SCF time:  CPU 3.22 s  wall 3.72 s
 Final Alpha MO Eigenvalues
            1           2           3           4           5           6
    1  -2.3977089  -0.7587040  -0.1770026  -0.1399275  -0.1399269  -0.0869823
            7
    1  -0.0694012
 Final Beta MO Eigenvalues
            1           2           3           4           5           6
    1  -2.3944172  -0.2192925  -0.1516920  -0.1297574  -0.1297538  -0.0778171
 Analysis of SCF Wavefunction
 
 --------------------------------------------------------------
                    Orbital Energies (a.u.)
 --------------------------------------------------------------
 
 Alpha MOs
 -- Occupied --
 -2.398  -0.759
 -- Virtual --
 -0.177  -0.140  -0.140  -0.087  -0.069  -0.059  -0.059  -0.051
 -0.028  -0.007  -0.007  -0.007   0.037   0.054   0.054   0.080
  0.080   0.195   0.224   0.289   0.289   0.343   0.350   0.350
  0.383   0.383   0.394   0.394   0.577   0.738   0.738   0.847
  1.001   1.002   1.063   1.063   1.211   2.345   3.304   3.700
  3.700   3.856   6.559   6.559   6.839  19.657  19.682  20.913
 20.916  20.916
 
 Beta MOs
 -- Occupied --
 -2.394
 -- Virtual --
 -0.219  -0.152  -0.130  -0.130  -0.078  -0.062  -0.057  -0.057
 -0.038  -0.015  -0.006  -0.004  -0.004   0.079   0.079   0.084
  0.084   0.098   0.200   0.280   0.291   0.291   0.387   0.387
  0.394   0.394   0.397   0.397   0.471   0.648   0.865   0.865
  1.003   1.004   1.026   1.150   1.150   1.262   2.794   3.400
  4.178   4.178   4.337   6.561   6.561   6.845  19.661  19.687
 20.914  20.917  20.917
 --------------------------------------------------------------
 
          Ground-State Mulliken Net Atomic Charges

     Atom                 Charge (a.u.)    Spin (a.u.)
  --------------------------------------------------------
      1 Li                    0.817804       0.180559
      2 H                     0.182196       0.819441
  --------------------------------------------------------
  Sum of atomic charges =     1.000000
  Sum of spin   charges =     1.000000

 -----------------------------------------------------------------
                    Cartesian Multipole Moments
 -----------------------------------------------------------------
    Charge (ESU x 10^10)
                 4.8032
    Dipole Moment (Debye)
         X       0.0000      Y       0.0000      Z       0.6272
       Tot       0.6272
    Quadrupole Moments (Debye-Ang)
        XX      -1.6404     XY       0.0000     YY      -1.6404
        XZ       0.0000     YZ       0.0000     ZZ       0.1085
    Octapole Moments (Debye-Ang^2)
       XXX       0.0000    XXY       0.0000    XYY       0.0000
       YYY       0.0000    XXZ      -1.7905    XYZ       0.0000
       YYZ      -1.7905    XZZ       0.0000    YZZ       0.0000
       ZZZ      -1.3289
    Hexadecapole Moments (Debye-Ang^3)
      XXXX      -1.6491   XXXY       0.0000   XXYY      -0.5497
      XYYY       0.0000   YYYY      -1.6491   XXXZ       0.0000
      XXYZ       0.0000   XYYZ       0.0000   YYYZ       0.0000
      XXZZ      -3.1081   XYZZ       0.0000   YYZZ      -3.1081
      XZZZ       0.0000   YZZZ       0.0000   ZZZZ      -8.8423
 -----------------------------------------------------------------
 Total job time:  3.80s(wall), 3.28s(cpu) 
 Thu Mar 20 00:45:54 2014

        *************************************************************
        *                                                           *
        *  Thank you very much for using Q-Chem.  Have a nice day.  *
        *                                                           *
        *************************************************************


0 sent ACK to 0 
now end server 0 ... 
