Process 0 of 1 is on cl121 - thread support 1
initial socket setup ...start
initial socket setup ...done 
now start server 0 ... 

cmd = /usr/bin/ssh clhead /usr/local/qchem/bin/get_hostid 1223996630 > /tmp/1624321.1.medium.q/qchem9884/lic.dat

cmd = /usr/bin/ssh clhead /usr/local/qchem/bin/get_hostid 1223996630 > /tmp/1624321.1.medium.q/qchem9884/lic.dat

cmd = /usr/bin/ssh clhead /usr/local/qchem/bin/get_hostid 1223996630 > /tmp/1624321.1.medium.q/qchem9884/lic.dat

cmd = /usr/bin/ssh clhead /usr/local/qchem/bin/get_hostid 1223996630 > /tmp/1624321.1.medium.q/qchem9884/lic.dat

cmd = /usr/bin/ssh clhead /usr/local/qchem/bin/get_hostid 1223996630 > /tmp/1624321.1.medium.q/qchem9884/lic.dat
                  Welcome to Q-Chem
     A Quantum Leap Into The Future Of Chemistry

 Y. Shao, L. Fusti-Molnar, Y. Jung, J. Kussmann, C. Ochsenfeld,
 S. T. Brown, A. T. B. Gilbert, L. V. Slipchenko,S. V. Levchenko,
 D. P. O'Neill, R. A. DiStasio Jr., R. C. Lochan, T. Wang,
 G. J. O. Beran, N. A. Besley, J. M. Herbert, C. Y. Lin,
 T. Van Voorhis, S. H. Chien, A. Sodt, R. P. Steele, 
 V. A. Rassolov, P. E. Maslen, P. P. Korambath, R. D. Adamson,
 B. Austin, J. Baker, E. F. C. Byrd, H. Dachsel, R. J. Doerksen,
 A. Dreuw, B. D. Dunietz, A. D. Dutoi, T. R. Furlani,
 S. R. Gwaltney, A. Heyden, S. Hirata, C.-P. Hsu, G. Kedziora,
 R. Z. Khaliullin, P. Klunzinger, A. M. Lee, M. S. Lee, W. Liang,
 I. Lotan, N. Nair, B. Peters, E. I. Proynov, P. A. Pieniazek, 
 Y. M. Rhee, J. Ritchie, E. Rosta, C. D. Sherrill, 
 A. C. Simmonett, J. E. Subotnik, H. L. Woodcock III,
 W. Zhang, A. T. Bell, A. K. Chakraborty, D. M. Chipman,
 F. J. Keil, A. Warshel, W. J. Hehre, H. F. Schaefer III,
 J. Kong, A. I. Krylov, P. M. W. Gill, M. Head-Gordon,
 Q-Chem, Version 3.1, Q-Chem, Inc., Pittsburgh, PA (2007).

 Additional authors for Version 3.1: 
 Z. Gan, Y. Zhao, N. E. Schultz, D. Truhlar, E. Epifanovsky and M. Oana.

 Additional authors for Version 3.2: 
 R. Baer, B. R. Brooks, D. Casanova, J.-D. Chai, C.-L. Cheng, 
 C. Cramer, D. Crittenden, A. Ghysels, G. Hawkins, E. G. Hohenstein, 
 C. Kelley, W. Kurlancheek, D. Liotard, E. Livshits, P. Manohar, 
 A. Marenich, D. Neuhauser, R. Olson, M. A. Rohrdanz, K. S. Thanthiriwatte, 
 A. J. W. Thom, V. Vanovschi, C. F. Williams, Q. Wu and Z.-Q. You. 


 Intel X86 Linux Version

 Q-chem begins on Tue May 20 16:43:09 2014  

 Parallel job on  1  processors
Processing $rem in /usr/local/qchem/config/preferences.

theFileMan(): MAXOPENFILES=974 MAX_SUB_FILE_NUM=16
Maximum size of a physical file is 2.0 GB, maximum size of a tmp-file is 32.0 GB


--------------------------------------------------------------
User input:
--------------------------------------------------------------

$molecule
0,1
B
X,1,1.
X,1,1.,2,90.
F,1,R2,2,ALPHA,3,0.,0
F,1,R2,2,ALPHA,3,120.,0
F,1,R2,2,ALPHA,3,-120.,0

 R2=1.75274159
 ALPHA=90.

$end

$comment
neutral
$end

$xc_functional
C PBE   1.00
X wPBE  1.00
$end


$rem
SYMMETRY_DECOMPOSITION	0
LRC_DFT                 true
exchange 		general
BASIS                   g3large
omega			450 
JOBTYPE                 opt
mem_static              760
max_scf_cycles          200
scf_final_print         1
sym_ignore              true
$end


--------------------------------------------------------------
 Writing REM_CC_EA            4
 ----------------------------------------------------
       Standard Nuclear Orientation (Angstroms)
    I     Atom         X            Y            Z
 ----------------------------------------------------
    1      B       0.000000     0.000000     0.000000
    2      F       1.752742     0.000000     0.000000
    3      F      -0.876371    -1.517919     0.000000
    4      F      -0.876371     1.517919     0.000000
 ----------------------------------------------------
 Nuclear Repulsion Energy =    83.1157492522 hartrees
 There are       16 alpha and       16 beta electrons
 Requested basis set is G3large
 There are 40 shells and 168 basis functions

Total QAlloc Memory Limit   2000 MB
Mega-Array Size       743 MB
MEM_STATIC part       760 MB
 A cutoff of  1.0D-11 yielded    661 shell pairs
 There are  11949 function pairs ( 15510 Cartesian)
Evaluating contribution to one-electron hamiltonian from nuclear
 Smallest overlap matrix eigenvalue = 2.37E-03
 Multipole matrices computed through 2nd order

  Scale SEOQF with 1.000000e-01/1.000000e-01/1.000000e-01

 Standard Electronic Orientation quadrupole field applied
 Nucleus-field energy     =     0.0000000044 hartrees
 Guess from superposition of atomic densities
 Warning:  Energy on first SCF cycle will be non-variational
 Long-range K will be added via erf
 Coulomb attenuation parameter = 0.45 bohr**(-1)
 A restricted Kohn-Sham SCF calculation will be
 performed using Pulay DIIS extrapolation
 Exchange:  wPBE + LR-HF      Correlation:  PBE
 Using SG-1 standard quadrature grid
 SCF converges when DIIS error is below 1.0E-08
 Requested basis set is G3large
 There are 40 shells and 168 basis functions
 A cutoff of  1.0D-11 yielded    661 shell pairs
 There are  11949 function pairs ( 15510 Cartesian)
 ---------------------------------------
  Cycle       Energy         DIIS Error
 ---------------------------------------
    1    -323.7158583559      1.60E-02
    2    -324.0177249227      7.38E-03
    3    -324.0611169987      8.07E-03
    4    -324.1973135020      6.01E-04
    5    -324.1988997179      2.73E-04
    6    -324.1992430988      1.91E-04
    7    -324.1993788829      4.13E-05
    8    -324.1993989007      9.22E-06
    9    -324.1994002870      2.73E-06
   10    -324.1994004451      2.42E-06
   11    -324.1994004806      2.89E-07
   12    -324.1994004851      7.25E-08
   13    -324.1994004855      2.30E-08
   14    -324.1994004830      5.22E-09 Convergence criterion met
 ---------------------------------------
 One-Electron    Energy =  -616.2264484105
 Total Coulomb   Energy =   243.7695781300
 Alpha Exchange  Energy =    -3.6606036910
 Beta  Exchange  Energy =    -3.6606036910
 DFT   Exchange  Energy =   -26.4836803547
 DFT Correlation Energy =    -1.0533917223
 Nuclear Repu.   Energy =    83.1157492567
 Nuclear Attr.   Energy =  -938.2969155603
 Kinetic         Energy =   322.0704671498
 SCF time:  CPU 62.79 s  wall 70.03 s
 Final Alpha MO Eigenvalues
            1           2           3           4           5           6
    1 -24.5448105 -24.5448082 -24.5447865  -7.1242906  -1.3390949  -1.3285678
            7           8           9          10          11          12
    1  -1.3285673  -0.7339140  -0.6452231  -0.6452223  -0.6089520  -0.5847350
           13          14          15          16          17          18
    1  -0.5847244  -0.5833103  -0.5833073  -0.5748415  -0.0785249  -0.0447200
           19          20          21
    1   0.0682301   0.0682330   0.0743505
 Analysis of SCF Wavefunction
 
 --------------------------------------------------------------
                    Orbital Energies (a.u.)
 --------------------------------------------------------------
 
 Alpha MOs
 -- Occupied --
-24.545 -24.545 -24.545  -7.124  -1.339  -1.329  -1.329  -0.734
 -0.645  -0.645  -0.609  -0.585  -0.585  -0.583  -0.583  -0.575
 -- Virtual --
 -0.079  -0.045   0.068   0.068   0.074   0.076   0.122   0.122
  0.276   0.276   0.306   0.306   0.310   0.368   0.376   0.377
  0.377   0.383   0.439   0.451   0.451   0.480   0.548   0.548
  0.554   0.554   0.810   0.810   0.814   1.351   1.365   1.365
  1.409   1.444   1.444   1.463   1.483   1.483   1.658   1.658
  1.669   1.673   1.723   1.723   1.754   1.799   1.802   1.802
  1.944   2.039   2.039   2.095   2.105   2.105   2.157   2.157
  2.197   2.197   2.215   2.304   2.305   2.353   2.446   2.446
  2.585   2.605   2.605   2.941   2.954   3.381   3.381   6.208
  6.208   6.212   6.249   6.264   6.264   6.294   6.294   6.414
  6.695   6.705   6.705   6.706   6.706   6.715   6.716   6.716
  6.717   6.717   6.717   6.717   6.733   6.733   6.781   6.781
  6.787   6.829   6.829   6.834   6.922   9.089   9.100   9.100
  9.117   9.117   9.127   9.240   9.272   9.272   9.273   9.273
  9.367   9.417   9.594   9.594  14.034  18.477  18.869  18.869
 35.699  35.725  36.158  36.158  36.196  50.053  50.063  50.068
 50.096  50.106  50.106  50.130  50.142  50.152  50.165  50.165
 50.179  50.225  50.268  50.279  55.551  55.551  55.554  55.579
 55.588  55.588  55.624  55.624  55.685  66.497  66.552  66.552
 --------------------------------------------------------------
 
          Ground-State Mulliken Net Atomic Charges

     Atom                 Charge (a.u.)
  ----------------------------------------
      1 B                     0.648669
      2 F                    -0.216237
      3 F                    -0.216216
      4 F                    -0.216216
  ----------------------------------------
  Sum of atomic charges =     0.000000

 -----------------------------------------------------------------
                    Cartesian Multipole Moments
 -----------------------------------------------------------------
    Charge (ESU x 10^10)
                 0.0000
    Dipole Moment (Debye)
         X       0.0002      Y       0.0000      Z       0.0000
       Tot       0.0002
    Quadrupole Moments (Debye-Ang)
        XX     -25.6604     XY       0.0000     YY     -25.6600
        XZ       0.0000     YZ       0.0000     ZZ     -19.1981
    Octapole Moments (Debye-Ang^2)
       XXX      -3.3488    XXY       0.0000    XYY       3.3494
       YYY       0.0000    XXZ       0.0000    XYZ       0.0000
       YYZ       0.0000    XZZ       0.0001    YZZ       0.0000
       ZZZ       0.0000
    Hexadecapole Moments (Debye-Ang^3)
      XXXX    -164.2199   XXXY       0.0000   XXYY     -54.7399
      XYYY       0.0000   YYYY    -164.2178   XXXZ       0.0000
      XXYZ       0.0000   XYYZ       0.0000   YYYZ       0.0000
      XXZZ     -29.3055   XYZZ       0.0000   YYZZ     -29.3053
      XZZZ       0.0000   YZZZ       0.0000   ZZZZ     -14.5848
 -----------------------------------------------------------------
 Calculating analytic gradient of the SCF energy
 Gradient of AOints
            1           2           3           4
    1   0.0003166 -11.2190894   5.6093864   5.6093864
    2   0.0000002  -0.0000001   9.7158176  -9.7158177
    3   0.0000000   0.0000003  -0.0000004   0.0000001
 Gradient of XC Energy
            1           2           3           4
    1   0.0000182   0.1701806  -0.0850994  -0.0850994
    2  -0.0000000   0.0000000  -0.1474483   0.1474483
    3  -0.0000000  -0.0000000   0.0000000  -0.0000000
 Gradient of SCF Energy
            1           2           3           4
    1   0.0000193   0.1479222  -0.0739707  -0.0739707
    2  -0.0000000  -0.0000000  -0.1281718   0.1281718
    3  -0.0000000  -0.0000000   0.0000000  -0.0000000
 Max gradient component =       1.479E-01
 RMS gradient           =       7.398E-02
 Gradient time:  CPU 20.92 s  wall 29.82 s
 Geometry Optimization Parameters
   NAtoms,    NIC,     NZ,  NCons,   NDum,   NFix, NCnnct, MaxDiis
        4      17       6       0       0       0       0       0


** GEOMETRY OPTIMIZATION IN DELOCALIZED INTERNAL COORDINATES **
   Searching for a Minimum

   Optimization Cycle:   1

                       Coordinates (Angstroms)
     ATOM              X           Y           Z
    1  B           0.000000    0.000000    0.000000
    2  F           1.752742    0.000000    0.000000
    3  F          -0.876371   -1.517919    0.000000
    4  F          -0.876371    1.517919    0.000000
   Point Group: c1    Number of degrees of freedom:   6


   Energy is   -324.199400483


 Attempting to Generate Delocalized Internal Coordinates

  ***ERROR*** Wrong Number of Internal Coordinates
              Should be:   6  Found:   5
**WARNING** Problems with Internal Coordinates
  Switching to Cartesian Coordinates

 Translations and Rotations Projected Out of Hessian

  6 Hessian modes will be used to form the next step
  Hessian Eigenvalues:
     1.000000    1.000000    1.000000    1.000000    1.000000    1.000000

 Minimum Search - Taking Simple RFO Step
 Searching for Lamda that Minimizes Along All modes
 Value Taken    Lamda =  -0.06185360
 Step Taken.  Stepsize is  0.241353

                             Maximum     Tolerance    Cnvgd?
         Gradient           0.147922      0.000300      NO
         Displacement       0.139306      0.001200      NO
         Energy change     *********      0.000001      NO

 Writing REM_CC_EA            4
 ----------------------------------------------------
       Standard Nuclear Orientation (Angstroms)
    I     Atom         X            Y            Z
 ----------------------------------------------------
    1      B      -0.000010     0.000000     0.000000
    2      F       1.679024     0.000000     0.000000
    3      F      -0.839507    -1.454044     0.000000
    4      F      -0.839507     1.454044     0.000000
 ----------------------------------------------------
 Nuclear Repulsion Energy =    86.7660214826 hartrees
 There are       16 alpha and       16 beta electrons
 Applying Cartesian multipole field
    Component          Value
    ---------          -----
     (2,0,0)        1.00000E-11
     (0,2,0)        2.00000E-11
     (0,0,2)       -3.00000E-11
 Nucleus-field energy     =     0.0000000041 hartrees
 Requested basis set is G3large
 There are 40 shells and 168 basis functions
 A cutoff of  1.0D-11 yielded    679 shell pairs
 There are  12348 function pairs ( 16086 Cartesian)
Evaluating contribution to one-electron hamiltonian from nuclear
 Smallest overlap matrix eigenvalue = 1.70E-03
 Multipole matrices computed through 2nd order
 Guess MOs from SCF MO coefficient file
Reading MOs from coefficient file
Reading MOs from coefficient file
 Long-range K will be added via erf
 Coulomb attenuation parameter = 0.45 bohr**(-1)
 A restricted Kohn-Sham SCF calculation will be
 performed using Pulay DIIS extrapolation
 Exchange:  wPBE + LR-HF      Correlation:  PBE
 Using SG-1 standard quadrature grid
 SCF converges when DIIS error is below 1.0E-08
 Requested basis set is G3large
 There are 40 shells and 168 basis functions
 A cutoff of  1.0D-11 yielded    679 shell pairs
 There are  12348 function pairs ( 16086 Cartesian)
 Warning!  Inaccurate integrated density:
   Number of electrons =    32
   Numerical integral  =    32.111225604970
   Relative error      =     0.3475800155 %
 ---------------------------------------
  Cycle       Energy         DIIS Error
 ---------------------------------------
    1    -324.3730021912      1.92E-03
    2    -324.2603670347      6.59E-04
    3    -324.2613786334      1.94E-04
    4    -324.2614416731      6.17E-05
    5    -324.2614520072      3.74E-05
    6    -324.2614567449      6.28E-06
    7    -324.2614571575      1.14E-06
    8    -324.2614571733      1.56E-07
    9    -324.2614571831      3.32E-08
   10    -324.2614571841      3.02E-08
   11    -324.2614571863      2.95E-09 Convergence criterion met
 ---------------------------------------
 One-Electron    Energy =  -623.5047288739
 Total Coulomb   Energy =   247.3954151193
 Alpha Exchange  Energy =    -3.6681341688
 Beta  Exchange  Energy =    -3.6681341688
 DFT   Exchange  Energy =   -26.5235143125
 DFT Correlation Energy =    -1.0583822683
 Nuclear Repu.   Energy =    86.7660214867
 Nuclear Attr.   Energy =  -945.6827414356
 Kinetic         Energy =   322.1780125616
 SCF time:  CPU 52.40 s  wall 54.35 s
 Final Alpha MO Eigenvalues
            1           2           3           4           5           6
    1 -24.5453333 -24.5453290 -24.5453066  -7.0992463  -1.3493481  -1.3356652
            7           8           9          10          11          12
    1  -1.3356605  -0.7404686  -0.6578863  -0.6578838  -0.6184460  -0.5894488
           13          14          15          16          17          18
    1  -0.5894374  -0.5868844  -0.5868787  -0.5763566  -0.0412813  -0.0247106
           19          20          21
    1   0.0747501   0.0747524   0.0765391
 Analysis of SCF Wavefunction
 
 --------------------------------------------------------------
                    Orbital Energies (a.u.)
 --------------------------------------------------------------
 
 Alpha MOs
 -- Occupied --
-24.545 -24.545 -24.545  -7.099  -1.349  -1.336  -1.336  -0.740
 -0.658  -0.658  -0.618  -0.589  -0.589  -0.587  -0.587  -0.576
 -- Virtual --
 -0.041  -0.025   0.075   0.075   0.077   0.082   0.155   0.155
  0.278   0.278   0.309   0.309   0.313   0.369   0.377   0.379
  0.379   0.386   0.446   0.457   0.457   0.486   0.562   0.562
  0.567   0.567   0.816   0.829   0.829   1.370   1.370   1.376
  1.427   1.439   1.439   1.451   1.483   1.483   1.655   1.655
  1.678   1.683   1.755   1.755   1.772   1.830   1.831   1.831
  1.959   2.048   2.048   2.090   2.128   2.128   2.186   2.186
  2.204   2.204   2.220   2.302   2.302   2.447   2.504   2.504
  2.667   2.685   2.685   2.927   3.082   3.504   3.504   6.206
  6.206   6.220   6.249   6.268   6.268   6.320   6.320   6.451
  6.690   6.706   6.706   6.706   6.706   6.712   6.712   6.712
  6.712   6.714   6.714   6.725   6.752   6.752   6.810   6.810
  6.810   6.853   6.853   6.870   6.997   9.086   9.103   9.103
  9.126   9.126   9.138   9.282   9.310   9.310   9.312   9.312
  9.411   9.456   9.673   9.673  14.257  18.513  18.931  18.931
 35.732  35.766  36.184  36.184  36.237  50.054  50.064  50.072
 50.095  50.110  50.110  50.147  50.159  50.169  50.181  50.181
 50.208  50.238  50.296  50.312  55.551  55.551  55.554  55.580
 55.594  55.595  55.634  55.634  55.724  66.505  66.561  66.561
 --------------------------------------------------------------
 
          Ground-State Mulliken Net Atomic Charges

     Atom                 Charge (a.u.)
  ----------------------------------------
      1 B                     0.615531
      2 F                    -0.205254
      3 F                    -0.205139
      4 F                    -0.205139
  ----------------------------------------
  Sum of atomic charges =     0.000000

 -----------------------------------------------------------------
                    Cartesian Multipole Moments
 -----------------------------------------------------------------
    Charge (ESU x 10^10)
                 0.0000
    Dipole Moment (Debye)
         X       0.0001      Y       0.0000      Z       0.0000
       Tot       0.0001
    Quadrupole Moments (Debye-Ang)
        XX     -25.0382     XY       0.0000     YY     -25.0373
        XZ       0.0000     YZ       0.0000     ZZ     -19.0356
    Octapole Moments (Debye-Ang^2)
       XXX      -2.9825    XXY       0.0000    XYY       2.9822
       YYY       0.0000    XXZ       0.0000    XYZ       0.0000
       YYZ       0.0000    XZZ       0.0000    YZZ       0.0000
       ZZZ       0.0000
    Hexadecapole Moments (Debye-Ang^3)
      XXXX    -150.7284   XXXY       0.0000   XXYY     -50.2415
      XYYY       0.0000   YYYY    -150.7185   XXXZ       0.0000
      XXYZ       0.0000   XYYZ       0.0000   YYYZ       0.0000
      XXZZ     -27.0624   XYZZ       0.0000   YYZZ     -27.0610
      XZZZ       0.0000   YZZZ       0.0000   ZZZZ     -14.2936
 -----------------------------------------------------------------
 Calculating analytic gradient of the SCF energy
 Gradient of AOints
            1           2           3           4
    1   0.0000985 -12.1500676   6.0749845   6.0749845
    2   0.0000000   0.0000000  10.5225684 -10.5225684
    3  -0.0000000   0.0000000   0.0000000   0.0000000
 Gradient of XC Energy
            1           2           3           4
    1  -0.0000798   0.1906225  -0.0952713  -0.0952713
    2  -0.0000000  -0.0000000  -0.1651012   0.1651012
    3   0.0000000  -0.0000000  -0.0000000  -0.0000000
 Gradient of SCF Energy
            1           2           3           4
    1  -0.0000851   0.1482804  -0.0740976  -0.0740976
    2  -0.0000000   0.0000000  -0.1284154   0.1284154
    3   0.0000000   0.0000000  -0.0000000  -0.0000000
 Max gradient component =       1.483E-01
 RMS gradient           =       7.413E-02
 Gradient time:  CPU 22.24 s  wall 22.68 s
 Geometry Optimization Parameters
   NAtoms,    NIC,     NZ,  NCons,   NDum,   NFix, NCnnct, MaxDiis
        4      17       6       0       0       0       0       0

 Cartesian Hessian Update
 Hessian Updated using BFGS Update
**WARNING** Hereditary positive definiteness endangered


** GEOMETRY OPTIMIZATION IN CARTESIAN COORDINATES **
   Searching for a Minimum

   Optimization Cycle:   2

                       Coordinates (Angstroms)
     ATOM              X           Y           Z
    1  B          -0.000010    0.000000    0.000000
    2  F           1.679024    0.000000    0.000000
    3  F          -0.839507   -1.454044    0.000000
    4  F          -0.839507    1.454044    0.000000
   Point Group: c1    Number of degrees of freedom:   6


   Energy is   -324.261457186


 Translations and Rotations Projected Out of Hessian

  2 Hessian modes will be used to form the next step
  Hessian Eigenvalues:
    -0.002170    0.999875
**WARNING** Hessian does not have the Desired Local Structure

 Minimum Search - Taking Simple RFO Step
 Searching for Lamda that Minimizes Along All modes
 Value Taken    Lamda =  -0.25789302
 Calculated Step too Large.  Step scaled by  0.298735
 Step Taken.  Stepsize is  0.300000

                             Maximum     Tolerance    Cnvgd?
         Gradient           0.148280      0.000300      NO
         Displacement       0.173224      0.001200      NO
         Energy change     -0.062057      0.000001      NO

 Writing REM_CC_EA            4
 ----------------------------------------------------
       Standard Nuclear Orientation (Angstroms)
    I     Atom         X            Y            Z
 ----------------------------------------------------
    1      B       0.000046     0.000000     0.000000
    2      F       1.587358     0.000000     0.000000
    3      F      -0.793702    -1.374660     0.000000
    4      F      -0.793702     1.374660     0.000000
 ----------------------------------------------------
 Nuclear Repulsion Energy =    91.7760420941 hartrees
 There are       16 alpha and       16 beta electrons
 Applying Cartesian multipole field
    Component          Value
    ---------          -----
     (2,0,0)        1.00000E-11
     (0,2,0)        2.00000E-11
     (0,0,2)       -3.00000E-11
 Nucleus-field energy     =     0.0000000036 hartrees
 Requested basis set is G3large
 There are 40 shells and 168 basis functions
 A cutoff of  1.0D-11 yielded    697 shell pairs
 There are  12564 function pairs ( 16326 Cartesian)
Evaluating contribution to one-electron hamiltonian from nuclear
 Smallest overlap matrix eigenvalue = 1.12E-03
 Multipole matrices computed through 2nd order
 Guess MOs from SCF MO coefficient file
Reading MOs from coefficient file
Reading MOs from coefficient file
 Long-range K will be added via erf
 Coulomb attenuation parameter = 0.45 bohr**(-1)
 A restricted Kohn-Sham SCF calculation will be
 performed using Pulay DIIS extrapolation
 Exchange:  wPBE + LR-HF      Correlation:  PBE
 Using SG-1 standard quadrature grid
 SCF converges when DIIS error is below 1.0E-08
 Requested basis set is G3large
 There are 40 shells and 168 basis functions
 A cutoff of  1.0D-11 yielded    697 shell pairs
 There are  12564 function pairs ( 16326 Cartesian)
 Warning!  Inaccurate integrated density:
   Number of electrons =    32
   Numerical integral  =    32.141936255249
   Relative error      =     0.4435507977 %
 ---------------------------------------
  Cycle       Energy         DIIS Error
 ---------------------------------------
    1    -324.4857993087      2.76E-03
    2    -324.3352892587      8.63E-04
    3    -324.3369474702      3.00E-04
    4    -324.3370759884      1.01E-04
    5    -324.3370993982      4.38E-05
    6    -324.3371058624      6.93E-06
    7    -324.3371062353      1.17E-06
    8    -324.3371063113      1.78E-07
    9    -324.3371062830      1.17E-07
   10    -324.3371062847      1.88E-08
   11    -324.3371062853      1.86E-09 Convergence criterion met
 ---------------------------------------
 One-Electron    Energy =  -633.4848230494
 Total Coulomb   Energy =   252.3761906663
 Alpha Exchange  Energy =    -3.6776670515
 Beta  Exchange  Energy =    -3.6776670515
 DFT   Exchange  Energy =   -26.5839921130
 DFT Correlation Energy =    -1.0651897840
 Nuclear Repu.   Energy =    91.7760420978
 Nuclear Attr.   Energy =  -955.8602115260
 Kinetic         Energy =   322.3753884766
 SCF time:  CPU 54.45 s  wall 56.17 s
 Final Alpha MO Eigenvalues
            1           2           3           4           5           6
    1 -24.5452334 -24.5452138 -24.5451949  -7.0628696  -1.3645317  -1.3458235
            7           8           9          10          11          12
    1  -1.3458006  -0.7482958  -0.6740869  -0.6740701  -0.6321693  -0.5957095
           13          14          15          16          17          18
    1  -0.5957081  -0.5916350  -0.5916170  -0.5777587   0.0013969   0.0038126
           19          20          21
    1   0.0776070   0.0776128   0.0781961
 Analysis of SCF Wavefunction
 
 --------------------------------------------------------------
                    Orbital Energies (a.u.)
 --------------------------------------------------------------
 
 Alpha MOs
 -- Occupied --
-24.545 -24.545 -24.545  -7.063  -1.365  -1.346  -1.346  -0.748
 -0.674  -0.674  -0.632  -0.596  -0.596  -0.592  -0.592  -0.578
 -- Virtual --
  0.001   0.004   0.078   0.078   0.078   0.101   0.207   0.207
  0.281   0.281   0.312   0.312   0.317   0.368   0.380   0.382
  0.382   0.390   0.456   0.467   0.467   0.494   0.581   0.581
  0.582   0.582   0.813   0.854   0.854   1.378   1.378   1.405
  1.428   1.428   1.434   1.446   1.488   1.488   1.656   1.656
  1.703   1.716   1.761   1.761   1.797   1.842   1.870   1.870
  2.002   2.061   2.061   2.083   2.123   2.123   2.200   2.244
  2.244   2.245   2.245   2.317   2.317   2.588   2.625   2.626
  2.773   2.799   2.800   2.955   3.267   3.629   3.629   6.205
  6.205   6.247   6.248   6.273   6.273   6.389   6.390   6.473
  6.682   6.704   6.704   6.706   6.706   6.706   6.706   6.714
  6.714   6.716   6.716   6.749   6.795   6.795   6.837   6.860
  6.860   6.897   6.897   6.932   7.114   9.082   9.110   9.110
  9.141   9.142   9.158   9.345   9.365   9.365   9.376   9.376
  9.435   9.596   9.776   9.777  14.621  18.562  18.994  18.994
 35.783  35.833  36.224  36.224  36.305  50.058  50.068  50.080
 50.094  50.116  50.116  50.174  50.186  50.196  50.205  50.205
 50.253  50.262  50.336  50.355  55.552  55.552  55.568  55.582
 55.602  55.602  55.670  55.670  55.778  66.525  66.570  66.570
 --------------------------------------------------------------
 
          Ground-State Mulliken Net Atomic Charges

     Atom                 Charge (a.u.)
  ----------------------------------------
      1 B                     0.548691
      2 F                    -0.182963
      3 F                    -0.182864
      4 F                    -0.182864
  ----------------------------------------
  Sum of atomic charges =     0.000000

 -----------------------------------------------------------------
                    Cartesian Multipole Moments
 -----------------------------------------------------------------
    Charge (ESU x 10^10)
                 0.0000
    Dipole Moment (Debye)
         X       0.0007      Y       0.0000      Z       0.0000
       Tot       0.0007
    Quadrupole Moments (Debye-Ang)
        XX     -24.2652     XY       0.0000     YY     -24.2648
        XZ       0.0000     YZ       0.0000     ZZ     -18.8108
    Octapole Moments (Debye-Ang^2)
       XXX      -2.5837    XXY       0.0000    XYY       2.5844
       YYY       0.0000    XXZ       0.0000    XYZ       0.0000
       YYZ       0.0000    XZZ       0.0002    YZZ       0.0000
       ZZZ       0.0000
    Hexadecapole Moments (Debye-Ang^3)
      XXXX    -134.9055   XXXY       0.0000   XXYY     -44.9675
      XYYY       0.0000   YYYY    -134.8970   XXXZ       0.0000
      XXYZ       0.0000   XYYZ       0.0000   YYYZ       0.0000
      XXZZ     -24.4054   XYZZ       0.0000   YYZZ     -24.4041
      XZZZ       0.0000   YZZZ       0.0000   ZZZZ     -13.8948
 -----------------------------------------------------------------
 Calculating analytic gradient of the SCF energy
 Gradient of AOints
            1           2           3           4
    1   0.0004629 -13.4270950   6.7133160   6.7133160
    2   0.0000000  -0.0000000  11.6283931 -11.6283931
    3  -0.0000000  -0.0000000   0.0000000   0.0000000
 Gradient of XC Energy
            1           2           3           4
    1  -0.0000382   0.2188655  -0.1094136  -0.1094136
    2  -0.0000000   0.0000000  -0.1895528   0.1895528
    3   0.0000000   0.0000000  -0.0000000  -0.0000000
 Gradient of SCF Energy
            1           2           3           4
    1   0.0000009   0.1411776  -0.0705893  -0.0705893
    2  -0.0000000   0.0000000  -0.1222710   0.1222710
    3   0.0000000  -0.0000000  -0.0000000  -0.0000000
 Max gradient component =       1.412E-01
 RMS gradient           =       7.059E-02
 Gradient time:  CPU 22.77 s  wall 22.90 s
 Geometry Optimization Parameters
   NAtoms,    NIC,     NZ,  NCons,   NDum,   NFix, NCnnct, MaxDiis
        4      17       6       0       0       0       0       0

 Cartesian Hessian Update
 Hessian Updated using BFGS Update


** GEOMETRY OPTIMIZATION IN CARTESIAN COORDINATES **
   Searching for a Minimum

   Optimization Cycle:   3

                       Coordinates (Angstroms)
     ATOM              X           Y           Z
    1  B           0.000046    0.000000    0.000000
    2  F           1.587358    0.000000    0.000000
    3  F          -0.793702   -1.374660    0.000000
    4  F          -0.793702    1.374660    0.000000
   Point Group: c1    Number of degrees of freedom:   6


   Energy is   -324.337106285


 Translations and Rotations Projected Out of Hessian

  3 Hessian modes will be used to form the next step
  Hessian Eigenvalues:
     0.040903    0.999877    1.000001

 Minimum Search - Taking Simple RFO Step
 Searching for Lamda that Minimizes Along All modes
 Value Taken    Lamda =  -0.22493659
 Calculated Step too Large.  Step scaled by  0.326137
 Step Taken.  Stepsize is  0.300000

                             Maximum     Tolerance    Cnvgd?
         Gradient           0.141178      0.000300      NO
         Displacement       0.173205      0.001200      NO
         Energy change     -0.075649      0.000001      NO

 Writing REM_CC_EA            4
 ----------------------------------------------------
       Standard Nuclear Orientation (Angstroms)
    I     Atom         X            Y            Z
 ----------------------------------------------------
    1      B       0.000054     0.000000     0.000000
    2      F       1.495702     0.000000     0.000000
    3      F      -0.747878    -1.295281     0.000000
    4      F      -0.747878     1.295281     0.000000
 ----------------------------------------------------
 Nuclear Repulsion Energy =    97.4000929385 hartrees
 There are       16 alpha and       16 beta electrons
 Applying Cartesian multipole field
    Component          Value
    ---------          -----
     (2,0,0)        1.00000E-11
     (0,2,0)        2.00000E-11
     (0,0,2)       -3.00000E-11
 Nucleus-field energy     =     0.0000000032 hartrees
 Requested basis set is G3large
 There are 40 shells and 168 basis functions
 A cutoff of  1.0D-11 yielded    709 shell pairs
 There are  12798 function pairs ( 16713 Cartesian)
Evaluating contribution to one-electron hamiltonian from nuclear
 Smallest overlap matrix eigenvalue = 7.34E-04
 Multipole matrices computed through 2nd order
 Guess MOs from SCF MO coefficient file
Reading MOs from coefficient file
Reading MOs from coefficient file
 Long-range K will be added via erf
 Coulomb attenuation parameter = 0.45 bohr**(-1)
 A restricted Kohn-Sham SCF calculation will be
 performed using Pulay DIIS extrapolation
 Exchange:  wPBE + LR-HF      Correlation:  PBE
 Using SG-1 standard quadrature grid
 SCF converges when DIIS error is below 1.0E-08
 Requested basis set is G3large
 There are 40 shells and 168 basis functions
 A cutoff of  1.0D-11 yielded    709 shell pairs
 There are  12798 function pairs ( 16713 Cartesian)
 Warning!  Inaccurate integrated density:
   Number of electrons =    32
   Numerical integral  =    32.145270466907
   Relative error      =     0.4539702091 %
 ---------------------------------------
  Cycle       Energy         DIIS Error
 ---------------------------------------
    1    -324.5647375709      3.27E-03
    2    -324.4039881270      9.05E-04
    3    -324.4057030484      3.71E-04
    4    -324.4058896620      1.19E-04
    5    -324.4059193080      4.05E-05
    6    -324.4059246056      6.07E-06
    7    -324.4059248484      9.34E-07
    8    -324.4059248789      1.43E-07
    9    -324.4059249056      6.72E-08
   10    -324.4059249073      1.88E-08
   11    -324.4059249077      1.59E-09 Convergence criterion met
 ---------------------------------------
 One-Electron    Energy =  -644.6696496965
 Total Coulomb   Energy =   257.9706438569
 Alpha Exchange  Energy =    -3.6874115449
 Beta  Exchange  Energy =    -3.6874115449
 DFT   Exchange  Energy =   -26.6593789549
 DFT Correlation Energy =    -1.0728099653
 Nuclear Repu.   Energy =    97.4000929418
 Nuclear Attr.   Energy =  -967.3355596968
 Kinetic         Energy =   322.6659100003
 SCF time:  CPU 56.12 s  wall 58.54 s
 Final Alpha MO Eigenvalues
            1           2           3           4           5           6
    1 -24.5438966 -24.5438696 -24.5438537  -7.0209640  -1.3828089  -1.3575901
            7           8           9          10          11          12
    1  -1.3575605  -0.7553297  -0.6907733  -0.6907540  -0.6483704  -0.6022799
           13          14          15          16          17          18
    1  -0.6022773  -0.5965998  -0.5965746  -0.5782305   0.0290002   0.0352339
           19          20          21
    1   0.0785325   0.0785369   0.0822178
 Analysis of SCF Wavefunction
 
 --------------------------------------------------------------
                    Orbital Energies (a.u.)
 --------------------------------------------------------------
 
 Alpha MOs
 -- Occupied --
-24.544 -24.544 -24.544  -7.021  -1.383  -1.358  -1.358  -0.755
 -0.691  -0.691  -0.648  -0.602  -0.602  -0.597  -0.597  -0.578
 -- Virtual --
  0.029   0.035   0.079   0.079   0.082   0.139   0.253   0.253
  0.292   0.292   0.315   0.315   0.321   0.368   0.385   0.391
  0.391   0.393   0.465   0.481   0.481   0.506   0.594   0.594
  0.602   0.602   0.811   0.882   0.882   1.385   1.385   1.413
  1.414   1.414   1.425   1.457   1.497   1.497   1.668   1.668
  1.748   1.756   1.756   1.781   1.826   1.834   1.881   1.881
  2.059   2.059   2.067   2.077   2.083   2.083   2.172   2.297
  2.297   2.319   2.319   2.443   2.443   2.726   2.779   2.779
  2.880   2.930   2.930   3.088   3.455   3.702   3.702   6.209
  6.210   6.248   6.278   6.278   6.303   6.471   6.495   6.495
  6.673   6.698   6.698   6.699   6.699   6.699   6.700   6.724
  6.724   6.738   6.738   6.782   6.852   6.852   6.859   6.926
  6.926   6.986   6.986   7.013   7.258   9.079   9.123   9.123
  9.166   9.166   9.188   9.422   9.429   9.429   9.464   9.464
  9.519   9.771   9.870   9.870  15.063  18.614  19.058  19.058
 35.844  35.920  36.274  36.274  36.391  50.064  50.075  50.093
 50.094  50.126  50.127  50.210  50.221  50.230  50.232  50.232
 50.301  50.307  50.377  50.399  55.557  55.557  55.584  55.609
 55.609  55.610  55.750  55.750  55.834  66.562  66.576  66.576
 --------------------------------------------------------------
 
          Ground-State Mulliken Net Atomic Charges

     Atom                 Charge (a.u.)
  ----------------------------------------
      1 B                     0.437548
      2 F                    -0.145878
      3 F                    -0.145835
      4 F                    -0.145835
  ----------------------------------------
  Sum of atomic charges =     0.000000

 -----------------------------------------------------------------
                    Cartesian Multipole Moments
 -----------------------------------------------------------------
    Charge (ESU x 10^10)
                 0.0000
    Dipole Moment (Debye)
         X       0.0005      Y       0.0000      Z       0.0000
       Tot       0.0005
    Quadrupole Moments (Debye-Ang)
        XX     -23.4995     XY       0.0000     YY     -23.4995
        XZ       0.0000     YZ       0.0000     ZZ     -18.5570
    Octapole Moments (Debye-Ang^2)
       XXX      -2.2485    XXY       0.0000    XYY       2.2486
       YYY       0.0000    XXZ       0.0000    XYZ       0.0000
       YYZ       0.0000    XZZ       0.0001    YZZ       0.0000
       ZZZ       0.0000
    Hexadecapole Moments (Debye-Ang^3)
      XXXX    -120.1241   XXXY       0.0000   XXYY     -40.0406
      XYYY       0.0000   YYYY    -120.1175   XXXZ       0.0000
      XXYZ       0.0000   XYYZ       0.0000   YYYZ       0.0000
      XXZZ     -21.8976   XYZZ       0.0000   YYZZ     -21.8964
      XZZZ       0.0000   YZZZ       0.0000   ZZZZ     -13.4519
 -----------------------------------------------------------------
 Calculating analytic gradient of the SCF energy
 Gradient of AOints
            1           2           3           4
    1   0.0003870 -14.8343942   7.4170036   7.4170036
    2   0.0000000  -0.0000000  12.8480186 -12.8480186
    3   0.0000000   0.0000000   0.0000000  -0.0000000
 Gradient of XC Energy
            1           2           3           4
    1  -0.0000133   0.2504678  -0.1252272  -0.1252272
    2  -0.0000000   0.0000000  -0.2168713   0.2168713
    3   0.0000000  -0.0000000  -0.0000000   0.0000000
 Gradient of SCF Energy
            1           2           3           4
    1   0.0000428   0.1210573  -0.0605501  -0.0605501
    2  -0.0000000   0.0000000  -0.1047860   0.1047860
    3  -0.0000000  -0.0000000   0.0000000   0.0000000
 Max gradient component =       1.211E-01
 RMS gradient           =       6.052E-02
 Gradient time:  CPU 23.90 s  wall 24.06 s
 Geometry Optimization Parameters
   NAtoms,    NIC,     NZ,  NCons,   NDum,   NFix, NCnnct, MaxDiis
        4      17       6       0       0       0       0       0

 Cartesian Hessian Update
 Hessian Updated using BFGS Update


** GEOMETRY OPTIMIZATION IN CARTESIAN COORDINATES **
   Searching for a Minimum

   Optimization Cycle:   4

                       Coordinates (Angstroms)
     ATOM              X           Y           Z
    1  B           0.000054    0.000000    0.000000
    2  F           1.495702    0.000000    0.000000
    3  F          -0.747878   -1.295281    0.000000
    4  F          -0.747878    1.295281    0.000000
   Point Group: c1    Number of degrees of freedom:   6


   Energy is   -324.405924908


 Translations and Rotations Projected Out of Hessian

  3 Hessian modes will be used to form the next step
  Hessian Eigenvalues:
     0.116325    0.999877    1.000001

 Minimum Search - Taking Simple RFO Step
 Searching for Lamda that Minimizes Along All modes
 Value Taken    Lamda =  -0.15939282
 Calculated Step too Large.  Step scaled by  0.394565
 Step Taken.  Stepsize is  0.300000

                             Maximum     Tolerance    Cnvgd?
         Gradient           0.121057      0.000300      NO
         Displacement       0.173237      0.001200      NO
         Energy change     -0.068819      0.000001      NO

 Writing REM_CC_EA            4
 ----------------------------------------------------
       Standard Nuclear Orientation (Angstroms)
    I     Atom         X            Y            Z
 ----------------------------------------------------
    1      B       0.000035     0.000000     0.000000
    2      F       1.404029     0.000000     0.000000
    3      F      -0.702032    -1.215925     0.000000
    4      F      -0.702032     1.215925     0.000000
 ----------------------------------------------------
 Nuclear Repulsion Energy =   103.7584260143 hartrees
 There are       16 alpha and       16 beta electrons
 Applying Cartesian multipole field
    Component          Value
    ---------          -----
     (2,0,0)        1.00000E-11
     (0,2,0)        2.00000E-11
     (0,0,2)       -3.00000E-11
 Nucleus-field energy     =     0.0000000029 hartrees
 Requested basis set is G3large
 There are 40 shells and 168 basis functions
 A cutoff of  1.0D-11 yielded    715 shell pairs
 There are  12966 function pairs ( 16953 Cartesian)
Evaluating contribution to one-electron hamiltonian from nuclear
 Smallest overlap matrix eigenvalue = 4.87E-04
 Multipole matrices computed through 2nd order
 Guess MOs from SCF MO coefficient file
Reading MOs from coefficient file
Reading MOs from coefficient file
 Long-range K will be added via erf
 Coulomb attenuation parameter = 0.45 bohr**(-1)
 A restricted Kohn-Sham SCF calculation will be
 performed using Pulay DIIS extrapolation
 Exchange:  wPBE + LR-HF      Correlation:  PBE
 Using SG-1 standard quadrature grid
 SCF converges when DIIS error is below 1.0E-08
 Requested basis set is G3large
 There are 40 shells and 168 basis functions
 A cutoff of  1.0D-11 yielded    715 shell pairs
 There are  12966 function pairs ( 16953 Cartesian)
 Warning!  Inaccurate integrated density:
   Number of electrons =    32
   Numerical integral  =    32.145106940057
   Relative error      =     0.4534591877 %
 ---------------------------------------
  Cycle       Energy         DIIS Error
 ---------------------------------------
    1    -324.6249020805      3.92E-03
    2    -324.4572884020      9.27E-04
    3    -324.4589630320      4.34E-04
    4    -324.4592210026      1.23E-04
    5    -324.4592505303      3.71E-05
    6    -324.4592546768      5.23E-06
    7    -324.4592548247      7.31E-07
    8    -324.4592548500      1.08E-07
    9    -324.4592548889      2.01E-08
   10    -324.4592548903      1.52E-08
   11    -324.4592548947      1.83E-09 Convergence criterion met
 ---------------------------------------
 One-Electron    Energy =  -657.2828512298
 Total Coulomb   Energy =   264.2952427433
 Alpha Exchange  Energy =    -3.6973825217
 Beta  Exchange  Energy =    -3.6973825217
 DFT   Exchange  Energy =   -26.7537995835
 DFT Correlation Energy =    -1.0815077984
 Nuclear Repu.   Energy =   103.7584260171
 Nuclear Attr.   Energy =  -980.3682734701
 Kinetic         Energy =   323.0854222403
 SCF time:  CPU 56.64 s  wall 58.55 s
 Final Alpha MO Eigenvalues
            1           2           3           4           5           6
    1 -24.5407906 -24.5407643 -24.5407524  -6.9740457  -1.4045844  -1.3711332
            7           8           9          10          11          12
    1  -1.3711071  -0.7610667  -0.7080265  -0.7080148  -0.6675728  -0.6088958
           13          14          15          16          17          18
    1  -0.6088904  -0.6015842  -0.6015606  -0.5771743   0.0418283   0.0603624
           19          20          21
    1   0.0786665   0.0786670   0.0984998
 Analysis of SCF Wavefunction
 
 --------------------------------------------------------------
                    Orbital Energies (a.u.)
 --------------------------------------------------------------
 
 Alpha MOs
 -- Occupied --
-24.541 -24.541 -24.541  -6.974  -1.405  -1.371  -1.371  -0.761
 -0.708  -0.708  -0.668  -0.609  -0.609  -0.602  -0.602  -0.577
 -- Virtual --
  0.042   0.060   0.079   0.079   0.098   0.189   0.269   0.269
  0.317   0.317   0.321   0.321   0.326   0.366   0.388   0.396
  0.411   0.411   0.475   0.508   0.508   0.531   0.606   0.606
  0.623   0.623   0.816   0.911   0.911   1.386   1.392   1.392
  1.399   1.399   1.432   1.457   1.509   1.509   1.694   1.694
  1.751   1.751   1.809   1.812   1.863   1.882   1.890   1.890
  2.029   2.029   2.055   2.055   2.072   2.112   2.193   2.353
  2.353   2.417   2.417   2.648   2.648   2.865   2.958   2.958
  2.984   3.074   3.074   3.306   3.629   3.710   3.710   6.223
  6.223   6.248   6.285   6.285   6.389   6.463   6.601   6.601
  6.662   6.692   6.692   6.692   6.692   6.692   6.695   6.745
  6.745   6.791   6.791   6.823   6.871   6.920   6.921   7.010
  7.010   7.114   7.161   7.161   7.425   9.078   9.144   9.144
  9.203   9.203   9.228   9.501   9.501   9.513   9.581   9.581
  9.672   9.934   9.934   9.969  15.531  18.664  19.179  19.179
 35.912  36.019  36.336  36.336  36.492  50.075  50.086  50.096
 50.111  50.143  50.143  50.259  50.263  50.263  50.267  50.270
 50.357  50.365  50.411  50.436  55.570  55.570  55.589  55.619
 55.620  55.714  55.887  55.887  55.897  66.583  66.583  66.621
 --------------------------------------------------------------
 
          Ground-State Mulliken Net Atomic Charges

     Atom                 Charge (a.u.)
  ----------------------------------------
      1 B                     0.259171
      2 F                    -0.086398
      3 F                    -0.086387
      4 F                    -0.086387
  ----------------------------------------
  Sum of atomic charges =     0.000000

 -----------------------------------------------------------------
                    Cartesian Multipole Moments
 -----------------------------------------------------------------
    Charge (ESU x 10^10)
                 0.0000
    Dipole Moment (Debye)
         X       0.0002      Y       0.0000      Z       0.0000
       Tot       0.0002
    Quadrupole Moments (Debye-Ang)
        XX     -22.7465     XY       0.0000     YY     -22.7471
        XZ       0.0000     YZ       0.0000     ZZ     -18.2707
    Octapole Moments (Debye-Ang^2)
       XXX      -1.9704    XXY       0.0000    XYY       1.9701
       YYY       0.0000    XXZ       0.0000    XYZ       0.0000
       YYZ       0.0000    XZZ       0.0000    YZZ       0.0000
       ZZZ       0.0000
    Hexadecapole Moments (Debye-Ang^3)
      XXXX    -106.3631   XXXY       0.0000   XXYY     -35.4549
      XYYY       0.0000   YYYY    -106.3646   XXXZ       0.0000
      XXYZ       0.0000   XYYZ       0.0000   YYYZ       0.0000
      XXZZ     -19.5407   XYZZ       0.0000   YYZZ     -19.5409
      XZZZ       0.0000   YZZZ       0.0000   ZZZZ     -12.9635
 -----------------------------------------------------------------
 Calculating analytic gradient of the SCF energy
 Gradient of AOints
            1           2           3           4
    1  -0.0004871 -16.3249057   8.1626964   8.1626964
    2   0.0000000  -0.0000000  14.1386889 -14.1386889
    3  -0.0000000   0.0000000   0.0000000   0.0000000
 Gradient of XC Energy
            1           2           3           4
    1   0.0001003   0.2839552  -0.1420277  -0.1420277
    2  -0.0000000   0.0000000  -0.2458352   0.2458352
    3   0.0000000  -0.0000000   0.0000000  -0.0000000
 Gradient of SCF Energy
            1           2           3           4
    1   0.0001356   0.0796933  -0.0399145  -0.0399145
    2  -0.0000000   0.0000000  -0.0689338   0.0689338
    3  -0.0000000  -0.0000000   0.0000000   0.0000000
 Max gradient component =       7.969E-02
 RMS gradient           =       3.983E-02
 Gradient time:  CPU 24.28 s  wall 24.49 s
 Geometry Optimization Parameters
   NAtoms,    NIC,     NZ,  NCons,   NDum,   NFix, NCnnct, MaxDiis
        4      17       6       0       0       0       0       0

 Cartesian Hessian Update
 Hessian Updated using BFGS Update


** GEOMETRY OPTIMIZATION IN CARTESIAN COORDINATES **
   Searching for a Minimum

   Optimization Cycle:   5

                       Coordinates (Angstroms)
     ATOM              X           Y           Z
    1  B           0.000035    0.000000    0.000000
    2  F           1.404029    0.000000    0.000000
    3  F          -0.702032   -1.215925    0.000000
    4  F          -0.702032    1.215925    0.000000
   Point Group: c1    Number of degrees of freedom:   6


   Energy is   -324.459254895


 Translations and Rotations Projected Out of Hessian

  3 Hessian modes will be used to form the next step
  Hessian Eigenvalues:
     0.238825    0.999877    1.000002

 Minimum Search - Taking Simple RFO Step
 Searching for Lamda that Minimizes Along All modes
 Value Taken    Lamda =  -0.06307134
 Calculated Step too Large.  Step scaled by  0.656346
 Step Taken.  Stepsize is  0.300000

                             Maximum     Tolerance    Cnvgd?
         Gradient           0.079693      0.000300      NO
         Displacement       0.173252      0.001200      NO
         Energy change     -0.053330      0.000001      NO

 Writing REM_CC_EA            4
 ----------------------------------------------------
       Standard Nuclear Orientation (Angstroms)
    I     Atom         X            Y            Z
 ----------------------------------------------------
    1      B      -0.000074     0.000000     0.000000
    2      F       1.312348     0.000000     0.000000
    3      F      -0.656137    -1.136601     0.000000
    4      F      -0.656137     1.136601     0.000000
 ----------------------------------------------------
 Nuclear Repulsion Energy =   111.0048837632 hartrees
 There are       16 alpha and       16 beta electrons
 Applying Cartesian multipole field
    Component          Value
    ---------          -----
     (2,0,0)        1.00000E-11
     (0,2,0)        2.00000E-11
     (0,0,2)       -3.00000E-11
 Nucleus-field energy     =     0.0000000025 hartrees
 Requested basis set is G3large
 There are 40 shells and 168 basis functions
 A cutoff of  1.0D-11 yielded    727 shell pairs
 There are  13218 function pairs ( 17373 Cartesian)
Evaluating contribution to one-electron hamiltonian from nuclear
 Smallest overlap matrix eigenvalue = 3.29E-04
 Multipole matrices computed through 2nd order
 Guess MOs from SCF MO coefficient file
Reading MOs from coefficient file
Reading MOs from coefficient file
 Long-range K will be added via erf
 Coulomb attenuation parameter = 0.45 bohr**(-1)
 A restricted Kohn-Sham SCF calculation will be
 performed using Pulay DIIS extrapolation
 Exchange:  wPBE + LR-HF      Correlation:  PBE
 Using SG-1 standard quadrature grid
 SCF converges when DIIS error is below 1.0E-08
 Requested basis set is G3large
 There are 40 shells and 168 basis functions
 A cutoff of  1.0D-11 yielded    727 shell pairs
 There are  13218 function pairs ( 17373 Cartesian)
 Warning!  Inaccurate integrated density:
   Number of electrons =    32
   Numerical integral  =    32.138027748164
   Relative error      =     0.4313367130 %
 ---------------------------------------
  Cycle       Energy         DIIS Error
 ---------------------------------------
    1    -324.6480206762      4.71E-03
    2    -324.4809024859      9.00E-04
    3    -324.4823552423      4.63E-04
    4    -324.4826548856      1.14E-04
    5    -324.4826784696      3.30E-05
    6    -324.4826814874      4.52E-06
    7    -324.4826815931      5.80E-07
    8    -324.4826816109      1.12E-07
    9    -324.4826816494      8.02E-08
   10    -324.4826816423      7.74E-09 Convergence criterion met
 ---------------------------------------
 One-Electron    Energy =  -671.6035248383
 Total Coulomb   Energy =   271.4953147044
 Alpha Exchange  Energy =    -3.7075912338
 Beta  Exchange  Energy =    -3.7075912338
 DFT   Exchange  Energy =   -26.8726372262
 DFT Correlation Energy =    -1.0915355802
 Nuclear Repu.   Energy =   111.0048837657
 Nuclear Attr.   Energy =  -995.2897494453
 Kinetic         Energy =   323.6862246070
 SCF time:  CPU 55.65 s  wall 57.59 s
 Final Alpha MO Eigenvalues
            1           2           3           4           5           6
    1 -24.5352064 -24.5352006 -24.5351758  -6.9234007  -1.4301124  -1.3866475
            7           8           9          10          11          12
    1  -1.3866040  -0.7648597  -0.7260001  -0.7259814  -0.6905697  -0.6151614
           13          14          15          16          17          18
    1  -0.6151532  -0.6063407  -0.6063177  -0.5737534   0.0479527   0.0684256
           19          20          21
    1   0.0783450   0.0783484   0.1384905
 Analysis of SCF Wavefunction
 
 --------------------------------------------------------------
                    Orbital Energies (a.u.)
 --------------------------------------------------------------
 
 Alpha MOs
 -- Occupied --
-24.535 -24.535 -24.535  -6.923  -1.430  -1.387  -1.387  -0.765
 -0.726  -0.726  -0.691  -0.615  -0.615  -0.606  -0.606  -0.574
 -- Virtual --
  0.048   0.068   0.078   0.078   0.138   0.232   0.273   0.273
  0.319   0.319   0.330   0.336   0.336   0.364   0.389   0.400
  0.434   0.434   0.485   0.569   0.569   0.579   0.621   0.621
  0.643   0.643   0.842   0.938   0.938   1.353   1.386   1.386
  1.396   1.396   1.424   1.447   1.518   1.518   1.739   1.739
  1.752   1.752   1.781   1.858   1.927   1.927   1.930   1.970
  1.970   2.021   2.061   2.061   2.072   2.106   2.299   2.415
  2.415   2.534   2.534   2.884   2.884   3.030   3.079   3.153
  3.153   3.226   3.226   3.544   3.675   3.675   3.755   6.250
  6.250   6.251   6.301   6.301   6.465   6.501   6.649   6.657
  6.657   6.683   6.683   6.685   6.695   6.699   6.699   6.807
  6.807   6.877   6.887   6.887   6.894   7.002   7.002   7.108
  7.108   7.245   7.443   7.443   7.593   9.080   9.175   9.175
  9.256   9.256   9.282   9.576   9.576   9.621   9.729   9.729
  9.882   9.969   9.969  10.129  15.923  18.718  19.448  19.449
 35.983  36.123  36.413  36.413  36.596  50.092  50.102  50.102
 50.136  50.166  50.166  50.295  50.295  50.319  50.321  50.321
 50.413  50.423  50.440  50.468  55.598  55.598  55.598  55.639
 55.639  55.931  55.989  56.080  56.080  66.598  66.599  66.708
 --------------------------------------------------------------
 
          Ground-State Mulliken Net Atomic Charges

     Atom                 Charge (a.u.)
  ----------------------------------------
      1 B                    -0.009154
      2 F                     0.002902
      3 F                     0.003126
      4 F                     0.003126
  ----------------------------------------
  Sum of atomic charges =     0.000000

 -----------------------------------------------------------------
                    Cartesian Multipole Moments
 -----------------------------------------------------------------
    Charge (ESU x 10^10)
                 0.0000
    Dipole Moment (Debye)
         X      -0.0010      Y       0.0000      Z       0.0000
       Tot       0.0010
    Quadrupole Moments (Debye-Ang)
        XX     -22.0125     XY       0.0000     YY     -22.0128
        XZ       0.0000     YZ       0.0000     ZZ     -17.9482
    Octapole Moments (Debye-Ang^2)
       XXX      -1.7454    XXY       0.0000    XYY       1.7431
       YYY       0.0000    XXZ       0.0000    XYZ       0.0000
       YYZ       0.0000    XZZ      -0.0005    YZZ       0.0000
       ZZZ       0.0000
    Hexadecapole Moments (Debye-Ang^3)
      XXXX     -93.6111   XXXY       0.0000   XXYY     -31.2061
      XYYY       0.0000   YYYY     -93.6239   XXXZ       0.0000
      XXYZ       0.0000   XYYZ       0.0000   YYYZ       0.0000
      XXZZ     -17.3371   XYZZ       0.0000   YYZZ     -17.3392
      XZZZ       0.0000   YZZZ       0.0000   ZZZZ     -12.4294
 -----------------------------------------------------------------
 Calculating analytic gradient of the SCF energy
 Gradient of AOints
            1           2           3           4
    1  -0.0031315 -17.7745306   8.8888310   8.8888310
    2   0.0000000   0.0000000  15.3946306 -15.3946306
    3  -0.0000000   0.0000000   0.0000000  -0.0000000
 Gradient of XC Energy
            1           2           3           4
    1   0.0002780   0.3140955  -0.1571868  -0.1571868
    2   0.0000000  -0.0000000  -0.2720617   0.2720617
    3   0.0000000  -0.0000000  -0.0000000   0.0000000
 Gradient of SCF Energy
            1           2           3           4
    1   0.0001224   0.0033019  -0.0017122  -0.0017122
    2  -0.0000000   0.0000000  -0.0027968   0.0027968
    3   0.0000000   0.0000000   0.0000000  -0.0000000
 Max gradient component =       3.302E-03
 RMS gradient           =       1.644E-03
 Gradient time:  CPU 27.63 s  wall 27.77 s
 Geometry Optimization Parameters
   NAtoms,    NIC,     NZ,  NCons,   NDum,   NFix, NCnnct, MaxDiis
        4      17       6       0       0       0       0       0

 Cartesian Hessian Update
 Hessian Updated using BFGS Update


** GEOMETRY OPTIMIZATION IN CARTESIAN COORDINATES **
   Searching for a Minimum

   Optimization Cycle:   6

                       Coordinates (Angstroms)
     ATOM              X           Y           Z
    1  B          -0.000074    0.000000    0.000000
    2  F           1.312348    0.000000    0.000000
    3  F          -0.656137   -1.136601    0.000000
    4  F          -0.656137    1.136601    0.000000
   Point Group: c1    Number of degrees of freedom:   6


   Energy is   -324.482681642


 Translations and Rotations Projected Out of Hessian

  3 Hessian modes will be used to form the next step
  Hessian Eigenvalues:
     0.440992    0.999877    1.000002

 Minimum Search - Taking Simple RFO Step
 Searching for Lamda that Minimizes Along All modes
 Value Taken    Lamda =  -0.00007349
 Step Taken.  Stepsize is  0.012906

                             Maximum     Tolerance    Cnvgd?
         Gradient           0.003302      0.000300      NO
         Displacement       0.007468      0.001200      NO
         Energy change     -0.023427      0.000001      NO

 Writing REM_CC_EA            4
 ----------------------------------------------------
       Standard Nuclear Orientation (Angstroms)
    I     Atom         X            Y            Z
 ----------------------------------------------------
    1      B      -0.000143     0.000000     0.000000
    2      F       1.308396     0.000000     0.000000
    3      F      -0.654126    -1.133215     0.000000
    4      F      -0.654126     1.133215     0.000000
 ----------------------------------------------------
 Nuclear Repulsion Energy =   111.3393673615 hartrees
 There are       16 alpha and       16 beta electrons
 Applying Cartesian multipole field
    Component          Value
    ---------          -----
     (2,0,0)        1.00000E-11
     (0,2,0)        2.00000E-11
     (0,0,2)       -3.00000E-11
 Nucleus-field energy     =     0.0000000025 hartrees
 Requested basis set is G3large
 There are 40 shells and 168 basis functions
 A cutoff of  1.0D-11 yielded    727 shell pairs
 There are  13218 function pairs ( 17373 Cartesian)
Evaluating contribution to one-electron hamiltonian from nuclear
 Smallest overlap matrix eigenvalue = 3.24E-04
 Multipole matrices computed through 2nd order
 Guess MOs from SCF MO coefficient file
Reading MOs from coefficient file
Reading MOs from coefficient file
 Long-range K will be added via erf
 Coulomb attenuation parameter = 0.45 bohr**(-1)
 A restricted Kohn-Sham SCF calculation will be
 performed using Pulay DIIS extrapolation
 Exchange:  wPBE + LR-HF      Correlation:  PBE
 Using SG-1 standard quadrature grid
 SCF converges when DIIS error is below 1.0E-08
 Requested basis set is G3large
 There are 40 shells and 168 basis functions
 A cutoff of  1.0D-11 yielded    727 shell pairs
 There are  13218 function pairs ( 17373 Cartesian)
 ---------------------------------------
  Cycle       Energy         DIIS Error
 ---------------------------------------
    1    -324.4889874011      2.24E-04
    2    -324.4827034902      3.91E-05
    3    -324.4827059047      2.30E-05
    4    -324.4827066622      5.24E-06
    5    -324.4827067100      1.31E-06
    6    -324.4827067165      1.94E-07
    7    -324.4827067382      4.87E-08
    8    -324.4827067378      2.60E-08
    9    -324.4827067395      2.11E-09 Convergence criterion met
 ---------------------------------------
 One-Electron    Energy =  -672.2628909380
 Total Coulomb   Energy =   271.8272921394
 Alpha Exchange  Energy =    -3.7080358943
 Beta  Exchange  Energy =    -3.7080358943
 DFT   Exchange  Energy =   -26.8784003876
 DFT Correlation Energy =    -1.0920031285
 Nuclear Repu.   Energy =   111.3393673639
 Nuclear Attr.   Energy =  -995.9800628106
 Kinetic         Energy =   323.7171718727
 SCF time:  CPU 48.47 s  wall 49.38 s
 Final Alpha MO Eigenvalues
            1           2           3           4           5           6
    1 -24.5349116 -24.5349054 -24.5348421  -6.9211780  -1.4312951  -1.3873855
            7           8           9          10          11          12
    1  -1.3872938  -0.7649679  -0.7268002  -0.7267649  -0.6916608  -0.6154170
           13          14          15          16          17          18
    1  -0.6154048  -0.6065517  -0.6064965  -0.5735367   0.0481384   0.0685740
           19          20          21
    1   0.0783229   0.0783270   0.1405651
 Analysis of SCF Wavefunction
 
 --------------------------------------------------------------
                    Orbital Energies (a.u.)
 --------------------------------------------------------------
 
 Alpha MOs
 -- Occupied --
-24.535 -24.535 -24.535  -6.921  -1.431  -1.387  -1.387  -0.765
 -0.727  -0.727  -0.692  -0.615  -0.615  -0.607  -0.606  -0.574
 -- Virtual --
  0.048   0.069   0.078   0.078   0.141   0.234   0.273   0.273
  0.319   0.319   0.330   0.337   0.337   0.364   0.390   0.400
  0.435   0.435   0.485   0.573   0.573   0.582   0.622   0.622
  0.644   0.644   0.844   0.939   0.939   1.352   1.386   1.386
  1.396   1.396   1.423   1.446   1.518   1.518   1.741   1.741
  1.752   1.752   1.779   1.859   1.929   1.929   1.933   1.968
  1.968   2.028   2.061   2.061   2.072   2.106   2.305   2.417
  2.417   2.540   2.540   2.894   2.894   3.038   3.083   3.162
  3.162   3.232   3.232   3.553   3.674   3.674   3.759   6.251
  6.251   6.252   6.302   6.302   6.466   6.506   6.649   6.658
  6.658   6.683   6.683   6.685   6.695   6.700   6.701   6.811
  6.812   6.877   6.892   6.892   6.898   7.006   7.006   7.113
  7.113   7.252   7.458   7.458   7.600   9.081   9.177   9.177
  9.259   9.259   9.285   9.579   9.579   9.626   9.736   9.736
  9.892   9.971   9.971  10.133  15.936  18.721  19.464  19.465
 35.986  36.127  36.416  36.417  36.601  50.093  50.102  50.103
 50.137  50.168  50.168  50.296  50.296  50.322  50.323  50.324
 50.414  50.426  50.442  50.469  55.599  55.600  55.600  55.640
 55.640  55.944  55.995  56.089  56.090  66.600  66.600  66.712
 --------------------------------------------------------------
 
          Ground-State Mulliken Net Atomic Charges

     Atom                 Charge (a.u.)
  ----------------------------------------
      1 B                    -0.022936
      2 F                     0.007370
      3 F                     0.007783
      4 F                     0.007783
  ----------------------------------------
  Sum of atomic charges =     0.000000

 -----------------------------------------------------------------
                    Cartesian Multipole Moments
 -----------------------------------------------------------------
    Charge (ESU x 10^10)
                 0.0000
    Dipole Moment (Debye)
         X      -0.0018      Y       0.0000      Z       0.0000
       Tot       0.0018
    Quadrupole Moments (Debye-Ang)
        XX     -21.9816     XY       0.0000     YY     -21.9815
        XZ       0.0000     YZ       0.0000     ZZ     -17.9335
    Octapole Moments (Debye-Ang^2)
       XXX      -1.7381    XXY       0.0000    XYY       1.7339
       YYY       0.0000    XXZ       0.0000    XYZ       0.0000
       YYZ       0.0000    XZZ      -0.0009    YZZ       0.0000
       ZZZ       0.0000
    Hexadecapole Moments (Debye-Ang^3)
      XXXX     -93.0829   XXXY       0.0000   XXYY     -31.0309
      XYYY       0.0000   YYYY     -93.1003   XXXZ       0.0000
      XXYZ       0.0000   XYYZ       0.0000   YYYZ       0.0000
      XXZZ     -17.2453   XYZZ       0.0000   YYZZ     -17.2484
      XZZZ       0.0000   YZZZ       0.0000   ZZZZ     -12.4054
 -----------------------------------------------------------------
 Calculating analytic gradient of the SCF energy
 Gradient of AOints
            1           2           3           4
    1  -0.0029994 -17.8325742   8.9177868   8.9177868
    2  -0.0000000   0.0000000  15.4463222 -15.4463222
    3  -0.0000000  -0.0000000   0.0000000   0.0000000
 Gradient of XC Energy
            1           2           3           4
    1   0.0002846   0.3151905  -0.1577375  -0.1577375
    2   0.0000000  -0.0000000  -0.2730768   0.2730768
    3   0.0000000   0.0000000  -0.0000000  -0.0000000
 Gradient of SCF Energy
            1           2           3           4
    1   0.0000337  -0.0010019   0.0004841   0.0004841
    2   0.0000000  -0.0000000   0.0009750  -0.0009750
    3   0.0000000  -0.0000000  -0.0000000  -0.0000000
 Max gradient component =       1.002E-03
 RMS gradient           =       5.303E-04
 Gradient time:  CPU 27.81 s  wall 27.95 s
 Geometry Optimization Parameters
   NAtoms,    NIC,     NZ,  NCons,   NDum,   NFix, NCnnct, MaxDiis
        4      17       6       0       0       0       0       0

 Cartesian Hessian Update
 Hessian Updated using BFGS Update


** GEOMETRY OPTIMIZATION IN CARTESIAN COORDINATES **
   Searching for a Minimum

   Optimization Cycle:   7

                       Coordinates (Angstroms)
     ATOM              X           Y           Z
    1  B          -0.000143    0.000000    0.000000
    2  F           1.308396    0.000000    0.000000
    3  F          -0.654126   -1.133215    0.000000
    4  F          -0.654126    1.133215    0.000000
   Point Group: c1    Number of degrees of freedom:   6


   Energy is   -324.482706740


 Translations and Rotations Projected Out of Hessian

  3 Hessian modes will be used to form the next step
  Hessian Eigenvalues:
     0.582963    0.999737    1.000108

 Minimum Search - Taking Simple RFO Step
 Searching for Lamda that Minimizes Along All modes
 Value Taken    Lamda =  -0.00000577
 Step Taken.  Stepsize is  0.003143

                             Maximum     Tolerance    Cnvgd?
         Gradient           0.001002      0.000300      NO
         Displacement       0.001771      0.001200      NO
         Energy change     -0.000025      0.000001      NO

 Writing REM_CC_EA            4
 ----------------------------------------------------
       Standard Nuclear Orientation (Angstroms)
    I     Atom         X            Y            Z
 ----------------------------------------------------
    1      B      -0.000156     0.000000     0.000000
    2      F       1.309334     0.000000     0.000000
    3      F      -0.654589    -1.134069     0.000000
    4      F      -0.654589     1.134069     0.000000
 ----------------------------------------------------
 Nuclear Repulsion Energy =   111.2577605853 hartrees
 There are       16 alpha and       16 beta electrons
 Applying Cartesian multipole field
    Component          Value
    ---------          -----
     (2,0,0)        1.00000E-11
     (0,2,0)        2.00000E-11
     (0,0,2)       -3.00000E-11
 Nucleus-field energy     =     0.0000000025 hartrees
 Requested basis set is G3large
 There are 40 shells and 168 basis functions
 A cutoff of  1.0D-11 yielded    727 shell pairs
 There are  13218 function pairs ( 17373 Cartesian)
Evaluating contribution to one-electron hamiltonian from nuclear
 Smallest overlap matrix eigenvalue = 3.25E-04
 Multipole matrices computed through 2nd order
 Guess MOs from SCF MO coefficient file
Reading MOs from coefficient file
Reading MOs from coefficient file
 Long-range K will be added via erf
 Coulomb attenuation parameter = 0.45 bohr**(-1)
 A restricted Kohn-Sham SCF calculation will be
 performed using Pulay DIIS extrapolation
 Exchange:  wPBE + LR-HF      Correlation:  PBE
 Using SG-1 standard quadrature grid
 SCF converges when DIIS error is below 1.0E-08
 Requested basis set is G3large
 There are 40 shells and 168 basis functions
 A cutoff of  1.0D-11 yielded    727 shell pairs
 There are  13218 function pairs ( 17373 Cartesian)
 ---------------------------------------
  Cycle       Energy         DIIS Error
 ---------------------------------------
    1    -324.4811943125      5.48E-05
    2    -324.4827093891      9.53E-06
    3    -324.4827095307      5.64E-06
    4    -324.4827095789      1.28E-06
    5    -324.4827095735      3.17E-07
    6    -324.4827096095      4.64E-08
    7    -324.4827095908      6.64E-09 Convergence criterion met
 ---------------------------------------
 One-Electron    Energy =  -672.1020364790
 Total Coulomb   Energy =   271.7463028460
 Alpha Exchange  Energy =    -3.7079275989
 Beta  Exchange  Energy =    -3.7079275989
 DFT   Exchange  Energy =   -26.8769923424
 DFT Correlation Energy =    -1.0918890052
 Nuclear Repu.   Energy =   111.2577605877
 Nuclear Attr.   Energy =  -995.8116345593
 Kinetic         Energy =   323.7095980803
 SCF time:  CPU 37.64 s  wall 38.46 s
 Final Alpha MO Eigenvalues
            1           2           3           4           5           6
    1 -24.5349880 -24.5349817 -24.5349161  -6.9217192  -1.4310066  -1.3872126
            7           8           9          10          11          12
    1  -1.3871184  -0.7649420  -0.7266090  -0.7265704  -0.6913944  -0.6153577
           13          14          15          16          17          18
    1  -0.6153410  -0.6065053  -0.6064482  -0.5735900   0.0480936   0.0685387
           19          20          21
    1   0.0783279   0.0783327   0.1400581
 Analysis of SCF Wavefunction
 
 --------------------------------------------------------------
                    Orbital Energies (a.u.)
 --------------------------------------------------------------
 
 Alpha MOs
 -- Occupied --
-24.535 -24.535 -24.535  -6.922  -1.431  -1.387  -1.387  -0.765
 -0.727  -0.727  -0.691  -0.615  -0.615  -0.607  -0.606  -0.574
 -- Virtual --
  0.048   0.069   0.078   0.078   0.140   0.234   0.273   0.273
  0.319   0.319   0.330   0.337   0.337   0.364   0.390   0.400
  0.435   0.435   0.485   0.572   0.572   0.581   0.622   0.622
  0.644   0.644   0.843   0.939   0.939   1.352   1.386   1.386
  1.396   1.396   1.423   1.446   1.518   1.518   1.741   1.741
  1.752   1.752   1.780   1.859   1.928   1.929   1.932   1.968
  1.968   2.026   2.061   2.061   2.072   2.106   2.303   2.417
  2.417   2.538   2.538   2.891   2.892   3.036   3.082   3.159
  3.160   3.231   3.231   3.551   3.674   3.674   3.758   6.251
  6.251   6.251   6.302   6.302   6.465   6.504   6.649   6.657
  6.658   6.683   6.683   6.685   6.695   6.700   6.700   6.810
  6.811   6.877   6.891   6.891   6.897   7.005   7.005   7.112
  7.112   7.250   7.454   7.454   7.598   9.081   9.177   9.177
  9.258   9.258   9.284   9.579   9.579   9.625   9.734   9.734
  9.890   9.970   9.971  10.132  15.933  18.720  19.460  19.461
 35.985  36.126  36.416  36.416  36.600  50.092  50.102  50.103
 50.137  50.167  50.167  50.296  50.296  50.322  50.323  50.323
 50.414  50.425  50.441  50.469  55.599  55.600  55.600  55.640
 55.640  55.941  55.993  56.087  56.087  66.599  66.599  66.711
 --------------------------------------------------------------
 
          Ground-State Mulliken Net Atomic Charges

     Atom                 Charge (a.u.)
  ----------------------------------------
      1 B                    -0.019564
      2 F                     0.006248
      3 F                     0.006658
      4 F                     0.006658
  ----------------------------------------
  Sum of atomic charges =     0.000000

 -----------------------------------------------------------------
                    Cartesian Multipole Moments
 -----------------------------------------------------------------
    Charge (ESU x 10^10)
                 0.0000
    Dipole Moment (Debye)
         X      -0.0019      Y       0.0000      Z       0.0000
       Tot       0.0019
    Quadrupole Moments (Debye-Ang)
        XX     -21.9891     XY       0.0000     YY     -21.9892
        XZ       0.0000     YZ       0.0000     ZZ     -17.9371
    Octapole Moments (Debye-Ang^2)
       XXX      -1.7400    XXY       0.0000    XYY       1.7361
       YYY       0.0000    XXZ       0.0000    XYZ       0.0000
       YYZ       0.0000    XZZ      -0.0009    YZZ       0.0000
       ZZZ       0.0000
    Hexadecapole Moments (Debye-Ang^3)
      XXXX     -93.2075   XXXY       0.0000   XXYY     -31.0736
      XYYY       0.0000   YYYY     -93.2312   XXXZ       0.0000
      XXYZ       0.0000   XYYZ       0.0000   YYYZ       0.0000
      XXZZ     -17.2670   XYZZ       0.0000   YYZZ     -17.2711
      XZZZ       0.0000   YZZZ       0.0000   ZZZZ     -12.4113
 -----------------------------------------------------------------
 Calculating analytic gradient of the SCF energy
 Gradient of AOints
            1           2           3           4
    1  -0.0024309 -17.8182938   8.9103623   8.9103623
    2  -0.0000000   0.0000000  15.4341086 -15.4341086
    3  -0.0000000   0.0000000   0.0000000   0.0000000
 Gradient of XC Energy
            1           2           3           4
    1   0.0002624   0.3149167  -0.1575896  -0.1575896
    2  -0.0000000  -0.0000000  -0.2728450   0.2728450
    3   0.0000000  -0.0000000  -0.0000000  -0.0000000
 Gradient of SCF Energy
            1           2           3           4
    1   0.0000383   0.0000533  -0.0000458  -0.0000458
    2  -0.0000000   0.0000000   0.0000421  -0.0000421
    3   0.0000000  -0.0000000  -0.0000000  -0.0000000
 Max gradient component =       5.330E-05
 RMS gradient           =       3.169E-05
 Gradient time:  CPU 26.94 s  wall 27.07 s
 Geometry Optimization Parameters
   NAtoms,    NIC,     NZ,  NCons,   NDum,   NFix, NCnnct, MaxDiis
        4      17       6       0       0       0       0       0

 Cartesian Hessian Update
 Hessian Updated using BFGS Update


** GEOMETRY OPTIMIZATION IN CARTESIAN COORDINATES **
   Searching for a Minimum

   Optimization Cycle:   8

                       Coordinates (Angstroms)
     ATOM              X           Y           Z
    1  B          -0.000156    0.000000    0.000000
    2  F           1.309334    0.000000    0.000000
    3  F          -0.654589   -1.134069    0.000000
    4  F          -0.654589    1.134069    0.000000
   Point Group: c1    Number of degrees of freedom:   6


   Energy is   -324.482709591


 Translations and Rotations Projected Out of Hessian

  3 Hessian modes will be used to form the next step
  Hessian Eigenvalues:
     0.587607    0.998555    0.999883

 Minimum Search - Taking Simple RFO Step
 Searching for Lamda that Minimizes Along All modes
 Value Taken    Lamda =   0.00000000
 Step Taken.  Stepsize is  0.000111

                             Maximum     Tolerance    Cnvgd?
         Gradient           0.000053      0.000300     YES
         Displacement       0.000057      0.001200     YES
         Energy change     -0.000003      0.000001      NO


                       Distance Matrix (Angstroms)
             B (  1)   F (  2)   F (  3)
   F (  2)  1.309489
   F (  3)  1.309349  2.267841
   F (  4)  1.309349  2.267841  2.268137
 


 ******************************
 **  OPTIMIZATION CONVERGED  **
 ******************************
 Analysis of SCF Wavefunction
 
 --------------------------------------------------------------
                    Orbital Energies (a.u.)
 --------------------------------------------------------------
 
 Alpha MOs
 -- Occupied --
-24.535 -24.535 -24.535  -6.922  -1.431  -1.387  -1.387  -0.765
 -0.727  -0.727  -0.691  -0.615  -0.615  -0.607  -0.606  -0.574
 -- Virtual --
  0.048   0.069   0.078   0.078   0.140   0.234   0.273   0.273
  0.319   0.319   0.330   0.337   0.337   0.364   0.390   0.400
  0.435   0.435   0.485   0.572   0.572   0.581   0.622   0.622
  0.644   0.644   0.843   0.939   0.939   1.352   1.386   1.386
  1.396   1.396   1.423   1.446   1.518   1.518   1.741   1.741
  1.752   1.752   1.780   1.859   1.928   1.929   1.932   1.968
  1.968   2.026   2.061   2.061   2.072   2.106   2.303   2.417
  2.417   2.538   2.538   2.891   2.892   3.036   3.082   3.159
  3.160   3.231   3.231   3.551   3.674   3.674   3.758   6.251
  6.251   6.251   6.302   6.302   6.465   6.504   6.649   6.657
  6.658   6.683   6.683   6.685   6.695   6.700   6.700   6.810
  6.811   6.877   6.891   6.891   6.897   7.005   7.005   7.112
  7.112   7.250   7.454   7.454   7.598   9.081   9.177   9.177
  9.258   9.258   9.284   9.579   9.579   9.625   9.734   9.734
  9.890   9.970   9.971  10.132  15.933  18.720  19.460  19.461
 35.985  36.126  36.416  36.416  36.600  50.092  50.102  50.103
 50.137  50.167  50.167  50.296  50.296  50.322  50.323  50.323
 50.414  50.425  50.441  50.469  55.599  55.600  55.600  55.640
 55.640  55.941  55.993  56.087  56.087  66.599  66.599  66.711
 --------------------------------------------------------------
 
          Ground-State Mulliken Net Atomic Charges

     Atom                 Charge (a.u.)
  ----------------------------------------
      1 B                    -0.019564
      2 F                     0.006248
      3 F                     0.006658
      4 F                     0.006658
  ----------------------------------------
  Sum of atomic charges =     0.000000

 -----------------------------------------------------------------
                    Cartesian Multipole Moments
 -----------------------------------------------------------------
    Charge (ESU x 10^10)
                 0.0000
    Dipole Moment (Debye)
         X      -0.0019      Y       0.0000      Z       0.0000
       Tot       0.0019
    Quadrupole Moments (Debye-Ang)
        XX     -21.9891     XY       0.0000     YY     -21.9892
        XZ       0.0000     YZ       0.0000     ZZ     -17.9371
    Octapole Moments (Debye-Ang^2)
       XXX      -1.7400    XXY       0.0000    XYY       1.7361
       YYY       0.0000    XXZ       0.0000    XYZ       0.0000
       YYZ       0.0000    XZZ      -0.0009    YZZ       0.0000
       ZZZ       0.0000
    Hexadecapole Moments (Debye-Ang^3)
      XXXX     -93.2075   XXXY       0.0000   XXYY     -31.0736
      XYYY       0.0000   YYYY     -93.2312   XXXZ       0.0000
      XXYZ       0.0000   XYYZ       0.0000   YYYZ       0.0000
      XXZZ     -17.2670   XYZZ       0.0000   YYZZ     -17.2711
      XZZZ       0.0000   YZZZ       0.0000   ZZZZ     -12.4113
 -----------------------------------------------------------------
 Total job time:  651.24s(wall), 621.77s(cpu) 
 Tue May 20 16:54:00 2014

        *************************************************************
        *                                                           *
        *  Thank you very much for using Q-Chem.  Have a nice day.  *
        *                                                           *
        *************************************************************


0 sent ACK to 0 
now end server 0 ... 
 
**********************************************************************
Job 2 of 2 
**********************************************************************
 
Process 0 of 1 is on cl121 - thread support 1
initial socket setup ...start
initial socket setup ...done 
now start server 0 ... 

cmd = /usr/bin/ssh clhead /usr/local/qchem/bin/get_hostid 578017603 > /tmp/1624321.1.medium.q/qchem9884/lic.dat

cmd = /usr/bin/ssh clhead /usr/local/qchem/bin/get_hostid 578017603 > /tmp/1624321.1.medium.q/qchem9884/lic.dat

cmd = /usr/bin/ssh clhead /usr/local/qchem/bin/get_hostid 578017603 > /tmp/1624321.1.medium.q/qchem9884/lic.dat

cmd = /usr/bin/ssh clhead /usr/local/qchem/bin/get_hostid 578017603 > /tmp/1624321.1.medium.q/qchem9884/lic.dat

cmd = /usr/bin/ssh clhead /usr/local/qchem/bin/get_hostid 578017603 > /tmp/1624321.1.medium.q/qchem9884/lic.dat
                  Welcome to Q-Chem
     A Quantum Leap Into The Future Of Chemistry

 Y. Shao, L. Fusti-Molnar, Y. Jung, J. Kussmann, C. Ochsenfeld,
 S. T. Brown, A. T. B. Gilbert, L. V. Slipchenko,S. V. Levchenko,
[...]
  ----------------------------------------
      1 B                    -0.019563
      2 F                     0.006248
      3 F                     0.006658
      4 F                     0.006657
  ----------------------------------------
  Sum of atomic charges =     0.000000

 -----------------------------------------------------------------
                    Cartesian Multipole Moments
 -----------------------------------------------------------------
    Charge (ESU x 10^10)
                 0.0000
    Dipole Moment (Debye)
         X      -0.0019      Y       0.0000      Z      -0.0016
       Tot       0.0024
    Quadrupole Moments (Debye-Ang)
        XX     -21.9891     XY       0.0000     YY     -21.9892
        XZ       0.0010     YZ      -0.0018     ZZ     -17.9371
    Octapole Moments (Debye-Ang^2)
       XXX      -1.7400    XXY       0.0000    XYY       1.7361
       YYY       0.0000    XXZ      -0.0051    XYZ       0.0008
       YYZ      -0.0060    XZZ      -0.0009    YZZ       0.0000
       ZZZ      -0.0151
    Hexadecapole Moments (Debye-Ang^3)
      XXXX     -93.2075   XXXY       0.0000   XXYY     -31.0736
      XYYY       0.0000   YYYY     -93.2312   XXXZ       0.0105
      XXYZ      -0.0061   XYYZ       0.0036   YYYZ      -0.0183
      XXZZ     -17.2670   XYZZ       0.0000   YYZZ     -17.2711
      XZZZ       0.0100   YZZZ      -0.0174   ZZZZ     -12.4113
 -----------------------------------------------------------------
 Calculating analytic gradient of the SCF energy
 Gradient of AOints
            1           2           3           4
    1  -0.0024277 -17.8182913   8.9103616   8.9103574
    2  -0.0000064  -0.0000004  15.4341063 -15.4340995
    3   0.0094152   0.0013973   0.0013954  -0.0122079
 Gradient of XC Energy
            1           2           3           4
    1   0.0002623   0.3149167  -0.1575895  -0.1575894
    2   0.0000003  -0.0000000  -0.2728450   0.2728447
    3  -0.0002877   0.0000164   0.0000165   0.0002548
 Gradient of SCF Energy
            1           2           3           4
    1   0.0000385   0.0000533  -0.0000458  -0.0000460
    2  -0.0000002  -0.0000000   0.0000420  -0.0000418
    3  -0.0001048   0.0000356   0.0000357   0.0000335
 Max gradient component =       1.048E-04
 RMS gradient           =       4.717E-05
 Gradient time:  CPU 26.92 s  wall 27.39 s
 Writing REM_CC_EA            4
 ----------------------------------------------------
       Standard Nuclear Orientation (Angstroms)
    I     Atom         X            Y            Z
 ----------------------------------------------------
    1      B      -0.000156     0.000000     0.000000
    2      F       1.309334     0.000000     0.000000
    3      F      -0.654589    -1.134069     0.000000
    4      F      -0.654589     1.134069    -0.001000
 ----------------------------------------------------
 Nuclear Repulsion Energy =   111.2577516069 hartrees
 There are       16 alpha and       16 beta electrons

                       Distance Matrix (Angstroms)
             B (  1)   F (  2)   F (  3)
   F (  2)  1.309489
   F (  3)  1.309349  2.267841
   F (  4)  1.309349  2.267841  2.268138
 
 Requested basis set is G3large
 There are 40 shells and 168 basis functions
 A cutoff of  1.0D-11 yielded    727 shell pairs
 There are  13218 function pairs ( 17373 Cartesian)
Evaluating contribution to one-electron hamiltonian from nuclear
 Smallest overlap matrix eigenvalue = 3.25E-04
 Multipole matrices computed through 2nd order
 Guess MOs from SCF MO coefficient file
Reading MOs from coefficient file
Reading MOs from coefficient file
 Long-range K will be added via erf
 Coulomb attenuation parameter = 0.45 bohr**(-1)
 A restricted Kohn-Sham SCF calculation will be
 performed using Pulay DIIS extrapolation
 Exchange:  wPBE + LR-HF      Correlation:  PBE
 Using SG-1 standard quadrature grid
 SCF converges when DIIS error is below 1.0E-08
 ---------------------------------------
  Cycle       Energy         DIIS Error
 ---------------------------------------
    1    -324.4827066291      2.96E-05
    2    -324.4827094549      3.62E-06
    3    -324.4827095394      8.71E-07
    4    -324.4827095453      2.14E-07
    5    -324.4827095445      8.52E-08
    6    -324.4827095466      3.88E-08
    7    -324.4827095458      7.35E-09 Convergence criterion met
 ---------------------------------------
 One-Electron    Energy =  -672.1020173042
 Total Coulomb   Energy =   271.7462922506
 Alpha Exchange  Energy =    -3.7079275861
 Beta  Exchange  Energy =    -3.7079275861
 DFT   Exchange  Energy =   -26.8769919323
 DFT Correlation Energy =    -1.0918889946
 Nuclear Repu.   Energy =   111.2577516069
 Nuclear Attr.   Energy =  -995.8116120629
 Kinetic         Energy =   323.7095947587
 SCF time:  CPU 37.00 s  wall 38.13 s
 Final Alpha MO Eigenvalues
            1           2           3           4           5           6
    1 -24.5349878 -24.5349815 -24.5349163  -6.9217193  -1.4310065  -1.3872125
            7           8           9          10          11          12
    1  -1.3871184  -0.7649420  -0.7266089  -0.7265703  -0.6913943  -0.6153577
           13          14          15          16          17          18
    1  -0.6153409  -0.6065052  -0.6064482  -0.5735900   0.0480936   0.0685387
           19          20          21
    1   0.0783279   0.0783327   0.1400579
 Analysis of SCF Wavefunction
 
 --------------------------------------------------------------
                    Orbital Energies (a.u.)
 --------------------------------------------------------------
 
 Alpha MOs
 -- Occupied --
-24.535 -24.535 -24.535  -6.922  -1.431  -1.387  -1.387  -0.765
 -0.727  -0.727  -0.691  -0.615  -0.615  -0.607  -0.606  -0.574
 -- Virtual --
  0.048   0.069   0.078   0.078   0.140   0.234   0.273   0.273
  0.319   0.319   0.330   0.337   0.337   0.364   0.390   0.400
  0.435   0.435   0.485   0.572   0.572   0.581   0.622   0.622
  0.644   0.644   0.843   0.939   0.939   1.352   1.386   1.386
  1.396   1.396   1.423   1.446   1.518   1.518   1.741   1.741
  1.752   1.752   1.780   1.859   1.928   1.929   1.932   1.968
  1.968   2.026   2.061   2.061   2.072   2.106   2.303   2.417
  2.417   2.538   2.538   2.891   2.892   3.036   3.082   3.159
  3.160   3.231   3.231   3.551   3.674   3.674   3.758   6.251
  6.251   6.251   6.302   6.302   6.465   6.504   6.649   6.657
  6.658   6.683   6.683   6.685   6.695   6.700   6.700   6.810
  6.811   6.877   6.891   6.891   6.897   7.005   7.005   7.112
  7.112   7.250   7.454   7.454   7.598   9.081   9.177   9.177
  9.258   9.258   9.284   9.579   9.579   9.625   9.734   9.734
  9.890   9.970   9.971  10.132  15.933  18.720  19.460  19.461
 35.985  36.126  36.416  36.416  36.600  50.092  50.102  50.103
 50.137  50.167  50.167  50.296  50.296  50.322  50.323  50.323
 50.414  50.425  50.441  50.469  55.599  55.600  55.600  55.640
 55.640  55.941  55.993  56.087  56.087  66.599  66.599  66.711
 --------------------------------------------------------------
 
          Ground-State Mulliken Net Atomic Charges

     Atom                 Charge (a.u.)
  ----------------------------------------
      1 B                    -0.019563
      2 F                     0.006248
      3 F                     0.006658
      4 F                     0.006657
  ----------------------------------------
  Sum of atomic charges =     0.000000

 -----------------------------------------------------------------
                    Cartesian Multipole Moments
 -----------------------------------------------------------------
    Charge (ESU x 10^10)
                 0.0000
    Dipole Moment (Debye)
         X      -0.0019      Y       0.0000      Z       0.0016
       Tot       0.0024
    Quadrupole Moments (Debye-Ang)
        XX     -21.9891     XY       0.0000     YY     -21.9892
        XZ      -0.0010     YZ       0.0018     ZZ     -17.9371
    Octapole Moments (Debye-Ang^2)
       XXX      -1.7400    XXY       0.0000    XYY       1.7361
       YYY       0.0000    XXZ       0.0051    XYZ      -0.0008
       YYZ       0.0060    XZZ      -0.0009    YZZ       0.0000
       ZZZ       0.0151
    Hexadecapole Moments (Debye-Ang^3)
      XXXX     -93.2075   XXXY       0.0000   XXYY     -31.0736
      XYYY       0.0000   YYYY     -93.2312   XXXZ      -0.0105
      XXYZ       0.0061   XYYZ      -0.0036   YYYZ       0.0183
      XXZZ     -17.2670   XYZZ       0.0000   YYZZ     -17.2711
      XZZZ      -0.0100   YZZZ       0.0174   ZZZZ     -12.4113
 -----------------------------------------------------------------
 Calculating analytic gradient of the SCF energy
 Gradient of AOints
            1           2           3           4
    1  -0.0024274 -17.8182914   8.9103615   8.9103573
    2  -0.0000066  -0.0000002  15.4341064 -15.4340996
    3  -0.0094145  -0.0013974  -0.0013956   0.0122075
 Gradient of XC Energy
            1           2           3           4
    1   0.0002623   0.3149167  -0.1575895  -0.1575894
    2   0.0000003  -0.0000000  -0.2728450   0.2728447
    3   0.0002877  -0.0000164  -0.0000165  -0.0002548
 Gradient of SCF Energy
            1           2           3           4
    1   0.0000385   0.0000533  -0.0000458  -0.0000460
    2  -0.0000002  -0.0000000   0.0000420  -0.0000418
    3   0.0001048  -0.0000356  -0.0000357  -0.0000335
 Max gradient component =       1.048E-04
 RMS gradient           =       4.717E-05
 Gradient time:  CPU 27.72 s  wall 28.00 s
Dipole drv :
gprntSymmMtrx error report: 
 Final Hessian.
            1           2           3           4           5           6
    1   0.6924098  -0.0000057  -0.0000012  -0.4043683  -0.0000001  -0.0000012
    2  -0.0000057   0.6936631   0.0000003   0.0000022  -0.0576337   0.0000008
    3  -0.0000012   0.0000003   0.1674210   0.0000013   0.0000002  -0.0564829
    4  -0.4043683   0.0000022   0.0000013   0.4922973   0.0000004   0.0000004
    5  -0.0000001  -0.0576337   0.0000002   0.0000004   0.0656517  -0.0000007
    6  -0.0000012   0.0000008  -0.0564829   0.0000004  -0.0000007   0.0187671
    7  -0.1440209  -0.1505050   0.0000006  -0.0439659  -0.0400642   0.0000010
    8  -0.1503682  -0.3180143  -0.0000005  -0.0290679  -0.0040086   0.0000005
    9   0.0000003   0.0000015  -0.0554637  -0.0000016  -0.0000000   0.0188561
   10  -0.1440210   0.1505081   0.0000011  -0.0439660   0.0400640  -0.0000004
   11   0.1503691  -0.3180170   0.0000000   0.0290676  -0.0040080   0.0000000
   12   0.0000009  -0.0000004  -0.0554637  -0.0000002   0.0000001   0.0188560
            7           8           9          10          11          12
    1  -0.1440209  -0.1503682   0.0000003  -0.1440210   0.1503691   0.0000009
    2  -0.1505050  -0.3180143   0.0000015   0.1505081  -0.3180170  -0.0000004
    3   0.0000006  -0.0000005  -0.0554637   0.0000011   0.0000000  -0.0554637
    4  -0.0439659  -0.0290679  -0.0000016  -0.0439660   0.0290676  -0.0000002
    5  -0.0400642  -0.0040086  -0.0000000   0.0400640  -0.0040080   0.0000001
    6   0.0000010   0.0000005   0.0188561  -0.0000004   0.0000000   0.0188560
    7   0.1719927   0.1850042  -0.0000001   0.0159958   0.0055662  -0.0000006
    8   0.1850042   0.3857639  -0.0000000  -0.0055657  -0.0637398   0.0000001
    9  -0.0000001  -0.0000000   0.0177181   0.0000012   0.0000000   0.0188862
   10   0.0159958  -0.0055657   0.0000012   0.1719928  -0.1850048  -0.0000015
   11   0.0055662  -0.0637398   0.0000000  -0.1850048   0.3857642   0.0000002
   12  -0.0000006   0.0000001   0.0188862  -0.0000015   0.0000002   0.0177180
 Writing REM_CC_EA            4
 ----------------------------------------------------
       Standard Nuclear Orientation (Angstroms)
    I     Atom         X            Y            Z
 ----------------------------------------------------
    1      B      -0.000156     0.000000     0.000000
    2      F       1.309334     0.000000     0.000000
    3      F      -0.654589    -1.134069     0.000000
    4      F      -0.654589     1.134069     0.000000
 ----------------------------------------------------
 Nuclear Repulsion Energy =   111.2577605853 hartrees
 There are       16 alpha and       16 beta electrons
 old dipole drv.
            1           2           3           4           5           6
    1   2.0894488   0.0000314   0.0000060  -0.9762262   0.0000024   0.0000059
    2   0.0000026   2.0894104   0.0000080  -0.0000011  -0.4165792  -0.0000019
    3   0.0000001   0.0000003   1.0021925   0.0000112  -0.0000008  -0.3341475
            7           8           9          10          11          12
    1  -0.5566130  -0.2421499   0.0000013  -0.5566131   0.2421350  -0.0000072
    2  -0.2419741  -0.8364192  -0.0000007   0.2419756  -0.8364296   0.0000077
    3   0.0000014   0.0000010  -0.3339955   0.0000014  -0.0000006  -0.3339960
 New transposed dipole drv.
            1           2           3
    1   2.0894488   0.0000026   0.0000001
    2   0.0000314   2.0894104   0.0000003
    3   0.0000060   0.0000080   1.0021925
    4  -0.9762262  -0.0000011   0.0000112
    5   0.0000024  -0.4165792  -0.0000008
    6   0.0000059  -0.0000019  -0.3341475
    7  -0.5566130  -0.2419741   0.0000014
    8  -0.2421499  -0.8364192   0.0000010
    9   0.0000013  -0.0000007  -0.3339955
   10  -0.5566131   0.2419756   0.0000014
   11   0.2421350  -0.8364296  -0.0000006
   12  -0.0000072   0.0000077  -0.3339960
FINAL TENSOR RESULT:
Order 2, Length 12
Order 1, Length 12
   0.6924098  -0.0000057  -0.0000012  -0.4043683  -0.0000001  -0.0000012  -0.1440209  -0.1503682   0.0000003  -0.1440210   0.1503691   0.0000009
Order 1, Length 12
  -0.0000057   0.6936631   0.0000003   0.0000022  -0.0576337   0.0000008  -0.1505050  -0.3180143   0.0000015   0.1505081  -0.3180170  -0.0000004
Order 1, Length 12
  -0.0000012   0.0000003   0.1674210   0.0000013   0.0000002  -0.0564829   0.0000006  -0.0000005  -0.0554637   0.0000011   0.0000000  -0.0554637
Order 1, Length 12
  -0.4043683   0.0000022   0.0000013   0.4922973   0.0000004   0.0000004  -0.0439659  -0.0290679  -0.0000016  -0.0439660   0.0290676  -0.0000002
Order 1, Length 12
  -0.0000001  -0.0576337   0.0000002   0.0000004   0.0656517  -0.0000007  -0.0400642  -0.0040086  -0.0000000   0.0400640  -0.0040080   0.0000001
Order 1, Length 12
  -0.0000012   0.0000008  -0.0564829   0.0000004  -0.0000007   0.0187671   0.0000010   0.0000005   0.0188561  -0.0000004   0.0000000   0.0188560
Order 1, Length 12
  -0.1440209  -0.1505050   0.0000006  -0.0439659  -0.0400642   0.0000010   0.1719927   0.1850042  -0.0000001   0.0159958   0.0055662  -0.0000006
Order 1, Length 12
  -0.1503682  -0.3180143  -0.0000005  -0.0290679  -0.0040086   0.0000005   0.1850042   0.3857639  -0.0000000  -0.0055657  -0.0637398   0.0000001
Order 1, Length 12
   0.0000003   0.0000015  -0.0554637  -0.0000016  -0.0000000   0.0188561  -0.0000001  -0.0000000   0.0177181   0.0000012   0.0000000   0.0188862
Order 1, Length 12
  -0.1440210   0.1505081   0.0000011  -0.0439660   0.0400640  -0.0000004   0.0159958  -0.0055657   0.0000012   0.1719928  -0.1850048  -0.0000015
Order 1, Length 12
   0.1503691  -0.3180170   0.0000000   0.0290676  -0.0040080   0.0000000   0.0055662  -0.0637398   0.0000000  -0.1850048   0.3857642   0.0000002
Order 1, Length 12
   0.0000009  -0.0000004  -0.0554637  -0.0000002   0.0000001   0.0188560  -0.0000006   0.0000001   0.0188862  -0.0000015   0.0000002   0.0177180


 # Finishing finite difference calculation for IDERIV #
 ######################################################
 ######################################################
 Requested basis set is G3large
 There are 40 shells and 168 basis functions
 **********************************************************************
 **                                                                  **
 **                       VIBRATIONAL ANALYSIS                       **
 **                       --------------------                       **
 **                                                                  **
 **        VIBRATIONAL FREQUENCIES (CM**-1) AND NORMAL MODES         **
 **     FORCE CONSTANTS (mDYN/ANGSTROM) AND REDUCED MASSES (AMU)     **
 **                  INFRARED INTENSITIES (KM/MOL)                   **
 **                                                                  **
 **********************************************************************
 

 Mode:                 1                      2                      3
 Frequency:       478.63                 479.06                 692.43
 Force Cnst:      2.4106                 2.4153                 3.3372
 Red. Mass:      17.8600                17.8625                11.8135
 IR Active:          YES                    YES                    YES
 IR Intens:       13.471                 13.409                106.143
 Raman Active:       YES                    YES                    YES
               X      Y      Z        X      Y      Z        X      Y      Z
 B          0.377  0.001  0.000    0.001 -0.377  0.000    0.000  0.000  0.948
 F          0.457 -0.001  0.000    0.001  0.603  0.000    0.000  0.000 -0.183
 F         -0.337  0.459  0.000   -0.459 -0.191  0.000    0.000  0.000 -0.183
 F         -0.338 -0.458  0.000    0.458 -0.193  0.000    0.000  0.000 -0.183
 TransDip   0.118  0.000  0.000    0.000 -0.117  0.000    0.000  0.000  0.330

 Mode:                 4                      5                      6
 Frequency:       903.31                1479.29                1480.45
 Force Cnst:      9.1337                15.8599                15.8832
 Red. Mass:      18.9984                12.3011                12.2999
 IR Active:          YES                    YES                    YES
 IR Intens:        0.000                459.956                459.999
 Raman Active:       YES                    YES                    YES
               X      Y      Z        X      Y      Z        X      Y      Z
 B          0.000  0.000  0.000    0.916  0.004  0.000   -0.004  0.916  0.000
 F          0.577  0.000  0.000   -0.327  0.000  0.000    0.001 -0.027  0.000
 F         -0.289 -0.500  0.000   -0.102 -0.131  0.000   -0.130 -0.251  0.000
 F         -0.289  0.500  0.000   -0.101  0.129  0.000    0.130 -0.253  0.000
 TransDip   0.000  0.000  0.000    0.687  0.003  0.000   -0.003  0.687  0.000

 STANDARD THERMODYNAMIC QUANTITIES AT   298.18 K  AND     1.00 ATM

   This Molecule has  0 Imaginary Frequencies
   Zero point vibrational energy:        7.881 kcal/mol

   Atom    1 Element B  Has Mass   11.00931
   Atom    2 Element F  Has Mass   18.99840
   Atom    3 Element F  Has Mass   18.99840
   Atom    4 Element F  Has Mass   18.99840
   Molecular Mass:    68.004510 amu
   Principal axes and moments of inertia in atomic units:
                             1           2           3
    Eigenvalues --      174.45047   174.51128   348.96175
          X               0.00000     1.00000     0.00000
          Y               1.00000     0.00000     0.00000
          Z               0.00000     0.00000     1.00000
   Rotational Symmetry Number is   1
   The Molecule is an Asymmetric Top
   Translational Enthalpy:        0.889 kcal/mol
   Rotational Enthalpy:           0.889 kcal/mol
   Vibrational Enthalpy:          8.296 kcal/mol
   gas constant (RT):             0.593 kcal/mol
   Translational Entropy:        38.569  cal/mol.K
   Rotational Entropy:           23.878  cal/mol.K
   Vibrational Entropy:           1.905  cal/mol.K

   Total Enthalpy:               10.666 kcal/mol
   Total Entropy:                64.352  cal/mol.K
 Total job time:  1692.38s(wall), 1659.26s(cpu) 
 Tue May 20 17:22:16 2014

        *************************************************************
        *                                                           *
        *  Thank you very much for using Q-Chem.  Have a nice day.  *
        *                                                           *
        *************************************************************


0 sent ACK to 0 
now end server 0 ... 
