Process 0 of 1 is on cl046.stfx.acenet.ca - thread support 1
initial socket setup ...start
initial socket setup ...done 
now start server 0 ... 

cmd = /usr/bin/ssh clhead /usr/local/qchem/bin/get_hostid 1380815327 > /scratch/tmp/6064838.1.short.q/qchem23544/lic.dat
                  Welcome to Q-Chem
     A Quantum Leap Into The Future Of Chemistry

 Y. Shao, L. Fusti-Molnar, Y. Jung, J. Kussmann, C. Ochsenfeld,
 S. T. Brown, A. T. B. Gilbert, L. V. Slipchenko,S. V. Levchenko,
 D. P. O'Neill, R. A. DiStasio Jr., R. C. Lochan, T. Wang,
 G. J. O. Beran, N. A. Besley, J. M. Herbert, C. Y. Lin,
 T. Van Voorhis, S. H. Chien, A. Sodt, R. P. Steele, 
 V. A. Rassolov, P. E. Maslen, P. P. Korambath, R. D. Adamson,
 B. Austin, J. Baker, E. F. C. Byrd, H. Dachsel, R. J. Doerksen,
 A. Dreuw, B. D. Dunietz, A. D. Dutoi, T. R. Furlani,
 S. R. Gwaltney, A. Heyden, S. Hirata, C.-P. Hsu, G. Kedziora,
 R. Z. Khaliullin, P. Klunzinger, A. M. Lee, M. S. Lee, W. Liang,
 I. Lotan, N. Nair, B. Peters, E. I. Proynov, P. A. Pieniazek, 
 Y. M. Rhee, J. Ritchie, E. Rosta, C. D. Sherrill, 
 A. C. Simmonett, J. E. Subotnik, H. L. Woodcock III,
 W. Zhang, A. T. Bell, A. K. Chakraborty, D. M. Chipman,
 F. J. Keil, A. Warshel, W. J. Hehre, H. F. Schaefer III,
 J. Kong, A. I. Krylov, P. M. W. Gill, M. Head-Gordon,
 Q-Chem, Version 3.1, Q-Chem, Inc., Pittsburgh, PA (2007).

 Additional authors for Version 3.1: 
 Z. Gan, Y. Zhao, N. E. Schultz, D. Truhlar, E. Epifanovsky and M. Oana.

 Additional authors for Version 3.2: 
 R. Baer, B. R. Brooks, D. Casanova, J.-D. Chai, C.-L. Cheng, 
 C. Cramer, D. Crittenden, A. Ghysels, G. Hawkins, E. G. Hohenstein, 
 C. Kelley, W. Kurlancheek, D. Liotard, E. Livshits, P. Manohar, 
 A. Marenich, D. Neuhauser, R. Olson, M. A. Rohrdanz, K. S. Thanthiriwatte, 
 A. J. W. Thom, V. Vanovschi, C. F. Williams, Q. Wu and Z.-Q. You. 


 Intel X86 Linux Version

 Q-chem begins on Mon Jul  8 12:26:04 2013  

 Parallel job on  1  processors
Processing $rem in /usr/local/qchem/config/preferences.

theFileMan(): MAXOPENFILES=974 MAX_SUB_FILE_NUM=16
Maximum size of a physical file is 2.0 GB, maximum size of a tmp-file is 32.0 GB


--------------------------------------------------------------
User input:
--------------------------------------------------------------

$molecule
-1,2
C         -0.00003        0.00000        0.00516
H         -0.00008        0.00000        1.10218
C          1.44812        0.00000       -0.46687
H          1.49471        0.00000       -1.56081
H          1.98381        0.88422       -0.11143
H          1.98381       -0.88422       -0.11143
C         -0.72414       -1.25418       -0.46676
H         -0.74732       -1.29470       -1.56072
H         -0.22592       -2.15997       -0.11132
H         -1.75778       -1.27628       -0.11148
C         -0.72414        1.25418       -0.46676
H         -0.74732        1.29470       -1.56072
H         -1.75778        1.27628       -0.11148
H         -0.22592        2.15997       -0.11132
$end

$comment
negative
$end

$xc_functional
C PBE   1.00
X wPBE  1.00
$end

$rem
SYMMETRY_DECOMPOSITION	0
exchange 		general
LRC_DFT                 true
BASIS                   g3large
omega			800
mem_static              760
max_scf_cycles          200
scf_final_print         1
sym_ignore              true
$end

--------------------------------------------------------------
 Writing REM_CC_EA           14
 ----------------------------------------------------
       Standard Nuclear Orientation (Angstroms)
    I     Atom         X            Y            Z
 ----------------------------------------------------
    1      C      -0.000030     0.000000     0.005160
    2      H      -0.000080     0.000000     1.102180
    3      C       1.448120     0.000000    -0.466870
    4      H       1.494710     0.000000    -1.560810
    5      H       1.983810     0.884220    -0.111430
    6      H       1.983810    -0.884220    -0.111430
    7      C      -0.724140    -1.254180    -0.466760
    8      H      -0.747320    -1.294700    -1.560720
    9      H      -0.225920    -2.159970    -0.111320
   10      H      -1.757780    -1.276280    -0.111480
   11      C      -0.724140     1.254180    -0.466760
   12      H      -0.747320     1.294700    -1.560720
   13      H      -1.757780     1.276280    -0.111480
   14      H      -0.225920     2.159970    -0.111320
 ----------------------------------------------------
 Nuclear Repulsion Energy =   135.0123242027 hartrees
 There are       18 alpha and       17 beta electrons
 Requested basis set is G3large
 There are 100 shells and 268 basis functions

Total QAlloc Memory Limit   2000 MB
Mega-Array Size       743 MB
MEM_STATIC part       760 MB

                       Distance Matrix (Angstroms)
             C (  1)   H (  2)   C (  3)   H (  4)   H (  5)   H (  6)
   H (  2)  1.097020
   C (  3)  1.523138  2.135229
   H (  4)  2.164835  3.053836  1.094932
   H (  5)  2.175100  2.488074  1.093228  1.766852
   H (  6)  2.175100  2.488074  1.093228  1.766852  1.768440
   C (  7)  1.523158  2.135135  2.508322  2.773663  3.468718  2.756106
   H (  8)  2.164872  3.053793  2.773574  2.589005  3.782487  3.118975
   H (  9)  2.174871  2.487781  2.755775  3.118823  3.761649  2.551557
   H ( 10)  2.175358  2.488246  3.468860  3.782610  4.320562  3.762075
   C ( 11)  1.523158  2.135135  2.508322  2.773663  2.756106  3.468718
   H ( 12)  2.164872  3.053793  2.773574  2.589005  3.118975  3.782487
   H ( 13)  2.175358  2.488246  3.468860  3.782610  3.762075  4.320562
   H ( 14)  2.174871  2.487781  2.755775  3.118823  2.551557  3.761649
             C (  7)   H (  8)   H (  9)   H ( 10)   C ( 11)   H ( 12)
   H (  8)  1.094956
   H (  9)  1.093168  1.766723
   H ( 10)  1.093217  1.766824  1.768475
   C ( 11)  2.508360  2.773820  3.468570  2.756422
   H ( 12)  2.773820  2.589400  3.782508  3.119497  1.094956
   H ( 13)  2.756422  3.119497  3.762235  2.552560  1.093217  1.766824
   H ( 14)  3.468570  3.782508  4.319940  3.762235  1.093168  1.766723
             H ( 13)
   H ( 14)  1.768475
 
 A cutoff of  1.0D-08 yielded   4705 shell pairs
 There are  33835 function pairs ( 40339 Cartesian)
Evaluating contribution to one-electron hamiltonian from nuclear
 Smallest overlap matrix eigenvalue = 3.15E-05

 Q-Chem warning in module mkSTV.C, line 194:

 Overlap eigenvalue is smaller than square root of threshold

 Multipole matrices computed through 2nd order

  Scale SEOQF with 1.000000e-01/1.000000e-01/1.000000e-01

 Standard Electronic Orientation quadrupole field applied
 Nucleus-field energy     =     0.0000000026 hartrees
 Guess from superposition of atomic densities
 Warning:  Energy on first SCF cycle will be non-variational
 Long-range K will be added via erf
 Coulomb attenuation parameter = 0.8 bohr**(-1)
 An unrestricted Kohn-Sham SCF calculation will be
 performed using Pulay DIIS extrapolation
 Exchange:  wPBE + LR-HF      Correlation:  PBE
 Using SG-1 standard quadrature grid
 SCF converges when DIIS error is below 1.0E-05
 Requested basis set is G3large
 There are 100 shells and 268 basis functions
 A cutoff of  1.0D-08 yielded   4705 shell pairs
 There are  33835 function pairs ( 40339 Cartesian)
 Warning!  Inaccurate integrated density:
   Number of electrons =    35
   Numerical integral  =    34.000126056514
   Relative error      =    -2.8567826957 %
 ---------------------------------------
  Cycle       Energy         DIIS Error
 ---------------------------------------
    1    -159.8060320854      2.76E-02
    2    -158.2819318895      2.61E-03
    3    -158.3710907805      1.16E-03
    4    -158.3866297692      3.28E-04
    5    -158.3897041209      8.03E-05
    6    -158.3900826397      2.86E-05
    7    -158.3901738072      1.08E-05
    8    -158.3901971497      4.76E-06 Convergence criterion met
 ---------------------------------------
 One-Electron    Energy =  -482.9240097937
 Total Coulomb   Energy =   215.0214000576
 Alpha Exchange  Energy =    -5.4667349400
 Beta  Exchange  Energy =    -5.4060764880
 DFT   Exchange  Energy =   -13.5305386320
 DFT Correlation Energy =    -1.0965615589
 Nuclear Repu.   Energy =   135.0123242052
 Nuclear Attr.   Energy =  -640.3932782333
 Kinetic         Energy =   157.4692684396
 <S^2> = 0.7501
 SCF time:  CPU 306.03 s  wall 308.46 s
 Final Alpha MO Eigenvalues
            1           2           3           4           5           6
    1 -10.1901598 -10.1732642 -10.1723447 -10.1712137  -0.9477428  -0.7999369
            7           8           9          10          11          12
    1  -0.7989431  -0.6473735  -0.5268750  -0.4859945  -0.4853817  -0.4275947
           13          14          15          16          17          18
    1  -0.4264875  -0.4023982  -0.3589723  -0.3588667  -0.3518264   0.0324257
           19          20          21          22          23
    1   0.1276930   0.1278209   0.1333513   0.1619139   0.1619848
 Final Beta MO Eigenvalues
            1           2           3           4           5           6
    1 -10.1900034 -10.1730763 -10.1721389 -10.1709870  -0.9471582  -0.7988636
            7           8           9          10          11          12
    1  -0.7977803  -0.6460421  -0.5255915  -0.4855465  -0.4849770  -0.4274353
           13          14          15          16          17          18
    1  -0.4263235  -0.4024264  -0.3585412  -0.3584196  -0.3509369   0.1253224
           19          20          21          22
    1   0.1407363   0.1410073   0.1449850   0.1625788
 Analysis of SCF Wavefunction
 
 --------------------------------------------------------------
                    Orbital Energies (a.u.)
 --------------------------------------------------------------
 
 Alpha MOs
 -- Occupied --
-10.190 -10.173 -10.172 -10.171  -0.948  -0.800  -0.799  -0.647
 -0.527  -0.486  -0.485  -0.428  -0.426  -0.402  -0.359  -0.359
 -0.352   0.032
 -- Virtual --
  0.128   0.128   0.133   0.162   0.162   0.171   0.177   0.177
  0.199   0.236   0.262   0.263   0.271   0.272   0.274   0.285
  0.301   0.301   0.312   0.323   0.324   0.333   0.333   0.339
  0.356   0.410   0.414   0.414   0.427   0.428   0.460   0.462
  0.505   0.506   0.512   0.513   0.517   0.599   0.626   0.626
  0.700   0.706   0.706   0.722   0.736   0.737   0.786   0.804
  0.805   0.806   0.820   0.821   0.826   0.856   0.875   0.875
  0.894   0.904   0.904   0.939   0.940   0.962   0.984   1.009
  1.009   1.083   1.113   1.114   1.137   1.180   1.181   1.238
  1.243   1.289   1.290   1.344   1.345   1.374   1.403   1.420
  1.421   1.427   1.462   1.463   1.529   1.551   1.552   1.584
  1.584   1.605   1.623   1.624   1.631   1.632   1.632   1.664
  1.683   1.683   1.743   1.762   1.762   1.782   1.837   1.869
  1.869   1.897   1.899   1.903   1.904   1.947   1.947   2.016
  2.016   2.017   2.737   2.738   2.855   2.886   2.886   2.898
  2.976   3.049   3.050   3.078   3.078   3.102   3.158   3.193
  3.194   3.262   3.280   3.281   3.299   3.299   3.314   3.381
  3.381   3.391   3.479   3.480   3.517   3.613   3.616   3.622
  3.623   3.680   3.681   3.709   3.720   3.753   3.753   3.811
  3.820   3.820   3.901   3.904   3.905   3.933   3.934   3.971
  4.064   4.101   4.101   4.126   4.126   4.201   4.201   4.268
  4.307   4.308   4.329   4.344   4.374   4.375   4.401   4.431
  4.431   4.554   4.566   4.567   4.568   4.602   4.621   4.621
  4.639   4.639   4.658   4.757   4.758   4.758   4.849   4.883
  4.884   4.978   4.979   4.998   4.998   4.999   5.061   5.133
  5.133   5.152   5.251   5.252   5.689   5.787   5.788   5.975
  6.060   6.061   6.088   6.091   6.098   6.099  24.452  24.613
 24.615  24.733  27.976  27.977  28.276  28.454  28.455  28.469
 28.503  28.525  28.527  28.739  28.836  28.836  41.314  41.344
 41.354  41.356  41.367  41.382  41.391  41.392  41.536  41.540
 41.541  41.546  41.547  41.557  41.574  41.576  41.602  41.633
 41.638  41.677
 
 Beta MOs
 -- Occupied --
-10.190 -10.173 -10.172 -10.171  -0.947  -0.799  -0.798  -0.646
 -0.526  -0.486  -0.485  -0.427  -0.426  -0.402  -0.359  -0.358
 -0.351
 -- Virtual --
  0.125   0.141   0.141   0.145   0.163   0.163   0.172   0.175
  0.176   0.196   0.230   0.254   0.255   0.264   0.264   0.269
  0.284   0.297   0.297   0.310   0.320   0.320   0.328   0.328
  0.332   0.356   0.407   0.412   0.412   0.426   0.426   0.459
  0.460   0.500   0.501   0.511   0.511   0.511   0.593   0.623
  0.623   0.697   0.703   0.703   0.720   0.734   0.734   0.783
  0.802   0.803   0.803   0.818   0.819   0.823   0.855   0.874
  0.875   0.892   0.903   0.904   0.936   0.937   0.960   0.982
  1.009   1.009   1.083   1.113   1.113   1.137   1.181   1.181
  1.238   1.242   1.289   1.289   1.344   1.345   1.374   1.403
  1.420   1.421   1.427   1.462   1.463   1.529   1.551   1.552
  1.584   1.584   1.604   1.622   1.623   1.630   1.631   1.632
  1.664   1.682   1.682   1.743   1.761   1.761   1.781   1.836
  1.869   1.869   1.897   1.898   1.903   1.903   1.946   1.947
  2.016   2.016   2.016   2.737   2.737   2.855   2.886   2.886
  2.898   2.976   3.049   3.050   3.078   3.078   3.102   3.158
  3.193   3.194   3.262   3.280   3.281   3.299   3.299   3.314
  3.381   3.382   3.391   3.480   3.480   3.518   3.613   3.617
  3.622   3.623   3.680   3.681   3.710   3.720   3.753   3.753
  3.812   3.820   3.820   3.901   3.904   3.905   3.933   3.934
  3.971   4.065   4.101   4.101   4.126   4.126   4.201   4.201
  4.268   4.307   4.308   4.329   4.345   4.374   4.375   4.401
  4.431   4.431   4.555   4.566   4.567   4.568   4.602   4.621
  4.621   4.639   4.639   4.658   4.757   4.758   4.758   4.849
  4.883   4.884   4.978   4.979   4.998   4.998   4.999   5.061
  5.133   5.133   5.152   5.251   5.252   5.689   5.787   5.788
  5.975   6.060   6.061   6.088   6.091   6.098   6.100  24.452
 24.614  24.615  24.733  27.976  27.977  28.277  28.454  28.455
 28.469  28.503  28.526  28.527  28.740  28.836  28.837  41.314
 41.345  41.354  41.357  41.368  41.383  41.391  41.392  41.536
 41.540  41.541  41.546  41.547  41.557  41.574  41.576  41.602
 41.633  41.638  41.677
 --------------------------------------------------------------
 
          Ground-State Mulliken Net Atomic Charges

     Atom                 Charge (a.u.)    Spin (a.u.)
  --------------------------------------------------------
      1 C                    -3.720208       4.061147
      2 H                    -0.496765       0.555194
      3 C                     2.289928      -2.659942
      4 H                    -0.184711       0.258657
      5 H                    -0.529878       0.613065
      6 H                    -0.500086       0.579930
      7 C                     2.185520      -2.556244
      8 H                    -0.159800       0.233552
      9 H                    -0.466278       0.546116
     10 H                    -0.483601       0.565459
     11 C                     2.403254      -2.773763
     12 H                    -0.210729       0.284932
     13 H                    -0.557451       0.639386
     14 H                    -0.569197       0.652511
  --------------------------------------------------------
  Sum of atomic charges =    -1.000000
  Sum of spin   charges =     1.000000

 -----------------------------------------------------------------
                    Cartesian Multipole Moments
 -----------------------------------------------------------------
    Charge (ESU x 10^10)
                -4.8032
    Dipole Moment (Debye)
         X       0.0393      Y      -0.7936      Z      -0.4958
       Tot       0.9366
    Quadrupole Moments (Debye-Ang)
        XX     -65.5650     XY       0.1776     YY     -65.5754
        XZ       0.0154     YZ      -0.0094     ZZ     -55.2808
    Octapole Moments (Debye-Ang^2)
       XXX      -0.4543    XXY      -4.3746    XYY       1.3333
       YYY     -13.0945    XXZ      10.6448    XYZ      -0.1488
       YYZ      10.6601    XZZ       0.1536    YZZ      -3.4851
       ZZZ      34.7900
    Hexadecapole Moments (Debye-Ang^3)
      XXXX    -849.3132   XXXY       3.8759   XXYY    -283.0953
      XYYY       2.3922   YYYY    -849.5473   XXXZ       3.5089
      XXYZ       0.2766   XYYZ      -3.3146   YYYZ       0.8345
      XXZZ    -197.1849   XYZZ       1.0463   YYZZ    -197.2783
      XZZZ       0.0731   YZZZ       1.8829   ZZZZ    -448.4725
 -----------------------------------------------------------------
 Total job time:  308.88s(wall), 306.43s(cpu) 
 Mon Jul  8 12:31:13 2013

        *************************************************************
        *                                                           *
        *  Thank you very much for using Q-Chem.  Have a nice day.  *
        *                                                           *
        *************************************************************


0 sent ACK to 0 
now end server 0 ... 
 
**********************************************************************
Job 2 of 3 
**********************************************************************
 
Process 0 of 1 is on cl046.stfx.acenet.ca - thread support 1
initial socket setup ...start
initial socket setup ...done 
now start server 0 ... 

cmd = /usr/bin/ssh clhead /usr/local/qchem/bin/get_hostid 984650579 > /scratch/tmp/6064838.1.short.q/qchem23544/lic.dat
                  Welcome to Q-Chem
     A Quantum Leap Into The Future Of Chemistry

 Y. Shao, L. Fusti-Molnar, Y. Jung, J. Kussmann, C. Ochsenfeld,
 S. T. Brown, A. T. B. Gilbert, L. V. Slipchenko,S. V. Levchenko,
 D. P. O'Neill, R. A. DiStasio Jr., R. C. Lochan, T. Wang,
 G. J. O. Beran, N. A. Besley, J. M. Herbert, C. Y. Lin,
 T. Van Voorhis, S. H. Chien, A. Sodt, R. P. Steele, 
 V. A. Rassolov, P. E. Maslen, P. P. Korambath, R. D. Adamson,
 B. Austin, J. Baker, E. F. C. Byrd, H. Dachsel, R. J. Doerksen,
 A. Dreuw, B. D. Dunietz, A. D. Dutoi, T. R. Furlani,
 S. R. Gwaltney, A. Heyden, S. Hirata, C.-P. Hsu, G. Kedziora,
 R. Z. Khaliullin, P. Klunzinger, A. M. Lee, M. S. Lee, W. Liang,
 I. Lotan, N. Nair, B. Peters, E. I. Proynov, P. A. Pieniazek, 
 Y. M. Rhee, J. Ritchie, E. Rosta, C. D. Sherrill, 
 A. C. Simmonett, J. E. Subotnik, H. L. Woodcock III,
 W. Zhang, A. T. Bell, A. K. Chakraborty, D. M. Chipman,
 F. J. Keil, A. Warshel, W. J. Hehre, H. F. Schaefer III,
 J. Kong, A. I. Krylov, P. M. W. Gill, M. Head-Gordon,
 Q-Chem, Version 3.1, Q-Chem, Inc., Pittsburgh, PA (2007).

 Additional authors for Version 3.1: 
 Z. Gan, Y. Zhao, N. E. Schultz, D. Truhlar, E. Epifanovsky and M. Oana.

 Additional authors for Version 3.2: 
 R. Baer, B. R. Brooks, D. Casanova, J.-D. Chai, C.-L. Cheng, 
 C. Cramer, D. Crittenden, A. Ghysels, G. Hawkins, E. G. Hohenstein, 
 C. Kelley, W. Kurlancheek, D. Liotard, E. Livshits, P. Manohar, 
 A. Marenich, D. Neuhauser, R. Olson, M. A. Rohrdanz, K. S. Thanthiriwatte, 
 A. J. W. Thom, V. Vanovschi, C. F. Williams, Q. Wu and Z.-Q. You. 


 Intel X86 Linux Version

 Q-chem begins on Mon Jul  8 12:31:16 2013  

 Parallel job on  1  processors
Processing $rem in /usr/local/qchem/config/preferences.

theFileMan(): MAXOPENFILES=974 MAX_SUB_FILE_NUM=16
Maximum size of a physical file is 2.0 GB, maximum size of a tmp-file is 32.0 GB


--------------------------------------------------------------
User input:
--------------------------------------------------------------

$molecule
0,1
C         -0.00003        0.00000        0.00516
H         -0.00008        0.00000        1.10218
C          1.44812        0.00000       -0.46687
H          1.49471        0.00000       -1.56081
H          1.98381        0.88422       -0.11143
H          1.98381       -0.88422       -0.11143
C         -0.72414       -1.25418       -0.46676
H         -0.74732       -1.29470       -1.56072
H         -0.22592       -2.15997       -0.11132
H         -1.75778       -1.27628       -0.11148
C         -0.72414        1.25418       -0.46676
H         -0.74732        1.29470       -1.56072
H         -1.75778        1.27628       -0.11148
H         -0.22592        2.15997       -0.11132
$end

$comment
neutral
$end

$xc_functional
C PBE   1.00
X wPBE  1.00
$end


$rem
SYMMETRY_DECOMPOSITION	0
LRC_DFT                 true
exchange 		general
BASIS                   g3large
omega			800
mem_static              760
max_scf_cycles          200
scf_final_print         1
sym_ignore              true
$end

--------------------------------------------------------------
 Writing REM_CC_EA           14
 ----------------------------------------------------
       Standard Nuclear Orientation (Angstroms)
    I     Atom         X            Y            Z
 ----------------------------------------------------
    1      C      -0.000030     0.000000     0.005160
    2      H      -0.000080     0.000000     1.102180
    3      C       1.448120     0.000000    -0.466870
    4      H       1.494710     0.000000    -1.560810
    5      H       1.983810     0.884220    -0.111430
    6      H       1.983810    -0.884220    -0.111430
    7      C      -0.724140    -1.254180    -0.466760
    8      H      -0.747320    -1.294700    -1.560720
    9      H      -0.225920    -2.159970    -0.111320
   10      H      -1.757780    -1.276280    -0.111480
   11      C      -0.724140     1.254180    -0.466760
   12      H      -0.747320     1.294700    -1.560720
   13      H      -1.757780     1.276280    -0.111480
   14      H      -0.225920     2.159970    -0.111320
 ----------------------------------------------------
 Nuclear Repulsion Energy =   135.0123242027 hartrees
 There are       17 alpha and       17 beta electrons
 Requested basis set is G3large
 There are 100 shells and 268 basis functions

Total QAlloc Memory Limit   2000 MB
Mega-Array Size       743 MB
MEM_STATIC part       760 MB

                       Distance Matrix (Angstroms)
             C (  1)   H (  2)   C (  3)   H (  4)   H (  5)   H (  6)
   H (  2)  1.097020
   C (  3)  1.523138  2.135229
   H (  4)  2.164835  3.053836  1.094932
   H (  5)  2.175100  2.488074  1.093228  1.766852
   H (  6)  2.175100  2.488074  1.093228  1.766852  1.768440
   C (  7)  1.523158  2.135135  2.508322  2.773663  3.468718  2.756106
   H (  8)  2.164872  3.053793  2.773574  2.589005  3.782487  3.118975
   H (  9)  2.174871  2.487781  2.755775  3.118823  3.761649  2.551557
   H ( 10)  2.175358  2.488246  3.468860  3.782610  4.320562  3.762075
   C ( 11)  1.523158  2.135135  2.508322  2.773663  2.756106  3.468718
   H ( 12)  2.164872  3.053793  2.773574  2.589005  3.118975  3.782487
   H ( 13)  2.175358  2.488246  3.468860  3.782610  3.762075  4.320562
   H ( 14)  2.174871  2.487781  2.755775  3.118823  2.551557  3.761649
             C (  7)   H (  8)   H (  9)   H ( 10)   C ( 11)   H ( 12)
   H (  8)  1.094956
   H (  9)  1.093168  1.766723
   H ( 10)  1.093217  1.766824  1.768475
   C ( 11)  2.508360  2.773820  3.468570  2.756422
   H ( 12)  2.773820  2.589400  3.782508  3.119497  1.094956
   H ( 13)  2.756422  3.119497  3.762235  2.552560  1.093217  1.766824
   H ( 14)  3.468570  3.782508  4.319940  3.762235  1.093168  1.766723
             H ( 13)
   H ( 14)  1.768475
 
 A cutoff of  1.0D-08 yielded   4705 shell pairs
 There are  33835 function pairs ( 40339 Cartesian)
Evaluating contribution to one-electron hamiltonian from nuclear
 Smallest overlap matrix eigenvalue = 3.15E-05

 Q-Chem warning in module mkSTV.C, line 194:

 Overlap eigenvalue is smaller than square root of threshold

 Multipole matrices computed through 2nd order

  Scale SEOQF with 1.000000e-01/1.000000e-01/1.000000e-01

 Standard Electronic Orientation quadrupole field applied
 Nucleus-field energy     =     0.0000000026 hartrees
 Guess from superposition of atomic densities
 Warning:  Energy on first SCF cycle will be non-variational
 Long-range K will be added via erf
 Coulomb attenuation parameter = 0.8 bohr**(-1)
 A restricted Kohn-Sham SCF calculation will be
 performed using Pulay DIIS extrapolation
 Exchange:  wPBE + LR-HF      Correlation:  PBE
 Using SG-1 standard quadrature grid
 SCF converges when DIIS error is below 1.0E-05
 Requested basis set is G3large
 There are 100 shells and 268 basis functions
 A cutoff of  1.0D-08 yielded   4705 shell pairs
 There are  33835 function pairs ( 40339 Cartesian)
 ---------------------------------------
  Cycle       Energy         DIIS Error
 ---------------------------------------
    1    -159.8060320854      2.76E-02
    2    -158.3495574681      2.46E-03
    3    -158.4170161471      8.84E-04
    4    -158.4246069528      3.01E-04
    5    -158.4257614270      5.59E-05
    6    -158.4258028029      1.61E-05
    7    -158.4258080438      4.44E-06 Convergence criterion met
 ---------------------------------------
 One-Electron    Energy =  -478.7610217476
 Total Coulomb   Energy =   210.7597784587
 Alpha Exchange  Energy =    -5.4090002351
 Beta  Exchange  Energy =    -5.4090002351
 DFT   Exchange  Energy =   -13.5286756798
 DFT Correlation Energy =    -1.0902128101
 Nuclear Repu.   Energy =   135.0123242052
 Nuclear Attr.   Energy =  -636.1703770195
 Kinetic         Energy =   157.4093552719
 SCF time:  CPU 201.50 s  wall 202.79 s
 Final Alpha MO Eigenvalues
            1           2           3           4           5           6
    1 -10.3151575 -10.2959685 -10.2959473 -10.2959021  -1.0712723  -0.9219079
            7           8           9          10          11          12
    1  -0.9218858  -0.7703144  -0.6497517  -0.6090022  -0.6089731  -0.5499362
           13          14          15          16          17          18
    1  -0.5499131  -0.5260319  -0.4822494  -0.4821914  -0.4751697   0.0405103
           19          20          21          22
    1   0.0581472   0.0581628   0.0590744   0.0805620
 Analysis of SCF Wavefunction
 
 --------------------------------------------------------------
                    Orbital Energies (a.u.)
 --------------------------------------------------------------
 
 Alpha MOs
 -- Occupied --
-10.315 -10.296 -10.296 -10.296  -1.071  -0.922  -0.922  -0.770
 -0.650  -0.609  -0.609  -0.550  -0.550  -0.526  -0.482  -0.482
 -0.475
 -- Virtual --
  0.041   0.058   0.058   0.059   0.081   0.081   0.086   0.095
  0.095   0.114   0.139   0.163   0.163   0.172   0.172   0.177
  0.185   0.201   0.201   0.207   0.222   0.222   0.228   0.228
  0.240   0.247   0.299   0.299   0.299   0.314   0.315   0.344
  0.344   0.392   0.392   0.398   0.398   0.409   0.485   0.509
  0.509   0.584   0.589   0.589   0.604   0.619   0.619   0.668
  0.685   0.687   0.687   0.702   0.702   0.706   0.736   0.754
  0.754   0.774   0.783   0.783   0.821   0.821   0.843   0.862
  0.887   0.887   0.960   0.991   0.991   1.015   1.058   1.058
  1.115   1.121   1.168   1.168   1.222   1.222   1.252   1.282
  1.298   1.298   1.305   1.341   1.341   1.407   1.429   1.429
  1.462   1.462   1.485   1.503   1.503   1.509   1.509   1.511
  1.544   1.561   1.561   1.621   1.640   1.640   1.660   1.715
  1.748   1.748   1.774   1.778   1.781   1.781   1.825   1.825
  1.893   1.893   1.894   2.615   2.615   2.731   2.763   2.763
  2.776   2.854   2.927   2.927   2.955   2.955   2.978   3.035
  3.070   3.070   3.138   3.157   3.157   3.175   3.175   3.191
  3.258   3.258   3.268   3.357   3.357   3.395   3.490   3.493
  3.499   3.499   3.558   3.558   3.586   3.597   3.630   3.630
  3.688   3.697   3.697   3.778   3.782   3.782   3.811   3.811
  3.848   3.941   3.977   3.977   4.003   4.003   4.078   4.078
  4.144   4.184   4.184   4.206   4.221   4.251   4.251   4.278
  4.307   4.308   4.431   4.443   4.444   4.444   4.480   4.498
  4.498   4.516   4.516   4.535   4.634   4.635   4.635   4.726
  4.760   4.760   4.855   4.855   4.875   4.875   4.875   4.939
  5.009   5.009   5.028   5.128   5.129   5.565   5.664   5.664
  5.850   5.938   5.938   5.964   5.968   5.975   5.976  24.327
 24.490  24.490  24.609  27.852  27.852  28.152  28.331  28.331
 28.345  28.379  28.402  28.402  28.615  28.712  28.712  41.190
 41.221  41.230  41.233  41.243  41.258  41.267  41.268  41.413
 41.416  41.416  41.421  41.423  41.433  41.451  41.452  41.478
 41.509  41.514  41.552
 --------------------------------------------------------------
 
          Ground-State Mulliken Net Atomic Charges

     Atom                 Charge (a.u.)
  ----------------------------------------
      1 C                     0.330333
      2 H                     0.046466
      3 C                    -0.359423
      4 H                     0.080146
      5 H                     0.076848
      6 H                     0.076709
      7 C                    -0.359213
      8 H                     0.080122
      9 H                     0.076666
     10 H                     0.076790
     11 C                    -0.359271
     12 H                     0.080165
     13 H                     0.076798
     14 H                     0.076865
  ----------------------------------------
  Sum of atomic charges =     0.000000

 -----------------------------------------------------------------
                    Cartesian Multipole Moments
 -----------------------------------------------------------------
    Charge (ESU x 10^10)
                 0.0000
    Dipole Moment (Debye)
         X       0.0002      Y       0.0004      Z       0.1044
       Tot       0.1044
    Quadrupole Moments (Debye-Ang)
        XX     -28.1481     XY       0.0019     YY     -28.1504
        XZ       0.0001     YZ       0.0002     ZZ     -27.6300
    Octapole Moments (Debye-Ang^2)
       XXX      -2.0835    XXY       0.0004    XYY       2.0847
       YYY       0.0013    XXZ      11.9377    XYZ      -0.0001
       YYZ      11.9378    XZZ       0.0014    YZZ      -0.0006
       ZZZ      29.6097
    Hexadecapole Moments (Debye-Ang^3)
      XXXX    -207.4038   XXXY       0.0113   XXYY     -69.1342
      XYYY       0.0078   YYYY    -207.4405   XXXZ      -0.4543
      XXYZ       0.0005   XYYZ       0.4594   YYYZ       0.0014
      XXZZ     -51.4630   XYZZ       0.0015   YYZZ     -51.4632
      XZZZ       0.0002   YZZZ       0.0015   ZZZZ     -82.4090
 -----------------------------------------------------------------
 Total job time:  203.18s(wall), 201.88s(cpu) 
 Mon Jul  8 12:34:39 2013

        *************************************************************
        *                                                           *
        *  Thank you very much for using Q-Chem.  Have a nice day.  *
        *                                                           *
        *************************************************************


0 sent ACK to 0 
now end server 0 ... 
 
**********************************************************************
Job 3 of 3 
**********************************************************************
 
Process 0 of 1 is on cl046.stfx.acenet.ca - thread support 1
initial socket setup ...start
initial socket setup ...done 
now start server 0 ... 

cmd = /usr/bin/ssh clhead /usr/local/qchem/bin/get_hostid 1682913633 > /scratch/tmp/6064838.1.short.q/qchem23544/lic.dat
                  Welcome to Q-Chem
     A Quantum Leap Into The Future Of Chemistry

 Y. Shao, L. Fusti-Molnar, Y. Jung, J. Kussmann, C. Ochsenfeld,
 S. T. Brown, A. T. B. Gilbert, L. V. Slipchenko,S. V. Levchenko,
 D. P. O'Neill, R. A. DiStasio Jr., R. C. Lochan, T. Wang,
 G. J. O. Beran, N. A. Besley, J. M. Herbert, C. Y. Lin,
 T. Van Voorhis, S. H. Chien, A. Sodt, R. P. Steele, 
 V. A. Rassolov, P. E. Maslen, P. P. Korambath, R. D. Adamson,
 B. Austin, J. Baker, E. F. C. Byrd, H. Dachsel, R. J. Doerksen,
 A. Dreuw, B. D. Dunietz, A. D. Dutoi, T. R. Furlani,
 S. R. Gwaltney, A. Heyden, S. Hirata, C.-P. Hsu, G. Kedziora,
 R. Z. Khaliullin, P. Klunzinger, A. M. Lee, M. S. Lee, W. Liang,
 I. Lotan, N. Nair, B. Peters, E. I. Proynov, P. A. Pieniazek, 
 Y. M. Rhee, J. Ritchie, E. Rosta, C. D. Sherrill, 
 A. C. Simmonett, J. E. Subotnik, H. L. Woodcock III,
 W. Zhang, A. T. Bell, A. K. Chakraborty, D. M. Chipman,
 F. J. Keil, A. Warshel, W. J. Hehre, H. F. Schaefer III,
 J. Kong, A. I. Krylov, P. M. W. Gill, M. Head-Gordon,
 Q-Chem, Version 3.1, Q-Chem, Inc., Pittsburgh, PA (2007).

 Additional authors for Version 3.1: 
 Z. Gan, Y. Zhao, N. E. Schultz, D. Truhlar, E. Epifanovsky and M. Oana.

 Additional authors for Version 3.2: 
 R. Baer, B. R. Brooks, D. Casanova, J.-D. Chai, C.-L. Cheng, 
 C. Cramer, D. Crittenden, A. Ghysels, G. Hawkins, E. G. Hohenstein, 
 C. Kelley, W. Kurlancheek, D. Liotard, E. Livshits, P. Manohar, 
 A. Marenich, D. Neuhauser, R. Olson, M. A. Rohrdanz, K. S. Thanthiriwatte, 
 A. J. W. Thom, V. Vanovschi, C. F. Williams, Q. Wu and Z.-Q. You. 


 Intel X86 Linux Version

 Q-chem begins on Mon Jul  8 12:34:42 2013  

 Parallel job on  1  processors
Processing $rem in /usr/local/qchem/config/preferences.

theFileMan(): MAXOPENFILES=974 MAX_SUB_FILE_NUM=16
Maximum size of a physical file is 2.0 GB, maximum size of a tmp-file is 32.0 GB


--------------------------------------------------------------
User input:
--------------------------------------------------------------

$molecule
1,2
C         -0.00003        0.00000        0.00516
H         -0.00008        0.00000        1.10218
C          1.44812        0.00000       -0.46687
H          1.49471        0.00000       -1.56081
H          1.98381        0.88422       -0.11143
H          1.98381       -0.88422       -0.11143
C         -0.72414       -1.25418       -0.46676
H         -0.74732       -1.29470       -1.56072
H         -0.22592       -2.15997       -0.11132
H         -1.75778       -1.27628       -0.11148
C         -0.72414        1.25418       -0.46676
H         -0.74732        1.29470       -1.56072
H         -1.75778        1.27628       -0.11148
H         -0.22592        2.15997       -0.11132
$end

$comment
positive
$end

$xc_functional
C PBE   1.00
X wPBE  1.00
$end

$rem
SYMMETRY_DECOMPOSITION	0
LRC_DFT                 true
exchange 		general
BASIS                   g3large
omega			800
mem_static              760
max_scf_cycles          200
scf_final_print         1
sym_ignore              true
$end

--------------------------------------------------------------
 Writing REM_CC_EA           14
 ----------------------------------------------------
       Standard Nuclear Orientation (Angstroms)
    I     Atom         X            Y            Z
 ----------------------------------------------------
    1      C      -0.000030     0.000000     0.005160
    2      H      -0.000080     0.000000     1.102180
    3      C       1.448120     0.000000    -0.466870
    4      H       1.494710     0.000000    -1.560810
    5      H       1.983810     0.884220    -0.111430
    6      H       1.983810    -0.884220    -0.111430
    7      C      -0.724140    -1.254180    -0.466760
    8      H      -0.747320    -1.294700    -1.560720
    9      H      -0.225920    -2.159970    -0.111320
   10      H      -1.757780    -1.276280    -0.111480
   11      C      -0.724140     1.254180    -0.466760
   12      H      -0.747320     1.294700    -1.560720
   13      H      -1.757780     1.276280    -0.111480
   14      H      -0.225920     2.159970    -0.111320
 ----------------------------------------------------
 Nuclear Repulsion Energy =   135.0123242027 hartrees
 There are       17 alpha and       16 beta electrons
 Requested basis set is G3large
 There are 100 shells and 268 basis functions

Total QAlloc Memory Limit   2000 MB
Mega-Array Size       743 MB
MEM_STATIC part       760 MB

                       Distance Matrix (Angstroms)
             C (  1)   H (  2)   C (  3)   H (  4)   H (  5)   H (  6)
   H (  2)  1.097020
   C (  3)  1.523138  2.135229
   H (  4)  2.164835  3.053836  1.094932
   H (  5)  2.175100  2.488074  1.093228  1.766852
   H (  6)  2.175100  2.488074  1.093228  1.766852  1.768440
   C (  7)  1.523158  2.135135  2.508322  2.773663  3.468718  2.756106
   H (  8)  2.164872  3.053793  2.773574  2.589005  3.782487  3.118975
   H (  9)  2.174871  2.487781  2.755775  3.118823  3.761649  2.551557
   H ( 10)  2.175358  2.488246  3.468860  3.782610  4.320562  3.762075
   C ( 11)  1.523158  2.135135  2.508322  2.773663  2.756106  3.468718
   H ( 12)  2.164872  3.053793  2.773574  2.589005  3.118975  3.782487
   H ( 13)  2.175358  2.488246  3.468860  3.782610  3.762075  4.320562
   H ( 14)  2.174871  2.487781  2.755775  3.118823  2.551557  3.761649
             C (  7)   H (  8)   H (  9)   H ( 10)   C ( 11)   H ( 12)
   H (  8)  1.094956
   H (  9)  1.093168  1.766723
   H ( 10)  1.093217  1.766824  1.768475
   C ( 11)  2.508360  2.773820  3.468570  2.756422
   H ( 12)  2.773820  2.589400  3.782508  3.119497  1.094956
   H ( 13)  2.756422  3.119497  3.762235  2.552560  1.093217  1.766824
   H ( 14)  3.468570  3.782508  4.319940  3.762235  1.093168  1.766723
             H ( 13)
   H ( 14)  1.768475
 
 A cutoff of  1.0D-08 yielded   4705 shell pairs
 There are  33835 function pairs ( 40339 Cartesian)
Evaluating contribution to one-electron hamiltonian from nuclear
 Smallest overlap matrix eigenvalue = 3.15E-05

 Q-Chem warning in module mkSTV.C, line 194:

 Overlap eigenvalue is smaller than square root of threshold

 Multipole matrices computed through 2nd order

  Scale SEOQF with 1.000000e-01/1.000000e-01/1.000000e-01

 Standard Electronic Orientation quadrupole field applied
 Nucleus-field energy     =     0.0000000026 hartrees
 Guess from superposition of atomic densities
 Warning:  Energy on first SCF cycle will be non-variational
 Long-range K will be added via erf
 Coulomb attenuation parameter = 0.8 bohr**(-1)
 An unrestricted Kohn-Sham SCF calculation will be
 performed using Pulay DIIS extrapolation
 Exchange:  wPBE + LR-HF      Correlation:  PBE
 Using SG-1 standard quadrature grid
 SCF converges when DIIS error is below 1.0E-05
 Requested basis set is G3large
 There are 100 shells and 268 basis functions
 A cutoff of  1.0D-08 yielded   4705 shell pairs
 There are  33835 function pairs ( 40339 Cartesian)
 Warning!  Inaccurate integrated density:
   Number of electrons =    33
   Numerical integral  =    34.000126056514
   Relative error      =     3.0306850197 %
 ---------------------------------------
  Cycle       Energy         DIIS Error
 ---------------------------------------
    1    -159.8060320854      2.76E-02
    2    -157.9070726757      2.15E-03
    3    -157.9751014059      7.54E-04
    4    -157.9825566703      3.44E-04
    5    -157.9845150162      6.80E-05
    6    -157.9849793298      4.93E-05
    7    -157.9852080187      2.59E-05
    8    -157.9853434162      1.41E-05
    9    -157.9853845845      8.54E-06 Convergence criterion met
 ---------------------------------------
 One-Electron    Energy =  -470.3588602865
 Total Coulomb   Energy =   202.4373802448
 Alpha Exchange  Energy =    -5.4588574865
 Beta  Exchange  Energy =    -5.0963731291
 DFT   Exchange  Energy =   -13.4679794157
 DFT Correlation Energy =    -1.0530187169
 Nuclear Repu.   Energy =   135.0123242052
 Nuclear Attr.   Energy =  -627.5619501321
 Kinetic         Energy =   157.2030898456
 <S^2> = 0.7620
 SCF time:  CPU 334.20 s  wall 335.42 s
 Final Alpha MO Eigenvalues
            1           2           3           4           5           6
    1 -10.6069986 -10.5782555 -10.5543075 -10.5130473  -1.3479905  -1.1897577
            7           8           9          10          11          12
    1  -1.1547752  -1.0209929  -0.9052425  -0.8633120  -0.8607529  -0.7941994
           13          14          15          16          17          18
    1  -0.7768018  -0.7739981  -0.7473845  -0.7258050  -0.7140811  -0.0943587
           19          20          21          22
    1  -0.0712729  -0.0688454  -0.0648254  -0.0437599
 Final Beta MO Eigenvalues
            1           2           3           4           5           6
    1 -10.6017738 -10.5726498 -10.5506410 -10.5125595  -1.3098484  -1.1442232
            7           8           9          10          11          12
    1  -1.1424650  -0.9905981  -0.8755758  -0.8385576  -0.8196229  -0.7870558
           13          14          15          16          17          18
    1  -0.7702164  -0.7354382  -0.7148079  -0.7088075  -0.3958124  -0.0929629
           19          20          21
    1  -0.0705669  -0.0665286  -0.0644869
 Analysis of SCF Wavefunction
 
 --------------------------------------------------------------
                    Orbital Energies (a.u.)
 --------------------------------------------------------------
 
 Alpha MOs
 -- Occupied --
-10.607 -10.578 -10.554 -10.513  -1.348  -1.190  -1.155  -1.021
 -0.905  -0.863  -0.861  -0.794  -0.777  -0.774  -0.747  -0.726
 -0.714
 -- Virtual --
 -0.094  -0.071  -0.069  -0.065  -0.044  -0.041  -0.040  -0.027
 -0.025  -0.011   0.002   0.012   0.013   0.025   0.029   0.038
  0.041   0.054   0.059   0.065   0.069   0.073   0.079   0.080
  0.083   0.106   0.116   0.119   0.130   0.136   0.140   0.147
  0.167   0.174   0.181   0.224   0.230   0.237   0.306   0.320
  0.320   0.384   0.393   0.395   0.405   0.414   0.422   0.474
  0.483   0.484   0.488   0.496   0.509   0.513   0.525   0.527
  0.540   0.568   0.571   0.576   0.621   0.631   0.638   0.658
  0.680   0.682   0.750   0.777   0.778   0.799   0.852   0.852
  0.901   0.908   0.947   0.953   1.002   1.007   1.036   1.077
  1.082   1.093   1.096   1.128   1.139   1.187   1.212   1.215
  1.224   1.235   1.268   1.276   1.283   1.290   1.297   1.302
  1.326   1.346   1.347   1.410   1.426   1.433   1.445   1.499
  1.533   1.537   1.549   1.558   1.566   1.568   1.603   1.618
  1.663   1.665   1.673   2.378   2.384   2.491   2.518   2.528
  2.541   2.626   2.666   2.680   2.701   2.709   2.730   2.774
  2.803   2.828   2.888   2.902   2.911   2.921   2.932   2.966
  3.010   3.015   3.024   3.116   3.121   3.160   3.239   3.256
  3.257   3.264   3.306   3.325   3.346   3.356   3.384   3.388
  3.441   3.453   3.458   3.527   3.533   3.547   3.568   3.577
  3.611   3.691   3.718   3.722   3.748   3.753   3.815   3.830
  3.898   3.932   3.941   3.957   3.967   4.000   4.020   4.035
  4.072   4.077   4.178   4.195   4.201   4.209   4.238   4.260
  4.271   4.285   4.288   4.290   4.391   4.392   4.403   4.498
  4.514   4.524   4.603   4.613   4.624   4.636   4.644   4.700
  4.757   4.770   4.774   4.864   4.884   5.317   5.391   5.420
  5.596   5.690   5.709   5.716   5.727   5.745   5.756  24.055
 24.219  24.254  24.342  27.562  27.588  27.878  28.060  28.085
 28.089  28.137  28.140  28.175  28.345  28.426  28.455  40.908
 40.943  40.948  40.972  40.975  40.997  41.020  41.040  41.127
 41.133  41.140  41.157  41.162  41.174  41.198  41.203  41.230
 41.245  41.251  41.301
 
 Beta MOs
 -- Occupied --
-10.602 -10.573 -10.551 -10.513  -1.310  -1.144  -1.142  -0.991
 -0.876  -0.839  -0.820  -0.787  -0.770  -0.735  -0.715  -0.709
 -- Virtual --
 -0.396  -0.093  -0.071  -0.067  -0.064  -0.043  -0.040  -0.039
 -0.027  -0.025  -0.008   0.002   0.014   0.014   0.027   0.030
  0.039   0.042   0.056   0.062   0.066   0.074   0.079   0.081
  0.082   0.084   0.106   0.120   0.124   0.132   0.146   0.150
  0.151   0.171   0.189   0.197   0.228   0.233   0.241   0.312
  0.324   0.325   0.395   0.400   0.403   0.408   0.425   0.427
  0.477   0.487   0.490   0.496   0.506   0.515   0.517   0.530
  0.544   0.545   0.574   0.580   0.584   0.627   0.635   0.645
  0.664   0.683   0.683   0.754   0.781   0.782   0.801   0.853
  0.855   0.906   0.912   0.952   0.960   1.007   1.013   1.039
  1.079   1.087   1.096   1.100   1.131   1.141   1.192   1.217
  1.222   1.241   1.241   1.276   1.286   1.291   1.293   1.301
  1.307   1.329   1.350   1.351   1.413   1.430   1.436   1.448
  1.501   1.537   1.540   1.554   1.564   1.568   1.573   1.609
  1.621   1.671   1.672   1.676   2.385   2.392   2.499   2.531
  2.535   2.549   2.629   2.683   2.694   2.714   2.716   2.736
  2.791   2.820   2.834   2.898   2.917   2.922   2.929   2.936
  2.969   3.021   3.024   3.032   3.125   3.129   3.165   3.249
  3.263   3.265   3.270   3.317   3.329   3.349   3.363   3.393
  3.398   3.452   3.462   3.465   3.536   3.544   3.555   3.572
  3.585   3.616   3.699   3.729   3.733   3.758   3.764   3.831
  3.835   3.907   3.940   3.947   3.964   3.980   4.009   4.025
  4.043   4.077   4.080   4.189   4.205   4.210   4.214   4.246
  4.268   4.274   4.291   4.292   4.294   4.397   4.400   4.409
  4.501   4.521   4.528   4.612   4.624   4.630   4.644   4.649
  4.706   4.766   4.773   4.784   4.879   4.894   5.327   5.409
  5.429   5.602   5.697   5.714   5.724   5.735   5.749   5.761
 24.059  24.224  24.256  24.346  27.575  27.591  27.883  28.063
 28.088  28.092  28.140  28.141  28.177  28.350  28.439  28.457
 40.917  40.953  40.953  40.976  40.980  41.001  41.022  41.041
 41.135  41.140  41.147  41.160  41.167  41.179  41.199  41.209
 41.231  41.253  41.256  41.303
 --------------------------------------------------------------
 
          Ground-State Mulliken Net Atomic Charges

     Atom                 Charge (a.u.)    Spin (a.u.)
  --------------------------------------------------------
      1 C                     0.291386       0.258762
      2 H                     0.130146      -0.000716
      3 C                    -0.235156       0.199714
      4 H                     0.136251      -0.007540
      5 H                     0.133559      -0.005381
      6 H                     0.172782       0.086725
      7 C                    -0.274996       0.034513
      8 H                     0.121272      -0.001937
      9 H                     0.139482       0.051246
     10 H                     0.128077       0.022267
     11 C                    -0.211477       0.300817
     12 H                     0.146065      -0.010479
     13 H                     0.175981       0.068919
     14 H                     0.146628       0.003089
  --------------------------------------------------------
  Sum of atomic charges =     1.000000
  Sum of spin   charges =     1.000000

 -----------------------------------------------------------------
                    Cartesian Multipole Moments
 -----------------------------------------------------------------
    Charge (ESU x 10^10)
                 4.8032
    Dipole Moment (Debye)
         X       0.1226      Y       0.8006      Z      -1.5157
       Tot       1.7185
    Quadrupole Moments (Debye-Ang)
        XX     -16.4211     XY      -2.1104     YY     -17.0900
        XZ      -0.1167     YZ      -0.4251     ZZ     -22.4710
    Octapole Moments (Debye-Ang^2)
       XXX       3.2888    XXY       0.9043    XYY      -2.7606
       YYY       2.6527    XXZ       7.4564    XYZ       0.6949
       YYZ       7.6880    XZZ       0.1637    YZZ       0.7898
       ZZZ      23.7499
    Hexadecapole Moments (Debye-Ang^3)
      XXXX    -144.7052   XXXY      -8.0872   XXYY     -48.3516
      XYYY      -5.3256   YYYY    -148.8553   XXXZ      -3.5290
      XXYZ      -0.3466   XYYZ       3.0766   YYYZ      -1.0789
      XXZZ     -41.3951   XYZZ      -1.0954   YYZZ     -41.7544
      XZZZ      -0.2959   YZZZ      -1.3383   ZZZZ     -62.5557
 -----------------------------------------------------------------
 Total job time:  335.81s(wall), 334.57s(cpu) 
 Mon Jul  8 12:40:17 2013

        *************************************************************
        *                                                           *
        *  Thank you very much for using Q-Chem.  Have a nice day.  *
        *                                                           *
        *************************************************************


0 sent ACK to 0 
now end server 0 ... 
