Process 0 of 1 is on cl247.stfx.acenet.ca - thread support 1
initial socket setup ...start
initial socket setup ...done 
now start server 0 ... 

cmd = /usr/bin/ssh clhead /usr/local/qchem/bin/get_hostid 913763000 > /scratch/tmp/4506605.1.long.q/qchem27453/lic.dat
                  Welcome to Q-Chem
     A Quantum Leap Into The Future Of Chemistry

 Y. Shao, L. Fusti-Molnar, Y. Jung, J. Kussmann, C. Ochsenfeld,
 S. T. Brown, A. T. B. Gilbert, L. V. Slipchenko,S. V. Levchenko,
 D. P. O'Neill, R. A. DiStasio Jr., R. C. Lochan, T. Wang,
 G. J. O. Beran, N. A. Besley, J. M. Herbert, C. Y. Lin,
 T. Van Voorhis, S. H. Chien, A. Sodt, R. P. Steele, 
 V. A. Rassolov, P. E. Maslen, P. P. Korambath, R. D. Adamson,
 B. Austin, J. Baker, E. F. C. Byrd, H. Dachsel, R. J. Doerksen,
 A. Dreuw, B. D. Dunietz, A. D. Dutoi, T. R. Furlani,
 S. R. Gwaltney, A. Heyden, S. Hirata, C.-P. Hsu, G. Kedziora,
 R. Z. Khaliullin, P. Klunzinger, A. M. Lee, M. S. Lee, W. Liang,
 I. Lotan, N. Nair, B. Peters, E. I. Proynov, P. A. Pieniazek, 
 Y. M. Rhee, J. Ritchie, E. Rosta, C. D. Sherrill, 
 A. C. Simmonett, J. E. Subotnik, H. L. Woodcock III,
 W. Zhang, A. T. Bell, A. K. Chakraborty, D. M. Chipman,
 F. J. Keil, A. Warshel, W. J. Hehre, H. F. Schaefer III,
 J. Kong, A. I. Krylov, P. M. W. Gill, M. Head-Gordon,
 Q-Chem, Version 3.1, Q-Chem, Inc., Pittsburgh, PA (2007).

 Additional authors for Version 3.1: 
 Z. Gan, Y. Zhao, N. E. Schultz, D. Truhlar, E. Epifanovsky and M. Oana.

 Additional authors for Version 3.2: 
 R. Baer, B. R. Brooks, D. Casanova, J.-D. Chai, C.-L. Cheng, 
 C. Cramer, D. Crittenden, A. Ghysels, G. Hawkins, E. G. Hohenstein, 
 C. Kelley, W. Kurlancheek, D. Liotard, E. Livshits, P. Manohar, 
 A. Marenich, D. Neuhauser, R. Olson, M. A. Rohrdanz, K. S. Thanthiriwatte, 
 A. J. W. Thom, V. Vanovschi, C. F. Williams, Q. Wu and Z.-Q. You. 


 Intel X86 Linux Version

 Q-chem begins on Fri Apr 22 23:51:21 2011  

 Parallel job on  1  processors
Processing $rem in /usr/local/qchem/config/preferences.

theFileMan(): MAXOPENFILES=974 MAX_SUB_FILE_NUM=16
Maximum size of a physical file is 2.0 GB, maximum size of a tmp-file is 32.0 GB


--------------------------------------------------------------
User input:
--------------------------------------------------------------

$molecule
0,1
O
C,1,CO
F,2,CF,1,FCO
F,2,CF,1,FCO,3,180.,0

 CO=1.18026296
 CF=1.32239607
 FCO=126.07788494

$end

$comment
neutral
$end

$xc_functional
   X HF 1.0
   X BNL 1.0
   C LYP 1.0
$end

$rem
SYMMETRY_DECOMPOSITION	0
exchange 		general
BASIS                   g3large
omega			480 
JOBTYPE                 opt
separate_jk		true
mem_static              760
max_scf_cycles          200
scf_final_print         1
sym_ignore              true
$end


--------------------------------------------------------------
 Writing REM_CC_EA            4
 ----------------------------------------------------
       Standard Nuclear Orientation (Angstroms)
    I     Atom         X            Y            Z
 ----------------------------------------------------
    1      O       0.000000     0.000000     0.000000
    2      C       0.000000     0.000000     1.180263
    3      F       1.068783     0.000000     1.959001
    4      F      -1.068783     0.000000     1.959001
 ----------------------------------------------------
 Nuclear Repulsion Energy =   118.9381014049 hartrees
 There are       16 alpha and       16 beta electrons
 Requested basis set is G3large
 There are 40 shells and 168 basis functions

Total QAlloc Memory Limit   2000 MB
Mega-Array Size       743 MB
MEM_STATIC part       760 MB
 A cutoff of  1.0D-11 yielded    742 shell pairs
 There are  13539 function pairs ( 17805 Cartesian)
Evaluating contribution to one-electron hamiltonian from nuclear
 Smallest overlap matrix eigenvalue = 8.08E-04
 Multipole matrices computed through 2nd order

  Scale SEOQF with 1.000000e-01/1.000000e-01/1.000000e-01

 Standard Electronic Orientation quadrupole field applied
 Nucleus-field energy     =    -0.0000000076 hartrees
 Guess from superposition of atomic densities
 Warning:  Energy on first SCF cycle will be non-variational
 A restricted hybrid HF-DFT SCF calculation will be
 performed using Pulay DIIS extrapolation
 Exchange:     1.0000 Hartree-Fock + 1.0000 BNL
 Correlation:  1.0000 LYP
 Using SG-1 standard quadrature grid
 SCF converges when DIIS error is below 1.0E-08
 ---------------------------------------
  Cycle       Energy         DIIS Error
 ---------------------------------------
    1    -311.2961556148      3.74E-02
    2    -310.3845174448      7.95E-03
    3    -310.3590530268      9.47E-03
    4    -310.5508241539      9.22E-04
    5    -310.5524553917      5.19E-04
    6    -310.5530661228      1.26E-04
    7    -310.5531266755      3.47E-05
    8    -310.5531364774      8.30E-06
    9    -310.5531373105      2.33E-06
   10    -310.5531374013      1.11E-06
   11    -310.5531374076      5.42E-07
   12    -310.5531374192      1.31E-07
   13    -310.5531374156      3.49E-08
   14    -310.5531374134      6.56E-09 Convergence criterion met
 ---------------------------------------
 One-Electron    Energy =  -667.8562482970
 Total Coulomb   Energy =   270.5604264484
 Alpha Exchange  Energy =    -3.8794457577
 Beta  Exchange  Energy =    -3.8794457577
 DFT   Exchange  Energy =   -23.2466475284
 DFT Correlation Energy =    -1.1898779183
 Nuclear Repu.   Energy =   118.9381013973
 Nuclear Attr.   Energy =  -977.2361854922
 Kinetic         Energy =   309.3799371952
 SCF time:  CPU 84.59 s  wall 85.72 s
 Final Alpha MO Eigenvalues
            1           2           3           4           5           6
    1 -24.4039320 -24.4039235 -18.8928084 -10.3111559  -1.5032582  -1.4241707
            7           8           9          10          11          12
    1  -1.2814356  -0.8629465  -0.7943851  -0.7534000  -0.7156414  -0.6451028
           13          14          15          16          17          18
    1  -0.6370956  -0.6240309  -0.5564802  -0.5150057   0.0447347   0.0674380
           19          20          21
    1   0.0860017   0.0908714   0.0910937
 Analysis of SCF Wavefunction
 
 --------------------------------------------------------------
                    Orbital Energies (a.u.)
 --------------------------------------------------------------
 
 Alpha MOs
 -- Occupied --
-24.404 -24.404 -18.893 -10.311  -1.503  -1.424  -1.281  -0.863
 -0.794  -0.753  -0.716  -0.645  -0.637  -0.624  -0.556  -0.515
 -- Virtual --
  0.045   0.067   0.086   0.091   0.091   0.216   0.232   0.250
  0.263   0.276   0.293   0.340   0.341   0.345   0.358   0.364
  0.385   0.403   0.457   0.588   0.631   0.711   0.758   0.801
  0.808   0.889   1.055   1.115   1.136   1.146   1.279   1.346
  1.366   1.366   1.422   1.465   1.471   1.517   1.664   1.671
  1.774   1.859   1.873   2.001   2.006   2.049   2.134   2.210
  2.265   2.440   2.511   2.530   2.604   2.740   2.789   2.847
  2.997   3.029   3.158   3.192   3.230   3.482   3.497   3.527
  3.560   3.630   3.646   3.783   3.946   4.225   4.249   5.028
  5.146   5.159   5.159   5.393   5.508   5.595   6.154   6.208
  6.227   6.238   6.275   6.449   6.554   6.673   6.680   6.691
  6.694   6.700   6.774   6.786   6.835   6.896   6.937   7.050
  7.060   7.116   7.212   7.269   7.296   7.418   7.557   7.625
  7.752   8.287   9.104   9.172   9.175   9.194   9.520   9.541
  9.615   9.842   9.905  10.123  24.853  27.225  27.903  28.195
 40.732  40.895  40.983  41.068  41.253  43.662  43.730  43.829
 43.910  43.917  45.804  45.945  46.658  50.019  50.031  50.050
 50.074  50.144  50.204  50.214  50.234  50.294  50.400  50.431
 55.671  55.677  55.693  55.782  56.116  56.248  66.875  66.926
 --------------------------------------------------------------
 
          Ground-State Mulliken Net Atomic Charges

     Atom                 Charge (a.u.)
  ----------------------------------------
      1 O                    -0.288124
      2 C                     0.548254
      3 F                    -0.130065
      4 F                    -0.130065
  ----------------------------------------
  Sum of atomic charges =     0.000000

 -----------------------------------------------------------------
                    Cartesian Multipole Moments
 -----------------------------------------------------------------
    Charge (ESU x 10^10)
                 0.0000
    Dipole Moment (Debye)
         X       0.0000      Y       0.0000      Z       1.0704
       Tot       1.0704
    Quadrupole Moments (Debye-Ang)
        XX     -21.7163     XY       0.0000     YY     -19.1838
        XZ       0.0000     YZ       0.0000     ZZ     -20.9238
    Octapole Moments (Debye-Ang^2)
       XXX       0.0000    XXY       0.0000    XYY       0.0000
       YYY       0.0000    XXZ     -27.3116    XYZ       0.0000
       YYZ     -23.7270    XZZ       0.0000    YZZ       0.0000
       ZZZ     -79.6581
    Hexadecapole Moments (Debye-Ang^3)
      XXXX     -83.3630   XXXY       0.0000   XXYY     -16.2449
      XYYY       0.0000   YYYY     -14.0189   XXXZ       0.0000
      XXYZ       0.0000   XYYZ       0.0000   YYYZ       0.0000
      XXZZ     -64.9540   XYZZ       0.0000   YYZZ     -47.9174
      XZZZ       0.0000   YZZZ       0.0000   ZZZZ    -295.6097
 -----------------------------------------------------------------
 Calculating analytic gradient of the SCF energy
 Gradient of AOints
            1           2           3           4
    1  -0.0000001   0.0000001 -15.2553956  15.2553956
    2   0.0000002  -0.0000003   0.0000002  -0.0000002
    3  21.4060504  -3.0313896  -9.1873305  -9.1873303
 Gradient of XC Energy
            1           2           3           4
    1   0.0000000  -0.0000000   0.2510726  -0.2510726
    2  -0.0000000   0.0000000  -0.0000000   0.0000000
    3  -0.4670046   0.1346713   0.1661666   0.1661666
 Gradient of SCF Energy
            1           2           3           4
    1  -0.0000000   0.0000000   0.0219405  -0.0219405
    2  -0.0000000   0.0000000   0.0000000   0.0000000
    3  -0.0459627   0.0161328   0.0149149   0.0149149
 Max gradient component =       4.596E-02
 RMS gradient           =       1.775E-02
 Gradient time:  CPU 38.91 s  wall 39.15 s
 Geometry Optimization Parameters
   NAtoms,    NIC,     NZ,  NCons,   NDum,   NFix, NCnnct, MaxDiis
        4      17       4       0       0       0       0       0


** GEOMETRY OPTIMIZATION IN DELOCALIZED INTERNAL COORDINATES **
   Searching for a Minimum

   Optimization Cycle:   1

                       Coordinates (Angstroms)
     ATOM              X           Y           Z
    1  O           0.000000    0.000000    0.000000
    2  C           0.000000    0.000000    1.180263
    3  F           1.068783    0.000000    1.959001
    4  F          -1.068783    0.000000    1.959001
   Point Group: c1    Number of degrees of freedom:   6


   Energy is   -310.553137413


 Attempting to Generate Delocalized Internal Coordinates

  ***ERROR*** Wrong Number of Internal Coordinates
              Should be:   6  Found:   5
**WARNING** Problems with Internal Coordinates
  Switching to Cartesian Coordinates

 Translations and Rotations Projected Out of Hessian

  6 Hessian modes will be used to form the next step
  Hessian Eigenvalues:
     1.000000    1.000000    1.000000    1.000000    1.000000    1.000000

 Minimum Search - Taking Simple RFO Step
 Searching for Lamda that Minimizes Along All modes
 Value Taken    Lamda =  -0.00376628
 Step Taken.  Stepsize is  0.061255

                             Maximum     Tolerance    Cnvgd?
         Gradient           0.045963      0.000300      NO
         Displacement       0.045790      0.001200      NO
         Energy change     *********      0.000001      NO

 Writing REM_CC_EA            4
 ----------------------------------------------------
       Standard Nuclear Orientation (Angstroms)
    I     Atom         X            Y            Z
 ----------------------------------------------------
    1      O       0.000000     0.000000     0.024231
    2      C       0.000000     0.000000     1.171758
    3      F       1.057216     0.000000     1.951138
    4      F      -1.057216     0.000000     1.951138
 ----------------------------------------------------
 Nuclear Repulsion Energy =   120.5896152930 hartrees
 There are       16 alpha and       16 beta electrons
 Applying Cartesian multipole field
    Component          Value
    ---------          -----
     (2,0,0)        1.00000E-11
     (0,2,0)        2.00000E-11
     (0,0,2)       -3.00000E-11
 Nucleus-field energy     =    -0.0000000075 hartrees
 Requested basis set is G3large
 There are 40 shells and 168 basis functions
 A cutoff of  1.0D-11 yielded    744 shell pairs
 There are  13571 function pairs ( 17837 Cartesian)
Evaluating contribution to one-electron hamiltonian from nuclear
 Smallest overlap matrix eigenvalue = 7.17E-04
 Multipole matrices computed through 2nd order
 Guess MOs from SCF MO coefficient file
Reading MOs from coefficient file
Reading MOs from coefficient file
 A restricted hybrid HF-DFT SCF calculation will be
 performed using Pulay DIIS extrapolation
 Exchange:     1.0000 Hartree-Fock + 1.0000 BNL
 Correlation:  1.0000 LYP
 Using SG-1 standard quadrature grid
 SCF converges when DIIS error is below 1.0E-08
 ---------------------------------------
  Cycle       Energy         DIIS Error
 ---------------------------------------
    1    -310.5697700161      1.69E-03
    2    -310.5544027354      2.92E-04
    3    -310.5545231821      2.21E-04
    4    -310.5546138566      5.29E-05
    5    -310.5546189423      1.21E-05
    6    -310.5546194061      6.82E-06
    7    -310.5546195331      1.78E-06
    8    -310.5546196467      2.19E-07
    9    -310.5546195655      4.51E-08
   10    -310.5546195652      1.26E-08
   11    -310.5546195656      3.28E-09 Convergence criterion met
 ---------------------------------------
 One-Electron    Energy =  -671.1199611410
 Total Coulomb   Energy =   272.2213581906
 Alpha Exchange  Energy =    -3.8832421076
 Beta  Exchange  Energy =    -3.8832421076
 DFT   Exchange  Energy =   -23.2870229973
 DFT Correlation Energy =    -1.1921246881
 Nuclear Repu.   Energy =   120.5896152855
 Nuclear Attr.   Energy =  -980.7108982835
 Kinetic         Energy =   309.5909371424
 SCF time:  CPU 66.09 s  wall 66.97 s
 Final Alpha MO Eigenvalues
            1           2           3           4           5           6
    1 -24.3992195 -24.3992097 -18.8903689 -10.3016092  -1.5061990  -1.4227766
            7           8           9          10          11          12
    1  -1.2982347  -0.8604900  -0.7963700  -0.7577592  -0.7149846  -0.6425533
           13          14          15          16          17          18
    1  -0.6400754  -0.6205334  -0.5633902  -0.5189766   0.0459465   0.0808173
           19          20          21
    1   0.0864553   0.0907211   0.0910482
 Analysis of SCF Wavefunction
 
 --------------------------------------------------------------
                    Orbital Energies (a.u.)
 --------------------------------------------------------------
 
 Alpha MOs
 -- Occupied --
-24.399 -24.399 -18.890 -10.302  -1.506  -1.423  -1.298  -0.860
 -0.796  -0.758  -0.715  -0.643  -0.640  -0.621  -0.563  -0.519
 -- Virtual --
  0.046   0.081   0.086   0.091   0.091   0.219   0.233   0.258
  0.263   0.278   0.295   0.341   0.343   0.345   0.365   0.366
  0.392   0.404   0.462   0.615   0.634   0.712   0.759   0.801
  0.823   0.898   1.053   1.116   1.132   1.143   1.286   1.354
  1.368   1.369   1.422   1.476   1.478   1.523   1.674   1.678
  1.791   1.869   1.882   2.012   2.016   2.056   2.152   2.234
  2.276   2.455   2.517   2.548   2.607   2.748   2.797   2.862
  3.011   3.024   3.147   3.213   3.224   3.485   3.516   3.540
  3.577   3.652   3.683   3.795   3.983   4.253   4.302   5.038
  5.154   5.162   5.177   5.415   5.554   5.656   6.194   6.214
  6.236   6.250   6.365   6.477   6.585   6.677   6.684   6.695
  6.699   6.705   6.797   6.798   6.878   6.903   6.962   7.111
  7.126   7.136   7.236   7.268   7.337   7.431   7.613   7.675
  7.756   8.394   9.111   9.178   9.184   9.206   9.532   9.558
  9.640   9.867   9.921  10.132  24.933  27.240  27.916  28.313
 40.747  40.914  40.995  41.102  41.287  43.668  43.734  43.834
 43.925  43.943  45.835  45.997  46.721  50.025  50.039  50.055
 50.080  50.153  50.211  50.224  50.272  50.305  50.406  50.486
 55.677  55.686  55.703  55.795  56.146  56.284  66.886  66.936
 --------------------------------------------------------------
 
          Ground-State Mulliken Net Atomic Charges

     Atom                 Charge (a.u.)
  ----------------------------------------
      1 O                    -0.285475
      2 C                     0.555834
      3 F                    -0.135180
      4 F                    -0.135180
  ----------------------------------------
  Sum of atomic charges =     0.000000

 -----------------------------------------------------------------
                    Cartesian Multipole Moments
 -----------------------------------------------------------------
    Charge (ESU x 10^10)
                 0.0000
    Dipole Moment (Debye)
         X       0.0000      Y       0.0000      Z       0.9349
       Tot       0.9349
    Quadrupole Moments (Debye-Ang)
        XX     -21.6729     XY       0.0000     YY     -19.0685
        XZ       0.0000     YZ       0.0000     ZZ     -21.1018
    Octapole Moments (Debye-Ang^2)
       XXX       0.0000    XXY       0.0000    XYY       0.0000
       YYY       0.0000    XXZ     -27.4279    XYZ       0.0000
       YYZ     -23.7011    XZZ       0.0000    YZZ       0.0000
       ZZZ     -80.0499
    Hexadecapole Moments (Debye-Ang^3)
      XXXX     -82.0200   XXXY       0.0000   XXYY     -15.9637
      XYYY       0.0000   YYYY     -13.8126   XXXZ       0.0000
      XXYZ       0.0000   XYYZ       0.0000   YYYZ       0.0000
      XXZZ     -64.5451   XYZZ       0.0000   YYZZ     -47.4877
      XZZZ       0.0000   YZZZ       0.0000   ZZZZ    -293.9162
 -----------------------------------------------------------------
 Calculating analytic gradient of the SCF energy
 Gradient of AOints
            1           2           3           4
    1   0.0000000   0.0000000 -15.3077871  15.3077870
    2  -0.0000001   0.0000003  -0.0000001  -0.0000001
    3  21.6817979  -3.0905622  -9.2956179  -9.2956179
 Gradient of XC Energy
            1           2           3           4
    1   0.0000000  -0.0000000   0.2490528  -0.2490528
    2   0.0000000  -0.0000000   0.0000000   0.0000000
    3  -0.4764157   0.1423020   0.1670568   0.1670568
 Gradient of SCF Energy
            1           2           3           4
    1   0.0000000  -0.0000000   0.0099851  -0.0099851
    2   0.0000000  -0.0000000   0.0000000   0.0000000
    3   0.0223334  -0.0375831   0.0076248   0.0076248
 Max gradient component =       3.758E-02
 RMS gradient           =       1.362E-02
 Gradient time:  CPU 39.54 s  wall 39.92 s
 Geometry Optimization Parameters
   NAtoms,    NIC,     NZ,  NCons,   NDum,   NFix, NCnnct, MaxDiis
        4      17       4       0       0       0       0       0

 Cartesian Hessian Update
 Hessian Updated using BFGS Update


** GEOMETRY OPTIMIZATION IN CARTESIAN COORDINATES **
   Searching for a Minimum

   Optimization Cycle:   2

                       Coordinates (Angstroms)
     ATOM              X           Y           Z
    1  O           0.000000    0.000000    0.024231
    2  C           0.000000    0.000000    1.171758
    3  F           1.057216    0.000000    1.951138
    4  F          -1.057216    0.000000    1.951138
   Point Group: c1    Number of degrees of freedom:   6


   Energy is   -310.554619566


 Translations and Rotations Projected Out of Hessian

  2 Hessian modes will be used to form the next step
  Hessian Eigenvalues:
     0.608929    2.070148

 Minimum Search - Taking Simple RFO Step
 Searching for Lamda that Minimizes Along All modes
 Value Taken    Lamda =  -0.00144951
 Step Taken.  Stepsize is  0.036239

                             Maximum     Tolerance    Cnvgd?
         Gradient           0.037583      0.000300      NO
         Displacement       0.024526      0.001200      NO
         Energy change     -0.001482      0.000001      NO

 Writing REM_CC_EA            4
 ----------------------------------------------------
       Standard Nuclear Orientation (Angstroms)
    I     Atom         X            Y            Z
 ----------------------------------------------------
    1      O       0.000000     0.000000     0.022904
    2      C       0.000000     0.000000     1.184736
    3      F       1.049164     0.000000     1.945312
    4      F      -1.049164     0.000000     1.945312
 ----------------------------------------------------
 Nuclear Repulsion Energy =   121.1872525687 hartrees
 There are       16 alpha and       16 beta electrons
 Applying Cartesian multipole field
    Component          Value
    ---------          -----
     (2,0,0)        1.00000E-11
     (0,2,0)        2.00000E-11
     (0,0,2)       -3.00000E-11
 Nucleus-field energy     =    -0.0000000075 hartrees
 Requested basis set is G3large
 There are 40 shells and 168 basis functions
 A cutoff of  1.0D-11 yielded    744 shell pairs
 There are  13571 function pairs ( 17837 Cartesian)
Evaluating contribution to one-electron hamiltonian from nuclear
 Smallest overlap matrix eigenvalue = 7.52E-04
 Multipole matrices computed through 2nd order
 Guess MOs from SCF MO coefficient file
Reading MOs from coefficient file
Reading MOs from coefficient file
 A restricted hybrid HF-DFT SCF calculation will be
 performed using Pulay DIIS extrapolation
 Exchange:     1.0000 Hartree-Fock + 1.0000 BNL
 Correlation:  1.0000 LYP
 Using SG-1 standard quadrature grid
 SCF converges when DIIS error is below 1.0E-08
 ---------------------------------------
  Cycle       Energy         DIIS Error
 ---------------------------------------
    1    -310.5745161917      1.23E-03
    2    -310.5549661324      3.36E-04
    3    -310.5549850367      3.54E-04
    4    -310.5552395828      2.94E-05
    5    -310.5552417814      7.45E-06
    6    -310.5552420975      4.12E-06
    7    -310.5552421540      9.74E-07
    8    -310.5552421417      9.88E-08
    9    -310.5552421596      3.01E-08
   10    -310.5552421572      8.69E-09 Convergence criterion met
 ---------------------------------------
 One-Electron    Energy =  -672.2633004426
 Total Coulomb   Energy =   272.7742509687
 Alpha Exchange  Energy =    -3.8837706008
 Beta  Exchange  Energy =    -3.8837706008
 DFT   Exchange  Energy =   -23.2932016594
 DFT Correlation Energy =    -1.1927023835
 Nuclear Repu.   Energy =   121.1872525612
 Nuclear Attr.   Energy =  -981.8743480143
 Kinetic         Energy =   309.6110475718
 SCF time:  CPU 61.63 s  wall 62.52 s
 Final Alpha MO Eigenvalues
            1           2           3           4           5           6
    1 -24.4036247 -24.4036156 -18.8838716 -10.3014043  -1.5176927  -1.4325392
            7           8           9          10          11          12
    1  -1.2861044  -0.8661769  -0.8019243  -0.7638006  -0.7184480  -0.6482254
           13          14          15          16          17          18
    1  -0.6363277  -0.6259732  -0.5556227  -0.5118915   0.0462468   0.0813728
           19          20          21
    1   0.0860997   0.0908237   0.0908342
 Analysis of SCF Wavefunction
 
 --------------------------------------------------------------
                    Orbital Energies (a.u.)
 --------------------------------------------------------------
 
 Alpha MOs
 -- Occupied --
-24.404 -24.404 -18.884 -10.301  -1.518  -1.433  -1.286  -0.866
 -0.802  -0.764  -0.718  -0.648  -0.636  -0.626  -0.556  -0.512
 -- Virtual --
  0.046   0.081   0.086   0.091   0.091   0.224   0.235   0.264
  0.265   0.276   0.293   0.343   0.344   0.346   0.366   0.367
  0.398   0.404   0.464   0.612   0.635   0.717   0.759   0.807
  0.817   0.894   1.054   1.118   1.138   1.148   1.280   1.349
  1.364   1.366   1.418   1.472   1.473   1.519   1.675   1.681
  1.797   1.863   1.880   2.005   2.020   2.052   2.158   2.238
  2.283   2.464   2.524   2.540   2.625   2.749   2.811   2.889
  3.019   3.030   3.150   3.217   3.220   3.490   3.537   3.554
  3.593   3.670   3.676   3.810   3.992   4.262   4.265   5.039
  5.158   5.167   5.175   5.413   5.540   5.651   6.177   6.214
  6.238   6.249   6.327   6.473   6.564   6.672   6.678   6.694
  6.695   6.699   6.803   6.804   6.889   6.909   6.964   7.126
  7.126   7.153   7.261   7.278   7.363   7.439   7.622   7.737
  7.767   8.440   9.109   9.181   9.186   9.206   9.540   9.570
  9.654   9.883   9.937  10.136  24.988  27.244  27.924  28.264
 40.757  40.915  41.000  41.093  41.300  43.673  43.741  43.839
 43.929  43.939  45.829  45.986  46.705  50.023  50.037  50.051
 50.078  50.155  50.212  50.225  50.266  50.309  50.404  50.468
 55.676  55.687  55.705  55.805  56.169  56.321  66.887  66.940
 --------------------------------------------------------------
 
          Ground-State Mulliken Net Atomic Charges

     Atom                 Charge (a.u.)
  ----------------------------------------
      1 O                    -0.303218
      2 C                     0.552976
      3 F                    -0.124879
      4 F                    -0.124879
  ----------------------------------------
  Sum of atomic charges =     0.000000

 -----------------------------------------------------------------
                    Cartesian Multipole Moments
 -----------------------------------------------------------------
    Charge (ESU x 10^10)
                 0.0000
    Dipole Moment (Debye)
         X       0.0000      Y       0.0000      Z       1.1649
       Tot       1.1649
    Quadrupole Moments (Debye-Ang)
        XX     -21.5592     XY       0.0000     YY     -19.0699
        XZ       0.0000     YZ       0.0000     ZZ     -20.6143
    Octapole Moments (Debye-Ang^2)
       XXX       0.0000    XXY       0.0000    XYY       0.0000
       YYY       0.0000    XXZ     -27.0778    XYZ       0.0000
       YYZ     -23.5519    XZZ       0.0000    YZZ       0.0000
       ZZZ     -78.8181
    Hexadecapole Moments (Debye-Ang^3)
      XXXX     -80.5637   XXXY       0.0000   XXYY     -15.7335
      XYYY       0.0000   YYYY     -13.8388   XXXZ       0.0000
      XXYZ       0.0000   XYYZ       0.0000   YYYZ       0.0000
      XXZZ     -63.6530   XYZZ       0.0000   YYZZ     -47.1108
      XZZZ       0.0000   YZZZ       0.0000   ZZZZ    -290.5204
 -----------------------------------------------------------------
 Calculating analytic gradient of the SCF energy
 Gradient of AOints
            1           2           3           4
    1   0.0000000  -0.0000000 -15.5471054  15.5471054
    2  -0.0000001   0.0000003  -0.0000001  -0.0000001
    3  21.5566919  -2.9658143  -9.2954388  -9.2954388
 Gradient of XC Energy
            1           2           3           4
    1  -0.0000000   0.0000000   0.2573316  -0.2573316
    2   0.0000000  -0.0000000   0.0000000   0.0000000
    3  -0.4679542   0.1306229   0.1686657   0.1686657
 Gradient of SCF Energy
            1           2           3           4
    1  -0.0000000   0.0000000  -0.0014645   0.0014645
    2   0.0000000  -0.0000000   0.0000000   0.0000000
    3  -0.0018157   0.0050663  -0.0016253  -0.0016253
 Max gradient component =       5.066E-03
 RMS gradient           =       1.792E-03
 Gradient time:  CPU 39.68 s  wall 39.99 s
 Geometry Optimization Parameters
   NAtoms,    NIC,     NZ,  NCons,   NDum,   NFix, NCnnct, MaxDiis
        4      17       4       0       0       0       0       0

 Cartesian Hessian Update
 Hessian Updated using BFGS Update


** GEOMETRY OPTIMIZATION IN CARTESIAN COORDINATES **
   Searching for a Minimum

   Optimization Cycle:   3

                       Coordinates (Angstroms)
     ATOM              X           Y           Z
    1  O           0.000000    0.000000    0.022904
    2  C           0.000000    0.000000    1.184736
    3  F           1.049164    0.000000    1.945312
    4  F          -1.049164    0.000000    1.945312
   Point Group: c1    Number of degrees of freedom:   6


   Energy is   -310.555242157


 Translations and Rotations Projected Out of Hessian

  3 Hessian modes will be used to form the next step
  Hessian Eigenvalues:
     0.657941    1.000117    2.195030

 Minimum Search - Taking Simple RFO Step
 Searching for Lamda that Minimizes Along All modes
 Value Taken    Lamda =  -0.00002820
 Step Taken.  Stepsize is  0.005375

                             Maximum     Tolerance    Cnvgd?
         Gradient           0.005066      0.000300      NO
         Displacement       0.003287      0.001200      NO
         Energy change     -0.000623      0.000001      NO

 Writing REM_CC_EA            4
 ----------------------------------------------------
       Standard Nuclear Orientation (Angstroms)
    I     Atom         X            Y            Z
 ----------------------------------------------------
    1      O       0.000000     0.000000     0.022511
    2      C       0.000000     0.000000     1.182997
    3      F       1.050312     0.000000     1.946379
    4      F      -1.050312     0.000000     1.946379
 ----------------------------------------------------
 Nuclear Repulsion Energy =   121.0736815312 hartrees
 There are       16 alpha and       16 beta electrons
 Applying Cartesian multipole field
    Component          Value
    ---------          -----
     (2,0,0)        1.00000E-11
     (0,2,0)        2.00000E-11
     (0,0,2)       -3.00000E-11
 Nucleus-field energy     =    -0.0000000075 hartrees
 Requested basis set is G3large
 There are 40 shells and 168 basis functions
 A cutoff of  1.0D-11 yielded    744 shell pairs
 There are  13571 function pairs ( 17837 Cartesian)
Evaluating contribution to one-electron hamiltonian from nuclear
 Smallest overlap matrix eigenvalue = 7.49E-04
 Multipole matrices computed through 2nd order
 Guess MOs from SCF MO coefficient file
Reading MOs from coefficient file
Reading MOs from coefficient file
 A restricted hybrid HF-DFT SCF calculation will be
 performed using Pulay DIIS extrapolation
 Exchange:     1.0000 Hartree-Fock + 1.0000 BNL
 Correlation:  1.0000 LYP
 Using SG-1 standard quadrature grid
 SCF converges when DIIS error is below 1.0E-08
 ---------------------------------------
  Cycle       Energy         DIIS Error
 ---------------------------------------
    1    -310.5527430875      1.57E-04
    2    -310.5552509789      4.56E-05
    3    -310.5552514459      4.69E-05
    4    -310.5552559318      3.90E-06
    5    -310.5552559907      9.41E-07
    6    -310.5552559908      3.56E-07
    7    -310.5552560013      1.41E-07
    8    -310.5552559898      1.72E-08
    9    -310.5552559943      5.68E-09 Convergence criterion met
 ---------------------------------------
 One-Electron    Energy =  -672.0445232491
 Total Coulomb   Energy =   272.6669352516
 Alpha Exchange  Energy =    -3.8836260083
 Beta  Exchange  Energy =    -3.8836260083
 DFT   Exchange  Energy =   -23.2915180888
 DFT Correlation Energy =    -1.1925794151
 Nuclear Repu.   Energy =   121.0736815237
 Nuclear Attr.   Energy =  -981.6482070731
 Kinetic         Energy =   309.6036838240
 SCF time:  CPU 53.63 s  wall 54.60 s
 Final Alpha MO Eigenvalues
            1           2           3           4           5           6
    1 -24.4030896 -24.4030804 -18.8848462 -10.3016243  -1.5160450  -1.4311649
            7           8           9          10          11          12
    1  -1.2874792  -0.8654409  -0.8010774  -0.7628473  -0.7179450  -0.6474646
           13          14          15          16          17          18
    1  -0.6368664  -0.6252321  -0.5565974  -0.5128327   0.0461977   0.0810696
           19          20          21
    1   0.0860966   0.0908135   0.0908671
 Analysis of SCF Wavefunction
 
 --------------------------------------------------------------
                    Orbital Energies (a.u.)
 --------------------------------------------------------------
 
 Alpha MOs
 -- Occupied --
-24.403 -24.403 -18.885 -10.302  -1.516  -1.431  -1.287  -0.865
 -0.801  -0.763  -0.718  -0.647  -0.637  -0.625  -0.557  -0.513
 -- Virtual --
  0.046   0.081   0.086   0.091   0.091   0.223   0.235   0.264
  0.264   0.276   0.294   0.343   0.344   0.345   0.366   0.367
  0.397   0.404   0.463   0.612   0.634   0.716   0.759   0.806
  0.818   0.895   1.054   1.117   1.137   1.148   1.281   1.350
  1.364   1.366   1.419   1.472   1.474   1.520   1.675   1.681
  1.796   1.864   1.880   2.006   2.019   2.053   2.157   2.238
  2.282   2.462   2.523   2.541   2.623   2.749   2.809   2.885
  3.017   3.030   3.150   3.216   3.220   3.489   3.534   3.551
  3.590   3.667   3.676   3.807   3.990   4.260   4.269   5.038
  5.158   5.166   5.175   5.413   5.541   5.650   6.178   6.214
  6.237   6.249   6.330   6.473   6.567   6.673   6.679   6.694
  6.695   6.700   6.802   6.803   6.886   6.908   6.963   7.124
  7.125   7.149   7.258   7.277   7.359   7.437   7.620   7.727
  7.766   8.432   9.109   9.181   9.186   9.206   9.539   9.568
  9.652   9.880   9.934  10.135  24.979  27.243  27.922  28.269
 40.755  40.914  40.999  41.093  41.298  43.672  43.740  43.839
 43.928  43.939  45.829  45.987  46.706  50.023  50.037  50.052
 50.078  50.154  50.212  50.225  50.266  50.308  50.404  50.469
 55.676  55.687  55.705  55.803  56.165  56.315  66.886  66.939
 --------------------------------------------------------------
 
          Ground-State Mulliken Net Atomic Charges

     Atom                 Charge (a.u.)
  ----------------------------------------
      1 O                    -0.300762
      2 C                     0.553180
      3 F                    -0.126209
      4 F                    -0.126209
  ----------------------------------------
  Sum of atomic charges =     0.000000

 -----------------------------------------------------------------
                    Cartesian Multipole Moments
 -----------------------------------------------------------------
    Charge (ESU x 10^10)
                 0.0000
    Dipole Moment (Debye)
         X       0.0000      Y       0.0000      Z       1.1351
       Tot       1.1351
    Quadrupole Moments (Debye-Ang)
        XX     -21.5756     XY       0.0000     YY     -19.0719
        XZ       0.0000     YZ       0.0000     ZZ     -20.6802
    Octapole Moments (Debye-Ang^2)
       XXX       0.0000    XXY       0.0000    XYY       0.0000
       YYY       0.0000    XXZ     -27.1237    XYZ       0.0000
       YYZ     -23.5731    XZZ       0.0000    YZZ       0.0000
       ZZZ     -78.9843
    Hexadecapole Moments (Debye-Ang^3)
      XXXX     -80.7682   XXXY       0.0000   XXYY     -15.7667
      XYYY       0.0000   YYYY     -13.8389   XXXZ       0.0000
      XXYZ       0.0000   XYYZ       0.0000   YYYZ       0.0000
      XXZZ     -63.7821   XYZZ       0.0000   YYZZ     -47.1741
      XZZZ       0.0000   YZZZ       0.0000   ZZZZ    -291.0432
 -----------------------------------------------------------------
 Calculating analytic gradient of the SCF energy
 Gradient of AOints
            1           2           3           4
    1   0.0000000  -0.0000001 -15.5115406  15.5115406
    2  -0.0000001   0.0000003  -0.0000001  -0.0000001
    3  21.5701910  -2.9765105  -9.2968402  -9.2968403
 Gradient of XC Energy
            1           2           3           4
    1  -0.0000000   0.0000000   0.2561645  -0.2561645
    2   0.0000000  -0.0000000   0.0000000   0.0000000
    3  -0.4689907   0.1319291   0.1685308   0.1685308
 Gradient of SCF Energy
            1           2           3           4
    1   0.0000000  -0.0000000   0.0003649  -0.0003649
    2   0.0000000  -0.0000000   0.0000000   0.0000000
    3  -0.0000339   0.0002230  -0.0000946  -0.0000946
 Max gradient component =       3.649E-04
 RMS gradient           =       1.671E-04
 Gradient time:  CPU 39.71 s  wall 39.84 s
 Geometry Optimization Parameters
   NAtoms,    NIC,     NZ,  NCons,   NDum,   NFix, NCnnct, MaxDiis
        4      17       4       0       0       0       0       0

 Cartesian Hessian Update
 Hessian Updated using BFGS Update


** GEOMETRY OPTIMIZATION IN CARTESIAN COORDINATES **
   Searching for a Minimum

   Optimization Cycle:   4

                       Coordinates (Angstroms)
     ATOM              X           Y           Z
    1  O           0.000000    0.000000    0.022511
    2  C           0.000000    0.000000    1.182997
    3  F           1.050312    0.000000    1.946379
    4  F          -1.050312    0.000000    1.946379
   Point Group: c1    Number of degrees of freedom:   6


   Energy is   -310.555255994


 Translations and Rotations Projected Out of Hessian

  3 Hessian modes will be used to form the next step
  Hessian Eigenvalues:
     0.702445    0.985216    2.123666

 Minimum Search - Taking Simple RFO Step
 Searching for Lamda that Minimizes Along All modes
 Value Taken    Lamda =   0.00000000
 Step Taken.  Stepsize is  0.000602

                             Maximum     Tolerance    Cnvgd?
         Gradient           0.000365      0.000300      NO
         Displacement       0.000406      0.001200     YES
         Energy change     -0.000014      0.000001      NO

 Writing REM_CC_EA            4
 ----------------------------------------------------
       Standard Nuclear Orientation (Angstroms)
    I     Atom         X            Y            Z
 ----------------------------------------------------
    1      O       0.000000     0.000000     0.022523
    2      C       0.000000     0.000000     1.182915
    3      F       1.050097     0.000000     1.946414
    4      F      -1.050097     0.000000     1.946414
 ----------------------------------------------------
 Nuclear Repulsion Energy =   121.0845154574 hartrees
 There are       16 alpha and       16 beta electrons
 Applying Cartesian multipole field
    Component          Value
    ---------          -----
     (2,0,0)        1.00000E-11
     (0,2,0)        2.00000E-11
     (0,0,2)       -3.00000E-11
 Nucleus-field energy     =    -0.0000000075 hartrees
 Requested basis set is G3large
 There are 40 shells and 168 basis functions
 A cutoff of  1.0D-11 yielded    744 shell pairs
 There are  13571 function pairs ( 17837 Cartesian)
Evaluating contribution to one-electron hamiltonian from nuclear
 Smallest overlap matrix eigenvalue = 7.49E-04
 Multipole matrices computed through 2nd order
 Guess MOs from SCF MO coefficient file
Reading MOs from coefficient file
Reading MOs from coefficient file
 A restricted hybrid HF-DFT SCF calculation will be
 performed using Pulay DIIS extrapolation
 Exchange:     1.0000 Hartree-Fock + 1.0000 BNL
 Correlation:  1.0000 LYP
 Using SG-1 standard quadrature grid
 SCF converges when DIIS error is below 1.0E-08
 ---------------------------------------
  Cycle       Energy         DIIS Error
 ---------------------------------------
    1    -310.5553928369      8.28E-06
    2    -310.5552562764      1.53E-06
    3    -310.5552562263      9.71E-07
    4    -310.5552562901      2.68E-07
    5    -310.5552562870      7.96E-08
    6    -310.5552562779      2.15E-08
    7    -310.5552562790      1.55E-08
    8    -310.5552562790      1.51E-09 Convergence criterion met
 ---------------------------------------
 One-Electron    Energy =  -672.0658227884
 Total Coulomb   Energy =   272.6776693092
 Alpha Exchange  Energy =    -3.8836451824
 Beta  Exchange  Energy =    -3.8836451824
 DFT   Exchange  Energy =   -23.2917352729
 DFT Correlation Energy =    -1.1925926119
 Nuclear Repu.   Energy =   121.0845154499
 Nuclear Attr.   Energy =  -981.6706217818
 Kinetic         Energy =   309.6047989934
 SCF time:  CPU 45.32 s  wall 45.76 s
 Final Alpha MO Eigenvalues
            1           2           3           4           5           6
    1 -24.4030693 -24.4030600 -18.8848343 -10.3015836  -1.5161110  -1.4311645
            7           8           9          10          11          12
    1  -1.2875309  -0.8654506  -0.8010891  -0.7628904  -0.7179653  -0.6474554
           13          14          15          16          17          18
    1  -0.6368860  -0.6251945  -0.5566146  -0.5128475   0.0462057   0.0811246
           19          20          21
    1   0.0861061   0.0908136   0.0908660
 Analysis of SCF Wavefunction
 
 --------------------------------------------------------------
                    Orbital Energies (a.u.)
 --------------------------------------------------------------
 
 Alpha MOs
 -- Occupied --
-24.403 -24.403 -18.885 -10.302  -1.516  -1.431  -1.288  -0.865
 -0.801  -0.763  -0.718  -0.647  -0.637  -0.625  -0.557  -0.513
 -- Virtual --
  0.046   0.081   0.086   0.091   0.091   0.223   0.235   0.264
  0.264   0.276   0.294   0.343   0.344   0.345   0.366   0.367
  0.397   0.404   0.463   0.612   0.634   0.716   0.759   0.806
  0.818   0.895   1.054   1.117   1.137   1.148   1.281   1.350
  1.364   1.366   1.419   1.473   1.474   1.520   1.675   1.681
  1.796   1.864   1.880   2.006   2.019   2.053   2.157   2.238
  2.282   2.462   2.523   2.541   2.623   2.749   2.809   2.885
  3.017   3.030   3.150   3.216   3.220   3.489   3.534   3.552
  3.591   3.668   3.676   3.807   3.990   4.261   4.269   5.038
  5.158   5.166   5.175   5.413   5.542   5.651   6.178   6.214
  6.237   6.249   6.331   6.473   6.567   6.673   6.679   6.694
  6.695   6.700   6.802   6.803   6.887   6.908   6.963   7.124
  7.125   7.149   7.258   7.277   7.359   7.437   7.620   7.728
  7.766   8.433   9.109   9.181   9.186   9.206   9.539   9.568
  9.652   9.881   9.934  10.135  24.979  27.243  27.922  28.269
 40.755  40.914  40.999  41.094  41.298  43.672  43.740  43.839
 43.928  43.939  45.829  45.987  46.706  50.023  50.037  50.052
 50.078  50.154  50.212  50.225  50.267  50.308  50.404  50.469
 55.676  55.687  55.705  55.803  56.166  56.316  66.886  66.939
 --------------------------------------------------------------
 
          Ground-State Mulliken Net Atomic Charges

     Atom                 Charge (a.u.)
  ----------------------------------------
      1 O                    -0.300764
      2 C                     0.553147
      3 F                    -0.126191
      4 F                    -0.126191
  ----------------------------------------
  Sum of atomic charges =     0.000000

 -----------------------------------------------------------------
                    Cartesian Multipole Moments
 -----------------------------------------------------------------
    Charge (ESU x 10^10)
                 0.0000
    Dipole Moment (Debye)
         X       0.0000      Y       0.0000      Z       1.1347
       Tot       1.1347
    Quadrupole Moments (Debye-Ang)
        XX     -21.5750     XY       0.0000     YY     -19.0714
        XZ       0.0000     YZ       0.0000     ZZ     -20.6808
    Octapole Moments (Debye-Ang^2)
       XXX       0.0000    XXY       0.0000    XYY       0.0000
       YYY       0.0000    XXZ     -27.1231    XYZ       0.0000
       YYZ     -23.5726    XZZ       0.0000    YZZ       0.0000
       ZZZ     -78.9846
    Hexadecapole Moments (Debye-Ang^3)
      XXXX     -80.7425   XXXY       0.0000   XXYY     -15.7620
      XYYY       0.0000   YYYY     -13.8380   XXXZ       0.0000
      XXYZ       0.0000   XYYZ       0.0000   YYYZ       0.0000
      XXZZ     -63.7769   XYZZ       0.0000   YYZZ     -47.1735
      XZZZ       0.0000   YZZZ       0.0000   ZZZZ    -291.0423
 -----------------------------------------------------------------
 Calculating analytic gradient of the SCF energy
 Gradient of AOints
            1           2           3           4
    1  -0.0000000   0.0000000 -15.5109814  15.5109814
    2  -0.0000001   0.0000003  -0.0000001  -0.0000001
    3  21.5710356  -2.9719564  -9.2995396  -9.2995396
 Gradient of XC Energy
            1           2           3           4
    1   0.0000000  -0.0000000   0.2561253  -0.2561253
    2   0.0000000  -0.0000000   0.0000000   0.0000000
    3  -0.4690056   0.1317930   0.1686063   0.1686063
 Gradient of SCF Energy
            1           2           3           4
    1  -0.0000000  -0.0000000   0.0002030  -0.0002030
    2   0.0000000  -0.0000000   0.0000000   0.0000000
    3   0.0001700   0.0000755  -0.0001228  -0.0001228
 Max gradient component =       2.030E-04
 RMS gradient           =       1.108E-04
 Gradient time:  CPU 39.88 s  wall 39.98 s
 Geometry Optimization Parameters
   NAtoms,    NIC,     NZ,  NCons,   NDum,   NFix, NCnnct, MaxDiis
        4      17       4       0       0       0       0       0

 Cartesian Hessian Update
 Hessian Updated using BFGS Update


** GEOMETRY OPTIMIZATION IN CARTESIAN COORDINATES **
   Searching for a Minimum

   Optimization Cycle:   5

                       Coordinates (Angstroms)
     ATOM              X           Y           Z
    1  O           0.000000    0.000000    0.022523
    2  C           0.000000    0.000000    1.182915
    3  F           1.050097    0.000000    1.946414
    4  F          -1.050097    0.000000    1.946414
   Point Group: c1    Number of degrees of freedom:   6


   Energy is   -310.555256279


 Translations and Rotations Projected Out of Hessian

  3 Hessian modes will be used to form the next step
  Hessian Eigenvalues:
     0.316621    0.871858    2.403884

 Minimum Search - Taking Simple RFO Step
 Searching for Lamda that Minimizes Along All modes
 Value Taken    Lamda =   0.00000000
 Step Taken.  Stepsize is  0.001168

                             Maximum     Tolerance    Cnvgd?
         Gradient           0.000203      0.000300     YES
         Displacement       0.000679      0.001200     YES
         Energy change      0.000000      0.000001     YES


                       Distance Matrix (Angstroms)
             O (  1)   C (  2)   F (  3)
   C (  2)  1.160392
   F (  3)  2.191816  1.298320
   F (  4)  2.191816  1.298320  2.100194
 


 ******************************
 **  OPTIMIZATION CONVERGED  **
 ******************************
 Analysis of SCF Wavefunction
 
 --------------------------------------------------------------
                    Orbital Energies (a.u.)
 --------------------------------------------------------------
 
 Alpha MOs
 -- Occupied --
-24.403 -24.403 -18.885 -10.302  -1.516  -1.431  -1.288  -0.865
 -0.801  -0.763  -0.718  -0.647  -0.637  -0.625  -0.557  -0.513
 -- Virtual --
  0.046   0.081   0.086   0.091   0.091   0.223   0.235   0.264
  0.264   0.276   0.294   0.343   0.344   0.345   0.366   0.367
  0.397   0.404   0.463   0.612   0.634   0.716   0.759   0.806
  0.818   0.895   1.054   1.117   1.137   1.148   1.281   1.350
  1.364   1.366   1.419   1.473   1.474   1.520   1.675   1.681
  1.796   1.864   1.880   2.006   2.019   2.053   2.157   2.238
  2.282   2.462   2.523   2.541   2.623   2.749   2.809   2.885
  3.017   3.030   3.150   3.216   3.220   3.489   3.534   3.552
  3.591   3.668   3.676   3.807   3.990   4.261   4.269   5.038
  5.158   5.166   5.175   5.413   5.542   5.651   6.178   6.214
  6.237   6.249   6.331   6.473   6.567   6.673   6.679   6.694
  6.695   6.700   6.802   6.803   6.887   6.908   6.963   7.124
  7.125   7.149   7.258   7.277   7.359   7.437   7.620   7.728
  7.766   8.433   9.109   9.181   9.186   9.206   9.539   9.568
  9.652   9.881   9.934  10.135  24.979  27.243  27.922  28.269
 40.755  40.914  40.999  41.094  41.298  43.672  43.740  43.839
 43.928  43.939  45.829  45.987  46.706  50.023  50.037  50.052
 50.078  50.154  50.212  50.225  50.267  50.308  50.404  50.469
 55.676  55.687  55.705  55.803  56.166  56.316  66.886  66.939
 --------------------------------------------------------------
 
          Ground-State Mulliken Net Atomic Charges

     Atom                 Charge (a.u.)
  ----------------------------------------
      1 O                    -0.300764
      2 C                     0.553147
      3 F                    -0.126191
      4 F                    -0.126191
  ----------------------------------------
  Sum of atomic charges =     0.000000

 -----------------------------------------------------------------
                    Cartesian Multipole Moments
 -----------------------------------------------------------------
    Charge (ESU x 10^10)
                 0.0000
    Dipole Moment (Debye)
         X       0.0000      Y       0.0000      Z       1.1347
       Tot       1.1347
    Quadrupole Moments (Debye-Ang)
        XX     -21.5750     XY       0.0000     YY     -19.0714
        XZ       0.0000     YZ       0.0000     ZZ     -20.6808
    Octapole Moments (Debye-Ang^2)
       XXX       0.0000    XXY       0.0000    XYY       0.0000
       YYY       0.0000    XXZ     -27.1231    XYZ       0.0000
       YYZ     -23.5726    XZZ       0.0000    YZZ       0.0000
       ZZZ     -78.9846
    Hexadecapole Moments (Debye-Ang^3)
      XXXX     -80.7425   XXXY       0.0000   XXYY     -15.7620
      XYYY       0.0000   YYYY     -13.8380   XXXZ       0.0000
      XXYZ       0.0000   XYYZ       0.0000   YYYZ       0.0000
      XXZZ     -63.7769   XYZZ       0.0000   YYZZ     -47.1735
      XZZZ       0.0000   YZZZ       0.0000   ZZZZ    -291.0423
 -----------------------------------------------------------------
 Total job time:  515.32s(wall), 509.80s(cpu) 
 Fri Apr 22 23:59:56 2011

        *************************************************************
        *                                                           *
        *  Thank you very much for using Q-Chem.  Have a nice day.  *
        *                                                           *
        *************************************************************


0 sent ACK to 0 
now end server 0 ... 
 
**********************************************************************
Job 2 of 2 
**********************************************************************
 
Process 0 of 1 is on cl247.stfx.acenet.ca - thread support 1
initial socket setup ...start
initial socket setup ...done 
now start server 0 ... 

cmd = /usr/bin/ssh clhead /usr/local/qchem/bin/get_hostid 137793503 > /scratch/tmp/4506605.1.long.q/qchem27453/lic.dat
                  Welcome to Q-Chem
     A Quantum Leap Into The Future Of Chemistry

 Y. Shao, L. Fusti-Molnar, Y. Jung, J. Kussmann, C. Ochsenfeld,
 S. T. Brown, A. T. B. Gilbert, L. V. Slipchenko,S. V. Levchenko,
 D. P. O'Neill, R. A. DiStasio Jr., R. C. Lochan, T. Wang,
 G. J. O. Beran, N. A. Besley, J. M. Herbert, C. Y. Lin,
 T. Van Voorhis, S. H. Chien, A. Sodt, R. P. Steele, 
 V. A. Rassolov, P. E. Maslen, P. P. Korambath, R. D. Adamson,
 B. Austin, J. Baker, E. F. C. Byrd, H. Dachsel, R. J. Doerksen,
 A. Dreuw, B. D. Dunietz, A. D. Dutoi, T. R. Furlani,
 S. R. Gwaltney, A. Heyden, S. Hirata, C.-P. Hsu, G. Kedziora,
 R. Z. Khaliullin, P. Klunzinger, A. M. Lee, M. S. Lee, W. Liang,
 I. Lotan, N. Nair, B. Peters, E. I. Proynov, P. A. Pieniazek, 
 Y. M. Rhee, J. Ritchie, E. Rosta, C. D. Sherrill, 
 A. C. Simmonett, J. E. Subotnik, H. L. Woodcock III,
 W. Zhang, A. T. Bell, A. K. Chakraborty, D. M. Chipman,
 F. J. Keil, A. Warshel, W. J. Hehre, H. F. Schaefer III,
 J. Kong, A. I. Krylov, P. M. W. Gill, M. Head-Gordon,
 Q-Chem, Version 3.1, Q-Chem, Inc., Pittsburgh, PA (2007).

 Additional authors for Version 3.1: 
 Z. Gan, Y. Zhao, N. E. Schultz, D. Truhlar, E. Epifanovsky and M. Oana.

 Additional authors for Version 3.2: 
 R. Baer, B. R. Brooks, D. Casanova, J.-D. Chai, C.-L. Cheng, 
 C. Cramer, D. Crittenden, A. Ghysels, G. Hawkins, E. G. Hohenstein, 
 C. Kelley, W. Kurlancheek, D. Liotard, E. Livshits, P. Manohar, 
 A. Marenich, D. Neuhauser, R. Olson, M. A. Rohrdanz, K. S. Thanthiriwatte, 
 A. J. W. Thom, V. Vanovschi, C. F. Williams, Q. Wu and Z.-Q. You. 


 Intel X86 Linux Version

 Q-chem begins on Fri Apr 22 23:59:59 2011  

 Parallel job on  1  processors
Processing $rem in /usr/local/qchem/config/preferences.

theFileMan(): MAXOPENFILES=974 MAX_SUB_FILE_NUM=16
Maximum size of a physical file is 2.0 GB, maximum size of a tmp-file is 32.0 GB


--------------------------------------------------------------
User input:
--------------------------------------------------------------

$molecule 
READ 
$end 

$xc_functional
   X HF 1.0
   X BNL 1.0
   C LYP 1.0
$end

$rem
SYMMETRY_DECOMPOSITION	0
exchange 		general
BASIS                   g3large
omega			480 
JOBTYPE                 freq
IDERIV 1
SCF_GUESS READ
separate_jk		true
mem_static              760
max_scf_cycles          200
scf_final_print         1
sym_ignore              true
$end

--------------------------------------------------------------
 Writing REM_CC_EA            4
 ----------------------------------------------------
       Standard Nuclear Orientation (Angstroms)
    I     Atom         X            Y            Z
 ----------------------------------------------------
    1      O       0.000000     0.000000     0.022523
    2      C       0.000000     0.000000     1.182915
    3      F       1.050097     0.000000     1.946414
    4      F      -1.050097     0.000000     1.946414
 ----------------------------------------------------
 Nuclear Repulsion Energy =   121.0845154574 hartrees
 There are       16 alpha and       16 beta electrons
 Requested basis set is G3large
 There are 40 shells and 168 basis functions

Total QAlloc Memory Limit   2000 MB
Mega-Array Size       759 MB
MEM_STATIC part       760 MB

                       Distance Matrix (Angstroms)
             O (  1)   C (  2)   F (  3)
   C (  2)  1.160392
   F (  3)  2.191816  1.298320
   F (  4)  2.191816  1.298320  2.100194
 
 A cutoff of  1.0D-11 yielded    744 shell pairs
 There are  13571 function pairs ( 17837 Cartesian)
Evaluating contribution to one-electron hamiltonian from nuclear
 Smallest overlap matrix eigenvalue = 7.49E-04
 Multipole matrices computed through 2nd order
 Guess MOs from SCF MO coefficient file
Reading MOs from coefficient file
Reading MOs from coefficient file
 A restricted hybrid HF-DFT SCF calculation will be
 performed using Pulay DIIS extrapolation
 Exchange:     1.0000 Hartree-Fock + 1.0000 BNL
 Correlation:  1.0000 LYP
 Using SG-1 standard quadrature grid
 SCF converges when DIIS error is below 1.0E-08
 ---------------------------------------
  Cycle       Energy         DIIS Error
 ---------------------------------------
    1    -310.5552562387      4.62E-10
    2    -310.5552562392      2.68E-10 Convergence criterion met
 ---------------------------------------
 One-Electron    Energy =  -672.0658231637
 Total Coulomb   Energy =   272.6776697149
 Alpha Exchange  Energy =    -3.8836451805
 Beta  Exchange  Energy =    -3.8836451805
 DFT   Exchange  Energy =   -23.2917352762
 DFT Correlation Energy =    -1.1925926104
 Nuclear Repu.   Energy =   121.0845154574
 Nuclear Attr.   Energy =  -981.6706226484
 Kinetic         Energy =   309.6047994846
 SCF time:  CPU 13.81 s  wall 14.02 s
 Final Alpha MO Eigenvalues
            1           2           3           4           5           6
    1 -24.4030693 -24.4030600 -18.8848343 -10.3015836  -1.5161110  -1.4311645
            7           8           9          10          11          12
    1  -1.2875309  -0.8654506  -0.8010891  -0.7628904  -0.7179653  -0.6474554
           13          14          15          16          17          18
    1  -0.6368860  -0.6251945  -0.5566146  -0.5128475   0.0462057   0.0811246
           19          20          21
    1   0.0861061   0.0908136   0.0908660
 Analysis of SCF Wavefunction
 
 --------------------------------------------------------------
                    Orbital Energies (a.u.)
 --------------------------------------------------------------
 
 Alpha MOs
 -- Occupied --
-24.403 -24.403 -18.885 -10.302  -1.516  -1.431  -1.288  -0.865
 -0.801  -0.763  -0.718  -0.647  -0.637  -0.625  -0.557  -0.513
 -- Virtual --
  0.046   0.081   0.086   0.091   0.091   0.223   0.235   0.264
  0.264   0.276   0.294   0.343   0.344   0.345   0.366   0.367
  0.397   0.404   0.463   0.612   0.634   0.716   0.759   0.806
  0.818   0.895   1.054   1.117   1.137   1.148   1.281   1.350
  1.364   1.366   1.419   1.473   1.474   1.520   1.675   1.681
  1.796   1.864   1.880   2.006   2.019   2.053   2.157   2.238
  2.282   2.462   2.523   2.541   2.623   2.749   2.809   2.885
  3.017   3.030   3.150   3.216   3.220   3.489   3.534   3.552
  3.591   3.668   3.676   3.807   3.990   4.261   4.269   5.038
  5.158   5.166   5.175   5.413   5.542   5.651   6.178   6.214
  6.237   6.249   6.331   6.473   6.567   6.673   6.679   6.694
  6.695   6.700   6.802   6.803   6.887   6.908   6.963   7.124
  7.125   7.149   7.258   7.277   7.359   7.437   7.620   7.728
  7.766   8.433   9.109   9.181   9.186   9.206   9.539   9.568
  9.652   9.881   9.934  10.135  24.979  27.243  27.922  28.269
 40.755  40.914  40.999  41.094  41.298  43.672  43.740  43.839
 43.928  43.939  45.829  45.987  46.706  50.023  50.037  50.052
 50.078  50.154  50.212  50.225  50.267  50.308  50.404  50.469
 55.676  55.687  55.705  55.803  56.166  56.316  66.886  66.939
 --------------------------------------------------------------
 
          Ground-State Mulliken Net Atomic Charges

     Atom                 Charge (a.u.)
  ----------------------------------------
      1 O                    -0.300764
      2 C                     0.553147
      3 F                    -0.126191
      4 F                    -0.126191
  ----------------------------------------
  Sum of atomic charges =     0.000000

 -----------------------------------------------------------------
                    Cartesian Multipole Moments
 -----------------------------------------------------------------
    Charge (ESU x 10^10)
                 0.0000
    Dipole Moment (Debye)
         X       0.0000      Y       0.0000      Z       1.1347
       Tot       1.1347
    Quadrupole Moments (Debye-Ang)
        XX     -21.5750     XY       0.0000     YY     -19.0714
        XZ       0.0000     YZ       0.0000     ZZ     -20.6808
    Octapole Moments (Debye-Ang^2)
       XXX       0.0000    XXY       0.0000    XYY       0.0000
       YYY       0.0000    XXZ     -27.1231    XYZ       0.0000
       YYZ     -23.5726    XZZ       0.0000    YZZ       0.0000
       ZZZ     -78.9846
    Hexadecapole Moments (Debye-Ang^3)
      XXXX     -80.7425   XXXY       0.0000   XXYY     -15.7620
      XYYY       0.0000   YYYY     -13.8380   XXXZ       0.0000
      XXYZ       0.0000   XYYZ       0.0000   YYYZ       0.0000
      XXZZ     -63.7769   XYZZ       0.0000   YYZZ     -47.1735
      XZZZ       0.0000   YZZZ       0.0000   ZZZZ    -291.0423
 -----------------------------------------------------------------
 Calculating analytic gradient of the SCF energy
 Gradient of AOints
            1           2           3           4
    1  -0.0000000  -0.0000000 -15.5109813  15.5109814
    2  -0.0000001   0.0000003  -0.0000001  -0.0000001
    3  21.5710355  -2.9719563  -9.2995396  -9.2995396
 Gradient of XC Energy
            1           2           3           4
    1   0.0000000   0.0000000   0.2561253  -0.2561253
    2   0.0000000  -0.0000000   0.0000000   0.0000000
    3  -0.4690056   0.1317930   0.1686063   0.1686063
 Gradient of SCF Energy
            1           2           3           4
    1  -0.0000000  -0.0000000   0.0002030  -0.0002030
    2   0.0000000  -0.0000000   0.0000000   0.0000000
    3   0.0001700   0.0000755  -0.0001228  -0.0001228
 Max gradient component =       2.030E-04
 RMS gradient           =       1.108E-04
 Gradient time:  CPU 38.67 s  wall 38.88 s
 ######################################################
 ######################################################
 # Starting finite difference calculation for IDERIV  #
 Finite diff step size: 1.89e-03 a.u.
 Writing REM_CC_EA            4
 ----------------------------------------------------
       Standard Nuclear Orientation (Angstroms)
    I     Atom         X            Y            Z
 ----------------------------------------------------
    1      O       0.001000     0.000000     0.022523
    2      C       0.000000     0.000000     1.182915
    3      F       1.050097     0.000000     1.946414
    4      F      -1.050097     0.000000     1.946414
 ----------------------------------------------------
 Nuclear Repulsion Energy =   121.0845062023 hartrees
 There are       16 alpha and       16 beta electrons

                       Distance Matrix (Angstroms)
             O (  1)   C (  2)   F (  3)
   C (  2)  1.160393
   F (  3)  2.191337  1.298320
   F (  4)  2.192296  1.298320  2.100194
 
 Requested basis set is G3large
 There are 40 shells and 168 basis functions
 A cutoff of  1.0D-11 yielded    744 shell pairs
 There are  13571 function pairs ( 17837 Cartesian)
Evaluating contribution to one-electron hamiltonian from nuclear
 Smallest overlap matrix eigenvalue = 7.49E-04
 Multipole matrices computed through 2nd order
 Guess MOs from SCF MO coefficient file
Reading MOs from coefficient file
Reading MOs from coefficient file
 A restricted hybrid HF-DFT SCF calculation will be
 performed using Pulay DIIS extrapolation
 Exchange:     1.0000 Hartree-Fock + 1.0000 BNL
 Correlation:  1.0000 LYP
 Using SG-1 standard quadrature grid
 SCF converges when DIIS error is below 1.0E-08
 ---------------------------------------
  Cycle       Energy         DIIS Error
 ---------------------------------------
    1    -310.5552553840      2.90E-05
    2    -310.5552560098      2.80E-06
    3    -310.5552560375      1.98E-06
    4    -310.5552560432      6.80E-07
    5    -310.5552560441      6.62E-08
    6    -310.5552560447      1.04E-08
    7    -310.5552560444      4.38E-09 Convergence criterion met
 ---------------------------------------
 One-Electron    Energy =  -672.0658052628
 Total Coulomb   Energy =   272.6776608128
 Alpha Exchange  Energy =    -3.8836451370
 Beta  Exchange  Energy =    -3.8836451370
 DFT   Exchange  Energy =   -23.2917349269
 DFT Correlation Energy =    -1.1925925958
 Nuclear Repu.   Energy =   121.0845062023
 Nuclear Attr.   Energy =  -981.6706031721
 Kinetic         Energy =   309.6047979093
 SCF time:  CPU 41.13 s  wall 41.68 s
 Final Alpha MO Eigenvalues
            1           2           3           4           5           6
    1 -24.4031440 -24.4029853 -18.8848345 -10.3015836  -1.5161110  -1.4311645
            7           8           9          10          11          12
    1  -1.2875306  -0.8654507  -0.8010891  -0.7628903  -0.7179654  -0.6474554
           13          14          15          16          17          18
    1  -0.6368860  -0.6251945  -0.5566145  -0.5128473   0.0462057   0.0811244
           19          20          21
    1   0.0861060   0.0908136   0.0908661
 Analysis of SCF Wavefunction
 
 --------------------------------------------------------------
                    Orbital Energies (a.u.)
 --------------------------------------------------------------
 
 Alpha MOs
 -- Occupied --
-24.403 -24.403 -18.885 -10.302  -1.516  -1.431  -1.288  -0.865
 -0.801  -0.763  -0.718  -0.647  -0.637  -0.625  -0.557  -0.513
 -- Virtual --
  0.046   0.081   0.086   0.091   0.091   0.223   0.235   0.264
  0.264   0.276   0.294   0.343   0.344   0.345   0.366   0.367
  0.397   0.404   0.463   0.612   0.634   0.716   0.759   0.806
  0.818   0.895   1.054   1.117   1.137   1.148   1.281   1.350
  1.364   1.366   1.419   1.472   1.474   1.520   1.675   1.681
  1.796   1.864   1.880   2.006   2.019   2.053   2.157   2.238
  2.282   2.462   2.523   2.541   2.623   2.749   2.809   2.885
  3.017   3.030   3.150   3.216   3.220   3.489   3.534   3.552
  3.591   3.668   3.676   3.807   3.990   4.261   4.269   5.038
  5.158   5.166   5.175   5.413   5.542   5.651   6.178   6.214
  6.237   6.249   6.331   6.473   6.567   6.673   6.679   6.694
  6.695   6.700   6.802   6.803   6.887   6.908   6.963   7.124
  7.125   7.149   7.258   7.277   7.359   7.437   7.620   7.728
  7.766   8.433   9.109   9.181   9.186   9.206   9.539   9.568
  9.652   9.881   9.934  10.135  24.979  27.243  27.922  28.269
 40.755  40.914  40.999  41.094  41.298  43.672  43.740  43.839
 43.928  43.939  45.829  45.987  46.706  50.023  50.037  50.052
 50.078  50.154  50.212  50.225  50.267  50.308  50.404  50.469
 55.676  55.687  55.705  55.803  56.166  56.316  66.886  66.939
 --------------------------------------------------------------
 
          Ground-State Mulliken Net Atomic Charges

     Atom                 Charge (a.u.)
  ----------------------------------------
      1 O                    -0.300765
      2 C                     0.553147
      3 F                    -0.126232
      4 F                    -0.126150
  ----------------------------------------
  Sum of atomic charges =     0.000000

 -----------------------------------------------------------------
                    Cartesian Multipole Moments
 -----------------------------------------------------------------
    Charge (ESU x 10^10)
                 0.0000
    Dipole Moment (Debye)
         X      -0.0027      Y       0.0000      Z       1.1347
       Tot       1.1347
    Quadrupole Moments (Debye-Ang)
        XX     -21.5750     XY       0.0000     YY     -19.0714
        XZ      -0.0027     YZ       0.0000     ZZ     -20.6808
    Octapole Moments (Debye-Ang^2)
       XXX      -0.0187    XXY       0.0000    XYY      -0.0057
       YYY       0.0000    XXZ     -27.1231    XYZ       0.0000
       YYZ     -23.5726    XZZ      -0.0107    YZZ       0.0000
       ZZZ     -78.9846
    Hexadecapole Moments (Debye-Ang^3)
      XXXX     -80.7425   XXXY       0.0000   XXYY     -15.7620
      XYYY       0.0000   YYYY     -13.8380   XXXZ      -0.0043
      XXYZ       0.0000   XYYZ      -0.0010   YYYZ       0.0000
      XXZZ     -63.7769   XYZZ       0.0000   YYZZ     -47.1735
      XZZZ      -0.0147   YZZZ       0.0000   ZZZZ    -291.0423
 -----------------------------------------------------------------
 Calculating analytic gradient of the SCF energy
 Gradient of AOints
            1           2           3           4
    1  -0.0163152   0.0140461 -15.5098455  15.5121146
    2  -0.0000001   0.0000003  -0.0000001  -0.0000001
    3  21.5710187  -2.9719427  -9.2988374  -9.3002385
 Gradient of XC Energy
            1           2           3           4
    1   0.0004837  -0.0004502   0.2561085  -0.2561420
    2   0.0000000  -0.0000000   0.0000000   0.0000000
    3  -0.4690050   0.1317924   0.1685218   0.1686908
 Gradient of SCF Energy
            1           2           3           4
    1   0.0002128  -0.0001976   0.0001955  -0.0002107
    2   0.0000000  -0.0000000   0.0000000   0.0000000
    3   0.0001695   0.0000761  -0.0002462   0.0000006
 Max gradient component =       2.462E-04
 RMS gradient           =       1.478E-04
 Gradient time:  CPU 39.74 s  wall 39.99 s
 Writing REM_CC_EA            4
 ----------------------------------------------------
       Standard Nuclear Orientation (Angstroms)
    I     Atom         X            Y            Z
 ----------------------------------------------------
    1      O      -0.001000     0.000000     0.022523
    2      C       0.000000     0.000000     1.182915
    3      F       1.050097     0.000000     1.946414
    4      F      -1.050097     0.000000     1.946414
 ----------------------------------------------------
 Nuclear Repulsion Energy =   121.0845062023 hartrees
 There are       16 alpha and       16 beta electrons

                       Distance Matrix (Angstroms)
             O (  1)   C (  2)   F (  3)
   C (  2)  1.160393
   F (  3)  2.192296  1.298320
   F (  4)  2.191337  1.298320  2.100194
 
 Requested basis set is G3large
 There are 40 shells and 168 basis functions
 A cutoff of  1.0D-11 yielded    744 shell pairs
 There are  13571 function pairs ( 17837 Cartesian)
Evaluating contribution to one-electron hamiltonian from nuclear
 Smallest overlap matrix eigenvalue = 7.49E-04
 Multipole matrices computed through 2nd order
 Guess MOs from SCF MO coefficient file
Reading MOs from coefficient file
Reading MOs from coefficient file
 A restricted hybrid HF-DFT SCF calculation will be
 performed using Pulay DIIS extrapolation
 Exchange:     1.0000 Hartree-Fock + 1.0000 BNL
 Correlation:  1.0000 LYP
 Using SG-1 standard quadrature grid
 SCF converges when DIIS error is below 1.0E-08
 ---------------------------------------
  Cycle       Energy         DIIS Error
 ---------------------------------------
    1    -310.5552535655      5.81E-05
    2    -310.5552559047      5.61E-06
    3    -310.5552560072      3.95E-06
    4    -310.5552560340      1.36E-06
    5    -310.5552560387      1.33E-07
    6    -310.5552560399      2.11E-08
    7    -310.5552560394      1.00E-08
    8    -310.5552560399      6.57E-09 Convergence criterion met
 ---------------------------------------
 One-Electron    Energy =  -672.0658048763
 Total Coulomb   Energy =   272.6776604797
 Alpha Exchange  Energy =    -3.8836451447
 Beta  Exchange  Energy =    -3.8836451447
 DFT   Exchange  Energy =   -23.2917349603
 DFT Correlation Energy =    -1.1925925960
 Nuclear Repu.   Energy =   121.0845062023
 Nuclear Attr.   Energy =  -981.6706028840
 Kinetic         Energy =   309.6047980076
 SCF time:  CPU 46.35 s  wall 46.95 s
 Final Alpha MO Eigenvalues
            1           2           3           4           5           6
    1 -24.4031440 -24.4029854 -18.8848343 -10.3015837  -1.5161110  -1.4311646
            7           8           9          10          11          12
    1  -1.2875306  -0.8654507  -0.8010891  -0.7628904  -0.7179654  -0.6474555
           13          14          15          16          17          18
    1  -0.6368859  -0.6251945  -0.5566144  -0.5128473   0.0462057   0.0811244
           19          20          21
    1   0.0861060   0.0908136   0.0908661
 Analysis of SCF Wavefunction
 
 --------------------------------------------------------------
                    Orbital Energies (a.u.)
 --------------------------------------------------------------
 
 Alpha MOs
 -- Occupied --
-24.403 -24.403 -18.885 -10.302  -1.516  -1.431  -1.288  -0.865
 -0.801  -0.763  -0.718  -0.647  -0.637  -0.625  -0.557  -0.513
 -- Virtual --
  0.046   0.081   0.086   0.091   0.091   0.223   0.235   0.264
  0.264   0.276   0.294   0.343   0.344   0.345   0.366   0.367
  0.397   0.404   0.463   0.612   0.634   0.716   0.759   0.806
  0.818   0.895   1.054   1.117   1.137   1.148   1.281   1.350
  1.364   1.366   1.419   1.472   1.474   1.520   1.675   1.681
  1.796   1.864   1.880   2.006   2.019   2.053   2.157   2.238
  2.282   2.462   2.523   2.541   2.623   2.749   2.809   2.885
  3.017   3.030   3.150   3.216   3.220   3.489   3.534   3.552
  3.591   3.668   3.676   3.807   3.990   4.261   4.269   5.038
  5.158   5.166   5.175   5.413   5.542   5.651   6.178   6.214
  6.237   6.249   6.331   6.473   6.567   6.673   6.679   6.694
  6.695   6.700   6.802   6.803   6.887   6.908   6.963   7.124
  7.125   7.149   7.258   7.277   7.359   7.437   7.620   7.728
  7.766   8.433   9.109   9.181   9.186   9.206   9.539   9.568
  9.652   9.881   9.934  10.135  24.979  27.243  27.922  28.269
 40.755  40.914  40.999  41.094  41.298  43.672  43.740  43.839
 43.928  43.939  45.829  45.987  46.706  50.023  50.037  50.052
 50.078  50.154  50.212  50.225  50.267  50.308  50.404  50.469
 55.676  55.687  55.705  55.803  56.166  56.316  66.886  66.939
 --------------------------------------------------------------
 
          Ground-State Mulliken Net Atomic Charges

     Atom                 Charge (a.u.)
  ----------------------------------------
      1 O                    -0.300764
      2 C                     0.553147
      3 F                    -0.126150
      4 F                    -0.126232
  ----------------------------------------
  Sum of atomic charges =     0.000000

 -----------------------------------------------------------------
                    Cartesian Multipole Moments
 -----------------------------------------------------------------
    Charge (ESU x 10^10)
                 0.0000
    Dipole Moment (Debye)
         X       0.0027      Y       0.0000      Z       1.1347
       Tot       1.1347
    Quadrupole Moments (Debye-Ang)
        XX     -21.5750     XY       0.0000     YY     -19.0714
        XZ       0.0027     YZ       0.0000     ZZ     -20.6808
    Octapole Moments (Debye-Ang^2)
       XXX       0.0186    XXY       0.0000    XYY       0.0057
       YYY       0.0000    XXZ     -27.1231    XYZ       0.0000
       YYZ     -23.5726    XZZ       0.0107    YZZ       0.0000
       ZZZ     -78.9846
    Hexadecapole Moments (Debye-Ang^3)
      XXXX     -80.7425   XXXY       0.0000   XXYY     -15.7620
      XYYY       0.0000   YYYY     -13.8380   XXXZ       0.0043
      XXYZ       0.0000   XYYZ       0.0010   YYYZ       0.0000
      XXZZ     -63.7769   XYZZ       0.0000   YYZZ     -47.1735
      XZZZ       0.0147   YZZZ       0.0000   ZZZZ    -291.0423
 -----------------------------------------------------------------
 Calculating analytic gradient of the SCF energy
 Gradient of AOints
            1           2           3           4
    1   0.0163147  -0.0140456 -15.5121147  15.5098455
    2  -0.0000001   0.0000003  -0.0000001  -0.0000001
    3  21.5710186  -2.9719433  -9.3002378  -9.2988375
 Gradient of XC Energy
            1           2           3           4
    1  -0.0004837   0.0004502   0.2561420  -0.2561085
    2   0.0000000  -0.0000000   0.0000000   0.0000000
    3  -0.4690050   0.1317925   0.1686908   0.1685218
 Gradient of SCF Energy
            1           2           3           4
    1  -0.0002128   0.0001976   0.0002107  -0.0001954
    2   0.0000000  -0.0000000   0.0000000   0.0000000
    3   0.0001695   0.0000762   0.0000006  -0.0002462
 Max gradient component =       2.462E-04
 RMS gradient           =       1.478E-04
 Gradient time:  CPU 38.17 s  wall 38.41 s
 Writing REM_CC_EA            4
 ----------------------------------------------------
       Standard Nuclear Orientation (Angstroms)
    I     Atom         X            Y            Z
 ----------------------------------------------------
    1      O       0.000000     0.001000     0.022523
    2      C       0.000000     0.000000     1.182915
    3      F       1.050097     0.000000     1.946414
    4      F      -1.050097     0.000000     1.946414
 ----------------------------------------------------
 Nuclear Repulsion Energy =   121.0845037105 hartrees
 There are       16 alpha and       16 beta electrons

                       Distance Matrix (Angstroms)
             O (  1)   C (  2)   F (  3)
   C (  2)  1.160393
   F (  3)  2.191816  1.298320
   F (  4)  2.191816  1.298320  2.100194
 
 Requested basis set is G3large
 There are 40 shells and 168 basis functions
 A cutoff of  1.0D-11 yielded    744 shell pairs
 There are  13571 function pairs ( 17837 Cartesian)
Evaluating contribution to one-electron hamiltonian from nuclear
 Smallest overlap matrix eigenvalue = 7.49E-04
 Multipole matrices computed through 2nd order
 Guess MOs from SCF MO coefficient file
Reading MOs from coefficient file
Reading MOs from coefficient file
 A restricted hybrid HF-DFT SCF calculation will be
 performed using Pulay DIIS extrapolation
 Exchange:     1.0000 Hartree-Fock + 1.0000 BNL
 Correlation:  1.0000 LYP
 Using SG-1 standard quadrature grid
 SCF converges when DIIS error is below 1.0E-08
 ---------------------------------------
  Cycle       Energy         DIIS Error
 ---------------------------------------
    1    -310.5552545343      4.11E-05
    2    -310.5552560841      3.84E-06
    3    -310.5552561579      2.19E-06
    4    -310.5552561456      1.13E-06
    5    -310.5552561721      1.93E-07
    6    -310.5552561731      4.10E-08
    7    -310.5552561727      1.04E-08
    8    -310.5552561732      7.51E-09 Convergence criterion met
 ---------------------------------------
 One-Electron    Energy =  -672.0657997685
 Total Coulomb   Energy =   272.6776577030
 Alpha Exchange  Energy =    -3.8836451465
 Beta  Exchange  Energy =    -3.8836451465
 DFT   Exchange  Energy =   -23.2917349333
 DFT Correlation Energy =    -1.1925925919
 Nuclear Repu.   Energy =   121.0845037105
 Nuclear Attr.   Energy =  -981.6705974707
 Kinetic         Energy =   309.6047977022
 SCF time:  CPU 46.70 s  wall 47.32 s
 Final Alpha MO Eigenvalues
            1           2           3           4           5           6
    1 -24.4030694 -24.4030601 -18.8848343 -10.3015837  -1.5161110  -1.4311646
            7           8           9          10          11          12
    1  -1.2875306  -0.8654507  -0.8010891  -0.7628903  -0.7179654  -0.6474555
           13          14          15          16          17          18
    1  -0.6368859  -0.6251946  -0.5566144  -0.5128474   0.0462056   0.0811244
           19          20          21
    1   0.0861060   0.0908136   0.0908660
 Analysis of SCF Wavefunction
 
 --------------------------------------------------------------
                    Orbital Energies (a.u.)
 --------------------------------------------------------------
 
 Alpha MOs
 -- Occupied --
-24.403 -24.403 -18.885 -10.302  -1.516  -1.431  -1.288  -0.865
 -0.801  -0.763  -0.718  -0.647  -0.637  -0.625  -0.557  -0.513
 -- Virtual --
  0.046   0.081   0.086   0.091   0.091   0.223   0.235   0.264
  0.264   0.276   0.294   0.343   0.344   0.345   0.366   0.367
  0.397   0.404   0.463   0.612   0.634   0.716   0.759   0.806
  0.818   0.895   1.054   1.117   1.137   1.148   1.281   1.350
  1.364   1.366   1.419   1.473   1.474   1.520   1.675   1.681
  1.796   1.864   1.880   2.006   2.019   2.053   2.157   2.238
  2.282   2.462   2.523   2.541   2.623   2.749   2.809   2.885
  3.017   3.030   3.150   3.216   3.220   3.489   3.534   3.552
  3.591   3.668   3.676   3.807   3.990   4.261   4.269   5.038
  5.158   5.166   5.175   5.413   5.542   5.651   6.178   6.214
  6.237   6.249   6.331   6.473   6.567   6.673   6.679   6.694
  6.695   6.700   6.802   6.803   6.887   6.908   6.963   7.124
  7.125   7.149   7.258   7.277   7.359   7.437   7.620   7.728
  7.766   8.433   9.109   9.181   9.186   9.206   9.539   9.568
  9.652   9.881   9.934  10.135  24.979  27.243  27.922  28.269
 40.755  40.914  40.999  41.094  41.298  43.672  43.740  43.839
 43.928  43.939  45.829  45.987  46.706  50.023  50.037  50.052
 50.078  50.154  50.212  50.225  50.267  50.308  50.404  50.469
 55.676  55.687  55.705  55.803  56.166  56.316  66.886  66.939
 --------------------------------------------------------------
 
          Ground-State Mulliken Net Atomic Charges

     Atom                 Charge (a.u.)
  ----------------------------------------
      1 O                    -0.300764
      2 C                     0.553147
      3 F                    -0.126191
      4 F                    -0.126191
  ----------------------------------------
  Sum of atomic charges =     0.000000

 -----------------------------------------------------------------
                    Cartesian Multipole Moments
 -----------------------------------------------------------------
    Charge (ESU x 10^10)
                 0.0000
    Dipole Moment (Debye)
         X       0.0000      Y      -0.0019      Z       1.1347
       Tot       1.1347
    Quadrupole Moments (Debye-Ang)
        XX     -21.5750     XY       0.0000     YY     -19.0714
        XZ       0.0000     YZ       0.0002     ZZ     -20.6808
    Octapole Moments (Debye-Ang^2)
       XXX       0.0000    XXY      -0.0054    XYY       0.0000
       YYY      -0.0162    XXZ     -27.1231    XYZ       0.0000
       YYZ     -23.5726    XZZ       0.0000    YZZ      -0.0042
       ZZZ     -78.9846
    Hexadecapole Moments (Debye-Ang^3)
      XXXX     -80.7425   XXXY       0.0000   XXYY     -15.7620
      XYYY       0.0000   YYYY     -13.8381   XXXZ       0.0000
      XXYZ       0.0010   XYYZ       0.0000   YYYZ       0.0002
      XXZZ     -63.7769   XYZZ       0.0000   YYZZ     -47.1735
[...]
  ----------------------------------------
      1 O                    -0.300465
      2 C                     0.553069
      3 F                    -0.126103
      4 F                    -0.126501
  ----------------------------------------
  Sum of atomic charges =     0.000000

 -----------------------------------------------------------------
                    Cartesian Multipole Moments
 -----------------------------------------------------------------
    Charge (ESU x 10^10)
                 0.0000
    Dipole Moment (Debye)
         X       0.0018      Y       0.0000      Z       1.1316
       Tot       1.1316
    Quadrupole Moments (Debye-Ang)
        XX     -21.5768     XY       0.0000     YY     -19.0720
        XZ       0.0036     YZ       0.0000     ZZ     -20.6881
    Octapole Moments (Debye-Ang^2)
       XXX       0.0052    XXY       0.0000    XYY       0.0014
       YYY       0.0000    XXZ     -27.1328    XYZ       0.0000
       YYZ     -23.5797    XZZ       0.0089    YZZ       0.0000
       ZZZ     -79.0189
    Hexadecapole Moments (Debye-Ang^3)
      XXXX     -80.7508   XXXY       0.0000   XXYY     -15.7632
      XYYY       0.0000   YYYY     -13.8389   XXXZ       0.0243
      XXYZ       0.0000   XYYZ       0.0075   YYYZ       0.0000
      XXZZ     -63.8048   XYZZ       0.0000   YYZZ     -47.1967
      XZZZ       0.0363   YZZZ       0.0000   ZZZZ    -291.2037
 -----------------------------------------------------------------
 Calculating analytic gradient of the SCF energy
 Gradient of AOints
            1           2           3           4
    1   0.0006146   0.0092036 -15.5101802  15.5003619
    2  -0.0000001   0.0000000  -0.0000000   0.0000001
    3  21.5715541  -2.9676254  -9.2978480  -9.3060807
 Gradient of XC Energy
            1           2           3           4
    1   0.0000458  -0.0003843   0.2561163  -0.2557778
    2   0.0000000  -0.0000000   0.0000000  -0.0000000
    3  -0.4690827   0.1317418   0.1686276   0.1687133
 Gradient of SCF Energy
            1           2           3           4
    1   0.0001232   0.0002415   0.0001841  -0.0005488
    2   0.0000000  -0.0000000  -0.0000000   0.0000000
    3   0.0000282  -0.0002585  -0.0000847   0.0003150
 Max gradient component =       5.488E-04
 RMS gradient           =       2.203E-04
 Gradient time:  CPU 39.89 s  wall 40.15 s
 Writing REM_CC_EA            4
 ----------------------------------------------------
       Standard Nuclear Orientation (Angstroms)
    I     Atom         X            Y            Z
 ----------------------------------------------------
    1      O       0.000000     0.000000     0.022523
    2      C       0.000000     0.000000     1.182915
    3      F       1.050097     0.000000     1.946414
    4      F      -1.050097     0.000000     1.945414
 ----------------------------------------------------
 Nuclear Repulsion Energy =   121.1014463872 hartrees
 There are       16 alpha and       16 beta electrons

                       Distance Matrix (Angstroms)
             O (  1)   C (  2)   F (  3)
   C (  2)  1.160392
   F (  3)  2.191816  1.298320
   F (  4)  2.190939  1.297732  2.100195
 
 Requested basis set is G3large
 There are 40 shells and 168 basis functions
 A cutoff of  1.0D-11 yielded    744 shell pairs
 There are  13571 function pairs ( 17837 Cartesian)
Evaluating contribution to one-electron hamiltonian from nuclear
 Smallest overlap matrix eigenvalue = 7.49E-04
 Multipole matrices computed through 2nd order
 Guess MOs from SCF MO coefficient file
Reading MOs from coefficient file
Reading MOs from coefficient file
 A restricted hybrid HF-DFT SCF calculation will be
 performed using Pulay DIIS extrapolation
 Exchange:     1.0000 Hartree-Fock + 1.0000 BNL
 Correlation:  1.0000 LYP
 Using SG-1 standard quadrature grid
 SCF converges when DIIS error is below 1.0E-08
 ---------------------------------------
  Cycle       Energy         DIIS Error
 ---------------------------------------
    1    -310.5557865181      4.95E-05
    2    -310.5552552387      1.21E-05
    3    -310.5552552793      1.24E-05
    4    -310.5552555552      1.37E-06
    5    -310.5552555552      4.36E-07
    6    -310.5552555277      2.83E-07
    7    -310.5552555511      4.39E-08
    8    -310.5552555556      8.29E-09 Convergence criterion met
 ---------------------------------------
 One-Electron    Energy =  -672.0986538044
 Total Coulomb   Energy =   272.6939769771
 Alpha Exchange  Energy =    -3.8836749095
 Beta  Exchange  Energy =    -3.8836749095
 DFT   Exchange  Energy =   -23.2920620793
 DFT Correlation Energy =    -1.1926132173
 Nuclear Repu.   Energy =   121.1014463872
 Nuclear Attr.   Energy =  -981.7050157484
 Kinetic         Energy =   309.6063619440
 SCF time:  CPU 47.84 s  wall 48.44 s
 Final Alpha MO Eigenvalues
            1           2           3           4           5           6
    1 -24.4031781 -24.4030552 -18.8846975 -10.3015183  -1.5162770  -1.4313333
            7           8           9          10          11          12
    1  -1.2874378  -0.8655149  -0.8012021  -0.7630023  -0.7179981  -0.6475434
           13          14          15          16          17          18
    1  -0.6368211  -0.6253047  -0.5565284  -0.5127412   0.0462125   0.0812009
           19          20          21
    1   0.0861172   0.0908135   0.0908627
 Analysis of SCF Wavefunction
 
 --------------------------------------------------------------
                    Orbital Energies (a.u.)
 --------------------------------------------------------------
 
 Alpha MOs
 -- Occupied --
-24.403 -24.403 -18.885 -10.302  -1.516  -1.431  -1.287  -0.866
 -0.801  -0.763  -0.718  -0.648  -0.637  -0.625  -0.557  -0.513
 -- Virtual --
  0.046   0.081   0.086   0.091   0.091   0.223   0.235   0.264
  0.264   0.276   0.293   0.343   0.344   0.345   0.366   0.367
  0.397   0.404   0.463   0.612   0.634   0.716   0.759   0.806
  0.818   0.895   1.054   1.118   1.137   1.148   1.281   1.350
  1.364   1.366   1.419   1.473   1.474   1.520   1.675   1.681
  1.796   1.864   1.880   2.006   2.020   2.053   2.157   2.238
  2.282   2.462   2.523   2.541   2.623   2.749   2.809   2.885
  3.018   3.030   3.150   3.216   3.220   3.489   3.535   3.552
  3.591   3.668   3.676   3.808   3.991   4.261   4.269   5.039
  5.158   5.167   5.175   5.414   5.542   5.651   6.178   6.214
  6.237   6.249   6.331   6.473   6.567   6.673   6.679   6.694
  6.695   6.700   6.802   6.803   6.887   6.908   6.964   7.124
  7.126   7.150   7.258   7.277   7.360   7.438   7.621   7.729
  7.766   8.434   9.109   9.181   9.186   9.206   9.539   9.568
  9.652   9.881   9.935  10.135  24.981  27.243  27.923  28.269
 40.755  40.914  40.999  41.094  41.299  43.673  43.740  43.839
 43.929  43.939  45.829  45.987  46.706  50.023  50.037  50.052
 50.078  50.155  50.212  50.225  50.267  50.308  50.404  50.470
 55.676  55.687  55.705  55.803  56.166  56.316  66.886  66.940
 --------------------------------------------------------------
 
          Ground-State Mulliken Net Atomic Charges

     Atom                 Charge (a.u.)
  ----------------------------------------
      1 O                    -0.301063
      2 C                     0.553224
      3 F                    -0.126279
      4 F                    -0.125882
  ----------------------------------------
  Sum of atomic charges =     0.000000

 -----------------------------------------------------------------
                    Cartesian Multipole Moments
 -----------------------------------------------------------------
    Charge (ESU x 10^10)
                 0.0000
    Dipole Moment (Debye)
         X      -0.0018      Y       0.0000      Z       1.1379
       Tot       1.1379
    Quadrupole Moments (Debye-Ang)
        XX     -21.5732     XY       0.0000     YY     -19.0707
        XZ      -0.0036     YZ       0.0000     ZZ     -20.6736
    Octapole Moments (Debye-Ang^2)
       XXX      -0.0052    XXY       0.0000    XYY      -0.0014
       YYY       0.0000    XXZ     -27.1134    XYZ       0.0000
       YYZ     -23.5654    XZZ      -0.0089    YZZ       0.0000
       ZZZ     -78.9504
    Hexadecapole Moments (Debye-Ang^3)
      XXXX     -80.7341   XXXY       0.0000   XXYY     -15.7607
      XYYY       0.0000   YYYY     -13.8372   XXXZ      -0.0243
      XXYZ       0.0000   XYYZ      -0.0075   YYYZ       0.0000
      XXZZ     -63.7489   XYZZ       0.0000   YYZZ     -47.1504
      XZZZ      -0.0363   YZZZ       0.0000   ZZZZ    -290.8810
 -----------------------------------------------------------------
 Calculating analytic gradient of the SCF energy
 Gradient of AOints
            1           2           3           4
    1  -0.0006074  -0.0092027 -15.5117826  15.5215927
    2  -0.0000001   0.0000003  -0.0000001  -0.0000001
    3  21.5705040  -2.9763031  -9.3012324  -9.2929685
 Gradient of XC Energy
            1           2           3           4
    1  -0.0000460   0.0003844   0.2561343  -0.2564727
    2   0.0000000  -0.0000000   0.0000000   0.0000000
    3  -0.4689281   0.1318447   0.1685851   0.1684983
 Gradient of SCF Energy
            1           2           3           4
    1  -0.0001236  -0.0002430   0.0002221   0.0001444
    2   0.0000000  -0.0000000   0.0000000   0.0000000
    3   0.0003122   0.0004104  -0.0001609  -0.0005617
 Max gradient component =       5.617E-04
 RMS gradient           =       2.503E-04
 Gradient time:  CPU 38.05 s  wall 38.31 s
Dipole drv :
gprntSymmMtrx error report: 
 Final Hessian.
            1           2           3           4           5           6
    1   0.1126305  -0.0000015   0.0000042  -0.1045772   0.0000005  -0.0000114
    2  -0.0000015   0.0394338  -0.0000019   0.0000016  -0.0992195   0.0000019
    3   0.0000042  -0.0000019   1.1050520  -0.0000016   0.0000019  -0.9547544
    4  -0.1045772   0.0000016  -0.0000016   0.6148981   0.0000003   0.0000045
    5   0.0000005  -0.0992195   0.0000019   0.0000003   0.2477379  -0.0000098
    6  -0.0000114   0.0000019  -0.9547544   0.0000045  -0.0000098   1.3087007
    7  -0.0040223   0.0000001  -0.0498791  -0.2551628   0.0000025  -0.1234979
    8   0.0000011   0.0298936  -0.0000026  -0.0000082  -0.0742571   0.0000057
    9  -0.0653045   0.0000008  -0.0751498  -0.1281741   0.0000032  -0.1769759
   10  -0.0040290  -0.0000002   0.0498835  -0.2551561  -0.0000034   0.1234911
   11  -0.0000003   0.0298937  -0.0000009   0.0000023  -0.0742573   0.0000083
   12   0.0653118  -0.0000003  -0.0751499   0.1281712   0.0000040  -0.1769757
            7           8           9          10          11          12
    1  -0.0040223   0.0000011  -0.0653045  -0.0040290  -0.0000003   0.0653118
    2   0.0000001   0.0298936   0.0000008  -0.0000002   0.0298937  -0.0000003
    3  -0.0498791  -0.0000026  -0.0751498   0.0498835  -0.0000009  -0.0751499
    4  -0.2551628  -0.0000082  -0.1281741  -0.2551561   0.0000023   0.1281712
    5   0.0000025  -0.0742571   0.0000032  -0.0000034  -0.0742573   0.0000040
    6  -0.1234979   0.0000057  -0.1769759   0.1234911   0.0000083  -0.1769757
    7   0.3652861   0.0000008   0.1834289  -0.1061015  -0.0000019  -0.0100505
    8   0.0000008   0.0216681   0.0000004   0.0000062   0.0226926  -0.0000034
    9   0.1834289   0.0000004   0.2319707   0.0100506  -0.0000046   0.0201586
   10  -0.1061015   0.0000062   0.0100506   0.3652830  -0.0000001  -0.1834266
   11  -0.0000019   0.0226926  -0.0000046  -0.0000001   0.0216682  -0.0000026
   12  -0.0100505  -0.0000034   0.0201586  -0.1834266  -0.0000026   0.2319705
 Writing REM_CC_EA            4
 ----------------------------------------------------
       Standard Nuclear Orientation (Angstroms)
    I     Atom         X            Y            Z
 ----------------------------------------------------
    1      O       0.000000     0.000000     0.022523
    2      C       0.000000     0.000000     1.182915
    3      F       1.050097     0.000000     1.946414
    4      F      -1.050097     0.000000     1.946414
 ----------------------------------------------------
 Nuclear Repulsion Energy =   121.0845154574 hartrees
 There are       16 alpha and       16 beta electrons
 old dipole drv.
            1           2           3           4           5           6
    1  -0.5612112   0.0000021   0.0000003   2.1430662  -0.0000030  -0.0000001
    2  -0.0000003  -0.3880932  -0.0000001   0.0000001   0.6684950  -0.0000019
    3   0.0000907  -0.0000241  -1.1422417  -0.0000505   0.0000872   2.4567565
            7           8           9          10          11          12
    1  -0.7909256   0.0000507  -0.3773150  -0.7909349  -0.0000162   0.3773146
    2  -0.0000005  -0.1401951   0.0000021   0.0000007  -0.1401978   0.0000013
    3  -0.4298233  -0.0000569  -0.6572660   0.4298391  -0.0000453  -0.6572662
 New transposed dipole drv.
            1           2           3
    1  -0.5612112  -0.0000003   0.0000907
    2   0.0000021  -0.3880932  -0.0000241
    3   0.0000003  -0.0000001  -1.1422417
    4   2.1430662   0.0000001  -0.0000505
    5  -0.0000030   0.6684950   0.0000872
    6  -0.0000001  -0.0000019   2.4567565
    7  -0.7909256  -0.0000005  -0.4298233
    8   0.0000507  -0.1401951  -0.0000569
    9  -0.3773150   0.0000021  -0.6572660
   10  -0.7909349   0.0000007   0.4298391
   11  -0.0000162  -0.1401978  -0.0000453
   12   0.3773146   0.0000013  -0.6572662
FINAL TENSOR RESULT:
Order 2, Length 12
Order 1, Length 12
   0.1126305  -0.0000015   0.0000042  -0.1045772   0.0000005  -0.0000114  -0.0040223   0.0000011  -0.0653045  -0.0040290  -0.0000003   0.0653118
Order 1, Length 12
  -0.0000015   0.0394338  -0.0000019   0.0000016  -0.0992195   0.0000019   0.0000001   0.0298936   0.0000008  -0.0000002   0.0298937  -0.0000003
Order 1, Length 12
   0.0000042  -0.0000019   1.1050520  -0.0000016   0.0000019  -0.9547544  -0.0498791  -0.0000026  -0.0751498   0.0498835  -0.0000009  -0.0751499
Order 1, Length 12
  -0.1045772   0.0000016  -0.0000016   0.6148981   0.0000003   0.0000045  -0.2551628  -0.0000082  -0.1281741  -0.2551561   0.0000023   0.1281712
Order 1, Length 12
   0.0000005  -0.0992195   0.0000019   0.0000003   0.2477379  -0.0000098   0.0000025  -0.0742571   0.0000032  -0.0000034  -0.0742573   0.0000040
Order 1, Length 12
  -0.0000114   0.0000019  -0.9547544   0.0000045  -0.0000098   1.3087007  -0.1234979   0.0000057  -0.1769759   0.1234911   0.0000083  -0.1769757
Order 1, Length 12
  -0.0040223   0.0000001  -0.0498791  -0.2551628   0.0000025  -0.1234979   0.3652861   0.0000008   0.1834289  -0.1061015  -0.0000019  -0.0100505
Order 1, Length 12
   0.0000011   0.0298936  -0.0000026  -0.0000082  -0.0742571   0.0000057   0.0000008   0.0216681   0.0000004   0.0000062   0.0226926  -0.0000034
Order 1, Length 12
  -0.0653045   0.0000008  -0.0751498  -0.1281741   0.0000032  -0.1769759   0.1834289   0.0000004   0.2319707   0.0100506  -0.0000046   0.0201586
Order 1, Length 12
  -0.0040290  -0.0000002   0.0498835  -0.2551561  -0.0000034   0.1234911  -0.1061015   0.0000062   0.0100506   0.3652830  -0.0000001  -0.1834266
Order 1, Length 12
  -0.0000003   0.0298937  -0.0000009   0.0000023  -0.0742573   0.0000083  -0.0000019   0.0226926  -0.0000046  -0.0000001   0.0216682  -0.0000026
Order 1, Length 12
   0.0653118  -0.0000003  -0.0751499   0.1281712   0.0000040  -0.1769757  -0.0100505  -0.0000034   0.0201586  -0.1834266  -0.0000026   0.2319705


 # Finishing finite difference calculation for IDERIV #
 ######################################################
 ######################################################
 Requested basis set is G3large
 There are 40 shells and 168 basis functions
 **********************************************************************
 **                                                                  **
 **                       VIBRATIONAL ANALYSIS                       **
 **                       --------------------                       **
 **                                                                  **
 **        VIBRATIONAL FREQUENCIES (CM**-1) AND NORMAL MODES         **
 **     FORCE CONSTANTS (mDYN/ANGSTROM) AND REDUCED MASSES (AMU)     **
 **                  INFRARED INTENSITIES (KM/MOL)                   **
 **                                                                  **
 **********************************************************************
 

 Mode:                 1                      2                      3
 Frequency:       599.15                 643.62                 820.42
 Force Cnst:      3.7285                 4.1389                 5.0532
 Red. Mass:      17.6281                16.9580                12.7423
 IR Active:          YES                    YES                    YES
 IR Intens:        6.421                 10.929                 46.219
 Raman Active:       YES                    YES                    YES
               X      Y      Z        X      Y      Z        X      Y      Z
 O          0.000  0.000 -0.397    0.667  0.000  0.000    0.000 -0.276  0.000
 C          0.000  0.000 -0.358   -0.317  0.000  0.000    0.000  0.928  0.000
 F         -0.528  0.000  0.280   -0.180  0.000 -0.441    0.000 -0.177  0.000
 F          0.528  0.000  0.280   -0.180  0.000  0.441    0.000 -0.177  0.000
 TransDip   0.000  0.000 -0.081   -0.106  0.000  0.000    0.000  0.218  0.000

 Mode:                 4                      5                      6
 Frequency:      1038.06                1334.95                2068.15
 Force Cnst:     10.9612                13.9033                33.2191
 Red. Mass:      17.2647                13.2414                13.1818
 IR Active:          YES                    YES                    YES
 IR Intens:       63.439                459.662                563.450
 Raman Active:       YES                    YES                    YES
               X      Y      Z        X      Y      Z        X      Y      Z
 O          0.000  0.000  0.537   -0.075  0.000  0.000    0.000  0.000 -0.535
 C          0.000  0.000  0.352    0.906  0.000  0.000    0.000  0.000  0.842
 F         -0.424  0.000 -0.337   -0.254  0.000 -0.150   -0.032  0.000 -0.040
 F          0.424  0.000 -0.337   -0.254  0.000  0.150    0.032  0.000 -0.040
 TransDip   0.000  0.000  0.255    0.687  0.000  0.000    0.000  0.000  0.760

 STANDARD THERMODYNAMIC QUANTITIES AT   298.18 K  AND     1.00 ATM

   This Molecule has  0 Imaginary Frequencies
   Zero point vibrational energy:        9.298 kcal/mol

   Atom    1 Element O  Has Mass   15.99491
   Atom    2 Element C  Has Mass   12.00000
   Atom    3 Element F  Has Mass   18.99840
   Atom    4 Element F  Has Mass   18.99840
   Molecular Mass:    65.991710 amu
   Principal axes and moments of inertia in atomic units:
                             1           2           3
    Eigenvalues --      149.62486   150.09877   299.72362
          X               0.00000     1.00000     0.00000
          Y               0.00000     0.00000     1.00000
          Z               1.00000     0.00000     0.00000
   Rotational Symmetry Number is   1
   The Molecule is an Asymmetric Top
   Translational Enthalpy:        0.889 kcal/mol
   Rotational Enthalpy:           0.889 kcal/mol
   Vibrational Enthalpy:          9.557 kcal/mol
   gas constant (RT):             0.593 kcal/mol
   Translational Entropy:        38.479  cal/mol.K
   Rotational Entropy:           23.425  cal/mol.K
   Vibrational Entropy:           1.128  cal/mol.K

   Total Enthalpy:               11.928 kcal/mol
   Total Entropy:                63.032  cal/mol.K
 Total job time:  2389.93s(wall), 2371.81s(cpu) 
 Sat Apr 23 00:39:49 2011

        *************************************************************
        *                                                           *
        *  Thank you very much for using Q-Chem.  Have a nice day.  *
        *                                                           *
        *************************************************************


0 sent ACK to 0 
now end server 0 ... 
