Process 0 of 1 is on cl064.stfx.acenet.ca - thread support 1
initial socket setup ...start
initial socket setup ...done 
now start server 0 ... 

cmd = /usr/bin/ssh clhead /usr/local/qchem/bin/get_hostid 1894668514 > /scratch/tmp/6065153.1.short.q/qchem3090/lic.dat
                  Welcome to Q-Chem
     A Quantum Leap Into The Future Of Chemistry

 Y. Shao, L. Fusti-Molnar, Y. Jung, J. Kussmann, C. Ochsenfeld,
 S. T. Brown, A. T. B. Gilbert, L. V. Slipchenko,S. V. Levchenko,
 D. P. O'Neill, R. A. DiStasio Jr., R. C. Lochan, T. Wang,
 G. J. O. Beran, N. A. Besley, J. M. Herbert, C. Y. Lin,
 T. Van Voorhis, S. H. Chien, A. Sodt, R. P. Steele, 
 V. A. Rassolov, P. E. Maslen, P. P. Korambath, R. D. Adamson,
 B. Austin, J. Baker, E. F. C. Byrd, H. Dachsel, R. J. Doerksen,
 A. Dreuw, B. D. Dunietz, A. D. Dutoi, T. R. Furlani,
 S. R. Gwaltney, A. Heyden, S. Hirata, C.-P. Hsu, G. Kedziora,
 R. Z. Khaliullin, P. Klunzinger, A. M. Lee, M. S. Lee, W. Liang,
 I. Lotan, N. Nair, B. Peters, E. I. Proynov, P. A. Pieniazek, 
 Y. M. Rhee, J. Ritchie, E. Rosta, C. D. Sherrill, 
 A. C. Simmonett, J. E. Subotnik, H. L. Woodcock III,
 W. Zhang, A. T. Bell, A. K. Chakraborty, D. M. Chipman,
 F. J. Keil, A. Warshel, W. J. Hehre, H. F. Schaefer III,
 J. Kong, A. I. Krylov, P. M. W. Gill, M. Head-Gordon,
 Q-Chem, Version 3.1, Q-Chem, Inc., Pittsburgh, PA (2007).

 Additional authors for Version 3.1: 
 Z. Gan, Y. Zhao, N. E. Schultz, D. Truhlar, E. Epifanovsky and M. Oana.

 Additional authors for Version 3.2: 
 R. Baer, B. R. Brooks, D. Casanova, J.-D. Chai, C.-L. Cheng, 
 C. Cramer, D. Crittenden, A. Ghysels, G. Hawkins, E. G. Hohenstein, 
 C. Kelley, W. Kurlancheek, D. Liotard, E. Livshits, P. Manohar, 
 A. Marenich, D. Neuhauser, R. Olson, M. A. Rohrdanz, K. S. Thanthiriwatte, 
 A. J. W. Thom, V. Vanovschi, C. F. Williams, Q. Wu and Z.-Q. You. 


 Intel X86 Linux Version

 Q-chem begins on Mon Jul  8 16:55:49 2013  

 Parallel job on  1  processors
Processing $rem in /usr/local/qchem/config/preferences.

theFileMan(): MAXOPENFILES=974 MAX_SUB_FILE_NUM=16
Maximum size of a physical file is 2.0 GB, maximum size of a tmp-file is 32.0 GB


--------------------------------------------------------------
User input:
--------------------------------------------------------------

$molecule
-1,2
O          0.01102        0.00000        0.02954
O          0.00996        0.00000        1.25840
O          1.09619        0.00000        1.83285
$end

$comment
negative
$end

$xc_functional
C PBE   1.00
X wPBE  1.00
$end

$rem
SYMMETRY_DECOMPOSITION	0
exchange 		general
LRC_DFT                 true
BASIS                   g3large
omega			350
mem_static              760
max_scf_cycles          200
scf_final_print         1
sym_ignore              true
$end

--------------------------------------------------------------
 Writing REM_CC_EA            3
 ----------------------------------------------------
       Standard Nuclear Orientation (Angstroms)
    I     Atom         X            Y            Z
 ----------------------------------------------------
    1      O       0.011020     0.000000     0.029540
    2      O       0.009960     0.000000     1.258400
    3      O       1.096190     0.000000     1.832850
 ----------------------------------------------------
 Nuclear Repulsion Energy =    71.2135568726 hartrees
 There are       13 alpha and       12 beta electrons
 Requested basis set is G3large
 There are 30 shells and 126 basis functions

Total QAlloc Memory Limit   2000 MB
Mega-Array Size       743 MB
MEM_STATIC part       760 MB

                       Distance Matrix (Angstroms)
             O (  1)   O (  2)
   O (  2)  1.228860
   O (  3)  2.104643  1.228775
 
 A cutoff of  1.0D-08 yielded    435 shell pairs
 There are   7848 function pairs ( 10313 Cartesian)
Evaluating contribution to one-electron hamiltonian from nuclear
 Smallest overlap matrix eigenvalue = 5.23E-04
 Multipole matrices computed through 2nd order

  Scale SEOQF with 1.000000e-01/1.000000e+00/1.000000e-01

 Standard Electronic Orientation quadrupole field applied
 Nucleus-field energy     =    -0.0000000039 hartrees
 Guess from superposition of atomic densities
 Warning:  Energy on first SCF cycle will be non-variational
 Long-range K will be added via erf
 Coulomb attenuation parameter = 0.35 bohr**(-1)
 An unrestricted Kohn-Sham SCF calculation will be
 performed using Pulay DIIS extrapolation
 Exchange:  wPBE + LR-HF      Correlation:  PBE
 Using SG-1 standard quadrature grid
 SCF converges when DIIS error is below 1.0E-05
 Requested basis set is G3large
 There are 30 shells and 126 basis functions
 A cutoff of  1.0D-08 yielded    435 shell pairs
 There are   7848 function pairs ( 10313 Cartesian)
 Warning!  Inaccurate integrated density:
   Number of electrons =    25
   Numerical integral  =    23.999877269493
   Relative error      =    -4.0004909220 %
 ---------------------------------------
  Cycle       Energy         DIIS Error
 ---------------------------------------
    1    -225.6704282418      3.84E-02
    2    -225.2729848915      9.16E-03
    3    -225.2749104253      1.04E-02
    4    -225.4039983669      1.28E-03
    5    -225.4059727603      4.47E-04
    6    -225.4063952880      2.52E-04
    7    -225.4065705380      1.16E-04
    8    -225.4066432527      3.80E-05
    9    -225.4066933319      2.13E-05
   10    -225.4067202100      7.13E-06 Convergence criterion met
 ---------------------------------------
 One-Electron    Energy =  -458.3734795833
 Total Coulomb   Energy =   187.5604332917
 Alpha Exchange  Energy =    -2.3834580970
 Beta  Exchange  Energy =    -2.1812550914
 DFT   Exchange  Energy =   -20.3917758365
 DFT Correlation Energy =    -0.8507417622
 Nuclear Repu.   Energy =    71.2135568688
 Nuclear Attr.   Energy =  -683.8487319962
 Kinetic         Energy =   225.4752524129
 <S^2> = 0.7524
 SCF time:  CPU 29.63 s  wall 29.90 s
 Final Alpha MO Eigenvalues
            1           2           3           4           5           6
    1 -18.8599953 -18.6947502 -18.6946917  -1.1680211  -0.8962414  -0.5656105
            7           8           9          10          11          12
    1  -0.4273729  -0.3965160  -0.3852250  -0.1875705  -0.1373007  -0.1262416
           13          14          15          16          17          18
    1  -0.0577201   0.3608320   0.3633396   0.3659231   0.4112254   0.4437270
 Final Beta MO Eigenvalues
            1           2           3           4           5           6
    1 -18.8472326 -18.6879110 -18.6878431  -1.1507414  -0.8833145  -0.5383825
            7           8           9          10          11          12
    1  -0.3863790  -0.3738152  -0.3723255  -0.1303534  -0.1232243  -0.1165865
           13          14          15          16          17
    1   0.2714815   0.3622820   0.3649748   0.3681533   0.4188841
 Analysis of SCF Wavefunction
 
 --------------------------------------------------------------
                    Orbital Energies (a.u.)
 --------------------------------------------------------------
 
 Alpha MOs
 -- Occupied --
-18.860 -18.695 -18.695  -1.168  -0.896  -0.566  -0.427  -0.397
 -0.385  -0.188  -0.137  -0.126  -0.058
 -- Virtual --
  0.361   0.363   0.366   0.411   0.444   0.456   0.462   0.479
  0.516   0.533   0.584   0.596   0.633   0.665   1.187   1.284
  1.286   1.309   1.321   1.344   1.376   1.382   1.430   1.528
  1.556   1.589   1.643   1.758   1.822   1.888   1.899   1.929
  1.967   2.298   2.464   2.542   2.661   2.684   2.720   2.882
  2.948   4.633   4.726   4.764   4.830   4.835   4.937   4.948
  5.077   5.125   5.202   5.234   5.237   5.261   5.290   5.357
  5.363   5.405   5.410   5.458   5.517   5.554   5.833   5.896
  6.087   6.582   6.939   6.941   7.013   7.034   7.064   7.069
  7.074   7.131   7.177   7.241   7.245   7.428   7.552   7.573
  7.621   7.771   7.834   8.258   8.418   8.727  43.817  43.828
 43.881  43.890  43.899  43.954  43.963  43.969  43.991  44.001
 44.019  44.035  44.053  44.176  44.223  45.627  45.728  45.788
 45.855  45.899  45.921  45.939  46.840  47.695  49.995  50.222
 50.231
 
 Beta MOs
 -- Occupied --
-18.847 -18.688 -18.688  -1.151  -0.883  -0.538  -0.386  -0.374
 -0.372  -0.130  -0.123  -0.117
 -- Virtual --
  0.271   0.362   0.365   0.368   0.419   0.446   0.457   0.467
  0.489   0.518   0.533   0.595   0.602   0.637   0.677   1.190
  1.289   1.308   1.313   1.324   1.350   1.396   1.408   1.435
  1.534   1.572   1.607   1.653   1.767   1.836   1.895   1.915
  1.950   1.989   2.301   2.484   2.561   2.683   2.693   2.726
  2.887   2.954   4.658   4.743   4.768   4.842   4.857   4.951
  4.961   5.090   5.172   5.211   5.265   5.266   5.276   5.311
  5.380   5.384   5.418   5.429   5.480   5.532   5.572   5.845
  5.921   6.107   6.589   6.977   6.978   7.045   7.059   7.081
  7.099   7.103   7.154   7.217   7.259   7.277   7.433   7.574
  7.601   7.650   7.777   7.846   8.266   8.429   8.735  43.848
 43.859  43.910  43.911  43.918  43.974  43.975  43.984  43.997
 44.019  44.023  44.053  44.055  44.182  44.228  45.658  45.735
 45.793  45.876  45.903  45.944  45.948  46.846  47.702  50.003
 50.229  50.242
 --------------------------------------------------------------
 
          Ground-State Mulliken Net Atomic Charges

     Atom                 Charge (a.u.)    Spin (a.u.)
  --------------------------------------------------------
      1 O                    -0.558549       0.319105
      2 O                     0.116912       0.361614
      3 O                    -0.558363       0.319281
  --------------------------------------------------------
  Sum of atomic charges =    -1.000000
  Sum of spin   charges =     1.000000

 -----------------------------------------------------------------
                    Cartesian Multipole Moments
 -----------------------------------------------------------------
    Charge (ESU x 10^10)
                -4.8032
    Dipole Moment (Debye)
         X      -2.8354      Y      -0.0003      Z      -4.3657
       Tot       5.2056
    Quadrupole Moments (Debye-Ang)
        XX     -22.8265     XY      -0.0016     YY     -18.1821
        XZ      -5.4093     YZ       0.0002     ZZ     -28.1225
    Octapole Moments (Debye-Ang^2)
       XXX     -26.8087    XXY      -0.0019    XYY      -7.6147
       YYY      -0.0010    XXZ     -25.4068    XYZ      -0.0013
       YYZ     -18.4051    XZZ     -17.9435    YZZ       0.0006
       ZZZ     -77.4647
    Hexadecapole Moments (Debye-Ang^3)
      XXXX     -72.8379   XXXY      -0.0047   XXYY     -14.8608
      XYYY      -0.0024   YYYY     -17.5426   XXXZ     -46.5901
      XXYZ      -0.0021   XYYZ     -13.9105   YYYZ      -0.0004
      XXZZ     -56.6502   XYZZ      -0.0025   YYZZ     -36.8774
      XZZZ     -60.7492   YZZZ       0.0017   ZZZZ    -245.0254
 -----------------------------------------------------------------
 Total job time:  30.05s(wall), 29.76s(cpu) 
 Mon Jul  8 16:56:19 2013

        *************************************************************
        *                                                           *
        *  Thank you very much for using Q-Chem.  Have a nice day.  *
        *                                                           *
        *************************************************************


0 sent ACK to 0 
now end server 0 ... 
 
**********************************************************************
Job 2 of 3 
**********************************************************************
 
Process 0 of 1 is on cl064.stfx.acenet.ca - thread support 1
initial socket setup ...start
initial socket setup ...done 
now start server 0 ... 

cmd = /usr/bin/ssh clhead /usr/local/qchem/bin/get_hostid 746235408 > /scratch/tmp/6065153.1.short.q/qchem3090/lic.dat
                  Welcome to Q-Chem
     A Quantum Leap Into The Future Of Chemistry

 Y. Shao, L. Fusti-Molnar, Y. Jung, J. Kussmann, C. Ochsenfeld,
 S. T. Brown, A. T. B. Gilbert, L. V. Slipchenko,S. V. Levchenko,
 D. P. O'Neill, R. A. DiStasio Jr., R. C. Lochan, T. Wang,
 G. J. O. Beran, N. A. Besley, J. M. Herbert, C. Y. Lin,
 T. Van Voorhis, S. H. Chien, A. Sodt, R. P. Steele, 
 V. A. Rassolov, P. E. Maslen, P. P. Korambath, R. D. Adamson,
 B. Austin, J. Baker, E. F. C. Byrd, H. Dachsel, R. J. Doerksen,
 A. Dreuw, B. D. Dunietz, A. D. Dutoi, T. R. Furlani,
 S. R. Gwaltney, A. Heyden, S. Hirata, C.-P. Hsu, G. Kedziora,
 R. Z. Khaliullin, P. Klunzinger, A. M. Lee, M. S. Lee, W. Liang,
 I. Lotan, N. Nair, B. Peters, E. I. Proynov, P. A. Pieniazek, 
 Y. M. Rhee, J. Ritchie, E. Rosta, C. D. Sherrill, 
 A. C. Simmonett, J. E. Subotnik, H. L. Woodcock III,
 W. Zhang, A. T. Bell, A. K. Chakraborty, D. M. Chipman,
 F. J. Keil, A. Warshel, W. J. Hehre, H. F. Schaefer III,
 J. Kong, A. I. Krylov, P. M. W. Gill, M. Head-Gordon,
 Q-Chem, Version 3.1, Q-Chem, Inc., Pittsburgh, PA (2007).

 Additional authors for Version 3.1: 
 Z. Gan, Y. Zhao, N. E. Schultz, D. Truhlar, E. Epifanovsky and M. Oana.

 Additional authors for Version 3.2: 
 R. Baer, B. R. Brooks, D. Casanova, J.-D. Chai, C.-L. Cheng, 
 C. Cramer, D. Crittenden, A. Ghysels, G. Hawkins, E. G. Hohenstein, 
 C. Kelley, W. Kurlancheek, D. Liotard, E. Livshits, P. Manohar, 
 A. Marenich, D. Neuhauser, R. Olson, M. A. Rohrdanz, K. S. Thanthiriwatte, 
 A. J. W. Thom, V. Vanovschi, C. F. Williams, Q. Wu and Z.-Q. You. 


 Intel X86 Linux Version

 Q-chem begins on Mon Jul  8 16:56:22 2013  

 Parallel job on  1  processors
Processing $rem in /usr/local/qchem/config/preferences.

theFileMan(): MAXOPENFILES=974 MAX_SUB_FILE_NUM=16
Maximum size of a physical file is 2.0 GB, maximum size of a tmp-file is 32.0 GB


--------------------------------------------------------------
User input:
--------------------------------------------------------------

$molecule
0,1
O          0.01102        0.00000        0.02954
O          0.00996        0.00000        1.25840
O          1.09619        0.00000        1.83285
$end

$comment
neutral
$end

$xc_functional
C PBE   1.00
X wPBE  1.00
$end


$rem
SYMMETRY_DECOMPOSITION	0
LRC_DFT                 true
exchange 		general
BASIS                   g3large
omega			350
mem_static              760
max_scf_cycles          200
scf_final_print         1
sym_ignore              true
$end

--------------------------------------------------------------
 Writing REM_CC_EA            3
 ----------------------------------------------------
       Standard Nuclear Orientation (Angstroms)
    I     Atom         X            Y            Z
 ----------------------------------------------------
    1      O       0.011020     0.000000     0.029540
    2      O       0.009960     0.000000     1.258400
    3      O       1.096190     0.000000     1.832850
 ----------------------------------------------------
 Nuclear Repulsion Energy =    71.2135568726 hartrees
 There are       12 alpha and       12 beta electrons
 Requested basis set is G3large
 There are 30 shells and 126 basis functions

Total QAlloc Memory Limit   2000 MB
Mega-Array Size       743 MB
MEM_STATIC part       760 MB

                       Distance Matrix (Angstroms)
             O (  1)   O (  2)
   O (  2)  1.228860
   O (  3)  2.104643  1.228775
 
 A cutoff of  1.0D-08 yielded    435 shell pairs
 There are   7848 function pairs ( 10313 Cartesian)
Evaluating contribution to one-electron hamiltonian from nuclear
 Smallest overlap matrix eigenvalue = 5.23E-04
 Multipole matrices computed through 2nd order

  Scale SEOQF with 1.000000e-01/1.000000e+00/1.000000e-01

 Standard Electronic Orientation quadrupole field applied
 Nucleus-field energy     =    -0.0000000039 hartrees
 Guess from superposition of atomic densities
 Warning:  Energy on first SCF cycle will be non-variational
 Long-range K will be added via erf
 Coulomb attenuation parameter = 0.35 bohr**(-1)
 A restricted Kohn-Sham SCF calculation will be
 performed using Pulay DIIS extrapolation
 Exchange:  wPBE + LR-HF      Correlation:  PBE
 Using SG-1 standard quadrature grid
 SCF converges when DIIS error is below 1.0E-05
 Requested basis set is G3large
 There are 30 shells and 126 basis functions
 A cutoff of  1.0D-08 yielded    435 shell pairs
 There are   7848 function pairs ( 10313 Cartesian)
 ---------------------------------------
  Cycle       Energy         DIIS Error
 ---------------------------------------
    1    -225.6704282418      3.84E-02
    2    -225.1801344389      1.06E-02
    3    -225.0466477655      1.58E-02
    4    -225.3289607086      1.68E-03
    5    -225.3290769422      1.73E-03
    6    -225.3332497822      2.33E-04
    7    -225.3335746602      9.49E-05
    8    -225.3337256061      5.57E-05
    9    -225.3337957004      2.63E-05
   10    -225.3338142239      5.86E-06 Convergence criterion met
 ---------------------------------------
 One-Electron    Energy =  -450.0756055613
 Total Coulomb   Energy =   178.9227509517
 Alpha Exchange  Energy =    -2.1952999979
 Beta  Exchange  Energy =    -2.1952999979
 DFT   Exchange  Energy =   -20.1845179142
 DFT Correlation Energy =    -0.8193985731
 Nuclear Repu.   Energy =    71.2135568688
 Nuclear Attr.   Energy =  -675.0471784655
 Kinetic         Energy =   224.9715729042
 SCF time:  CPU 24.75 s  wall 25.15 s
 Final Alpha MO Eigenvalues
            1           2           3           4           5           6
    1 -19.2541034 -19.0533693 -19.0533046  -1.5158842  -1.2380175  -0.8890142
            7           8           9          10          11          12
    1  -0.7516057  -0.7281464  -0.7140150  -0.4766337  -0.4613935  -0.4511065
           13          14          15          16          17
    1  -0.0919300   0.1523593   0.1594540   0.1686153   0.1948907
 Analysis of SCF Wavefunction
 
 --------------------------------------------------------------
                    Orbital Energies (a.u.)
 --------------------------------------------------------------
 
 Alpha MOs
 -- Occupied --
-19.254 -19.053 -19.053  -1.516  -1.238  -0.889  -0.752  -0.728
 -0.714  -0.477  -0.461  -0.451
 -- Virtual --
 -0.092   0.152   0.159   0.169   0.195   0.218   0.253   0.262
  0.280   0.284   0.295   0.314   0.357   0.382   0.424   0.917
  0.995   1.011   1.017   1.044   1.070   1.098   1.109   1.157
  1.232   1.240   1.269   1.331   1.461   1.526   1.586   1.587
  1.621   1.664   1.984   2.144   2.228   2.347   2.358   2.417
  2.578   2.636   4.294   4.388   4.427   4.493   4.499   4.598
  4.603   4.739   4.793   4.873   4.905   4.908   4.934   4.956
  5.030   5.035   5.076   5.077   5.124   5.185   5.219   5.501
  5.558   5.750   6.241   6.597   6.599   6.681   6.703   6.730
  6.733   6.735   6.792   6.838   6.900   6.901   7.092   7.215
  7.240   7.286   7.435   7.488   7.914   8.075   8.380  43.439
 43.447  43.500  43.534  43.544  43.587  43.599  43.607  43.626
 43.645  43.645  43.679  43.695  43.814  43.857  45.253  45.351
 45.418  45.501  45.540  45.556  45.579  46.474  47.321  49.626
 49.854  49.865
 --------------------------------------------------------------
 
          Ground-State Mulliken Net Atomic Charges

     Atom                 Charge (a.u.)
  ----------------------------------------
      1 O                    -0.151891
      2 O                     0.303794
      3 O                    -0.151903
  ----------------------------------------
  Sum of atomic charges =     0.000000

 -----------------------------------------------------------------
                    Cartesian Multipole Moments
 -----------------------------------------------------------------
    Charge (ESU x 10^10)
                 0.0000
    Dipole Moment (Debye)
         X      -0.6557      Y       0.0001      Z       0.3948
       Tot       0.7654
    Quadrupole Moments (Debye-Ang)
        XX     -16.9376     XY      -0.0003     YY     -14.5808
        XZ      -1.1722     YZ       0.0000     ZZ     -16.3030
    Octapole Moments (Debye-Ang^2)
       XXX     -19.2026    XXY      -0.0003    XYY      -5.7300
       YYY       0.0000    XXZ     -17.2502    XYZ      -0.0002
       YYZ     -14.9869    XZZ      -8.3392    YZZ       0.0002
       ZZZ     -52.4752
    Hexadecapole Moments (Debye-Ang^3)
      XXXX     -52.1412   XXXY      -0.0007   XXYY     -10.0660
      XYYY      -0.0003   YYYY     -10.4374   XXXZ     -33.0291
      XXYZ      -0.0005   XYYZ     -10.4032   YYYZ       0.0000
      XXZZ     -37.7572   XYZZ      -0.0004   YYZZ     -28.0030
      XZZZ     -37.2621   YZZZ       0.0003   ZZZZ    -177.7667
 -----------------------------------------------------------------
 Total job time:  25.28s(wall), 24.87s(cpu) 
 Mon Jul  8 16:56:47 2013

        *************************************************************
        *                                                           *
        *  Thank you very much for using Q-Chem.  Have a nice day.  *
        *                                                           *
        *************************************************************


0 sent ACK to 0 
now end server 0 ... 
 
**********************************************************************
Job 3 of 3 
**********************************************************************
 
Process 0 of 1 is on cl064.stfx.acenet.ca - thread support 1
initial socket setup ...start
initial socket setup ...done 
now start server 0 ... 

cmd = /usr/bin/ssh clhead /usr/local/qchem/bin/get_hostid 822866144 > /scratch/tmp/6065153.1.short.q/qchem3090/lic.dat
                  Welcome to Q-Chem
     A Quantum Leap Into The Future Of Chemistry

 Y. Shao, L. Fusti-Molnar, Y. Jung, J. Kussmann, C. Ochsenfeld,
 S. T. Brown, A. T. B. Gilbert, L. V. Slipchenko,S. V. Levchenko,
 D. P. O'Neill, R. A. DiStasio Jr., R. C. Lochan, T. Wang,
 G. J. O. Beran, N. A. Besley, J. M. Herbert, C. Y. Lin,
 T. Van Voorhis, S. H. Chien, A. Sodt, R. P. Steele, 
 V. A. Rassolov, P. E. Maslen, P. P. Korambath, R. D. Adamson,
 B. Austin, J. Baker, E. F. C. Byrd, H. Dachsel, R. J. Doerksen,
 A. Dreuw, B. D. Dunietz, A. D. Dutoi, T. R. Furlani,
 S. R. Gwaltney, A. Heyden, S. Hirata, C.-P. Hsu, G. Kedziora,
 R. Z. Khaliullin, P. Klunzinger, A. M. Lee, M. S. Lee, W. Liang,
 I. Lotan, N. Nair, B. Peters, E. I. Proynov, P. A. Pieniazek, 
 Y. M. Rhee, J. Ritchie, E. Rosta, C. D. Sherrill, 
 A. C. Simmonett, J. E. Subotnik, H. L. Woodcock III,
 W. Zhang, A. T. Bell, A. K. Chakraborty, D. M. Chipman,
 F. J. Keil, A. Warshel, W. J. Hehre, H. F. Schaefer III,
 J. Kong, A. I. Krylov, P. M. W. Gill, M. Head-Gordon,
 Q-Chem, Version 3.1, Q-Chem, Inc., Pittsburgh, PA (2007).

 Additional authors for Version 3.1: 
 Z. Gan, Y. Zhao, N. E. Schultz, D. Truhlar, E. Epifanovsky and M. Oana.

 Additional authors for Version 3.2: 
 R. Baer, B. R. Brooks, D. Casanova, J.-D. Chai, C.-L. Cheng, 
 C. Cramer, D. Crittenden, A. Ghysels, G. Hawkins, E. G. Hohenstein, 
 C. Kelley, W. Kurlancheek, D. Liotard, E. Livshits, P. Manohar, 
 A. Marenich, D. Neuhauser, R. Olson, M. A. Rohrdanz, K. S. Thanthiriwatte, 
 A. J. W. Thom, V. Vanovschi, C. F. Williams, Q. Wu and Z.-Q. You. 


 Intel X86 Linux Version

 Q-chem begins on Mon Jul  8 16:56:50 2013  

 Parallel job on  1  processors
Processing $rem in /usr/local/qchem/config/preferences.

theFileMan(): MAXOPENFILES=974 MAX_SUB_FILE_NUM=16
Maximum size of a physical file is 2.0 GB, maximum size of a tmp-file is 32.0 GB


--------------------------------------------------------------
User input:
--------------------------------------------------------------

$molecule
1,2
O          0.01102        0.00000        0.02954
O          0.00996        0.00000        1.25840
O          1.09619        0.00000        1.83285
$end

$comment
positive
$end

$xc_functional
C PBE   1.00
X wPBE  1.00
$end

$rem
SYMMETRY_DECOMPOSITION	0
LRC_DFT                 true
exchange 		general
BASIS                   g3large
omega			350
mem_static              760
max_scf_cycles          200
scf_final_print         1
sym_ignore              true
$end

--------------------------------------------------------------
 Writing REM_CC_EA            3
 ----------------------------------------------------
       Standard Nuclear Orientation (Angstroms)
    I     Atom         X            Y            Z
 ----------------------------------------------------
    1      O       0.011020     0.000000     0.029540
    2      O       0.009960     0.000000     1.258400
    3      O       1.096190     0.000000     1.832850
 ----------------------------------------------------
 Nuclear Repulsion Energy =    71.2135568726 hartrees
 There are       12 alpha and       11 beta electrons
 Requested basis set is G3large
 There are 30 shells and 126 basis functions

Total QAlloc Memory Limit   2000 MB
Mega-Array Size       743 MB
MEM_STATIC part       760 MB

                       Distance Matrix (Angstroms)
             O (  1)   O (  2)
   O (  2)  1.228860
   O (  3)  2.104643  1.228775
 
 A cutoff of  1.0D-08 yielded    435 shell pairs
 There are   7848 function pairs ( 10313 Cartesian)
Evaluating contribution to one-electron hamiltonian from nuclear
 Smallest overlap matrix eigenvalue = 5.23E-04
 Multipole matrices computed through 2nd order

  Scale SEOQF with 1.000000e-01/1.000000e+00/1.000000e-01

 Standard Electronic Orientation quadrupole field applied
 Nucleus-field energy     =    -0.0000000039 hartrees
 Guess from superposition of atomic densities
 Warning:  Energy on first SCF cycle will be non-variational
 Long-range K will be added via erf
 Coulomb attenuation parameter = 0.35 bohr**(-1)
 An unrestricted Kohn-Sham SCF calculation will be
 performed using Pulay DIIS extrapolation
 Exchange:  wPBE + LR-HF      Correlation:  PBE
 Using SG-1 standard quadrature grid
 SCF converges when DIIS error is below 1.0E-05
 Requested basis set is G3large
 There are 30 shells and 126 basis functions
 A cutoff of  1.0D-08 yielded    435 shell pairs
 There are   7848 function pairs ( 10313 Cartesian)
 Warning!  Inaccurate integrated density:
   Number of electrons =    23
   Numerical integral  =    23.999877269493
   Relative error      =     4.3472924761 %
 ---------------------------------------
  Cycle       Energy         DIIS Error
 ---------------------------------------
    1    -225.6704282418      3.84E-02
    2    -224.5950921094      1.23E-02
    3    -224.2098147096      2.19E-02
    4    -224.8320631825      3.97E-03
    5    -224.8491832150      2.23E-03
    6    -224.8574717228      6.38E-04
    7    -224.8591047614      1.98E-04
    8    -224.8602114328      8.60E-05
    9    -224.8607472365      5.64E-05
   10    -224.8612518255      4.00E-05
   11    -224.8618810198      2.99E-05
   12    -224.8624135373      2.97E-05
   13    -224.8630612276      3.52E-05
   14    -224.8636127518      4.35E-05
   15    -224.8636041468      4.47E-05
   16    -224.8636775912      4.91E-05
   17    -224.8637128597      2.55E-05
   18    -224.8637933672      2.28E-05
   19    -224.8638994127      2.00E-05
   20    -224.8640044136      1.58E-05
   21    -224.8640458584      7.99E-06 Convergence criterion met
 ---------------------------------------
 One-Electron    Energy =  -440.9617228521
 Total Coulomb   Energy =   169.8941977118
 Alpha Exchange  Energy =    -2.2149221808
 Beta  Exchange  Energy =    -2.0162684040
 DFT   Exchange  Energy =   -20.0028390910
 DFT Correlation Energy =    -0.7760479111
 Nuclear Repu.   Energy =    71.2135568688
 Nuclear Attr.   Energy =  -665.5412407013
 Kinetic         Energy =   224.5795178492
 <S^2> = 1.0082
 SCF time:  CPU 63.50 s  wall 64.46 s
 Final Alpha MO Eigenvalues
            1           2           3           4           5           6
    1 -19.6184244 -19.5289816 -19.4368682  -1.9005883  -1.6305944  -1.2707781
            7           8           9          10          11          12
    1  -1.1165727  -1.1134204  -1.0834322  -0.9130055  -0.8714635  -0.8038445
           13          14          15          16          17
    1  -0.4270673  -0.1697305  -0.0862508  -0.0761517  -0.0297825
 Final Beta MO Eigenvalues
            1           2           3           4           5           6
    1 -19.6119628 -19.4981942 -19.4467127  -1.8823633  -1.6076064  -1.2333937
            7           8           9          10          11          12
    1  -1.0972255  -1.0783388  -1.0595977  -0.8493588  -0.8075195  -0.4896527
           13          14          15          16
    1  -0.4399016  -0.1479385  -0.0765138  -0.0663299
 Analysis of SCF Wavefunction
 
 --------------------------------------------------------------
                    Orbital Energies (a.u.)
 --------------------------------------------------------------
 
 Alpha MOs
 -- Occupied --
-19.618 -19.529 -19.437  -1.901  -1.631  -1.271  -1.117  -1.113
 -1.083  -0.913  -0.871  -0.804
 -- Virtual --
 -0.427  -0.170  -0.086  -0.076  -0.030  -0.026  -0.003   0.049
  0.051   0.055   0.065   0.077   0.136   0.167   0.211   0.617
  0.682   0.687   0.720   0.745   0.778   0.788   0.825   0.847
  0.899   0.912   0.926   1.000   1.122   1.190   1.219   1.248
  1.287   1.339   1.619   1.787   1.891   2.003   2.011   2.080
  2.251   2.289   3.923   4.019   4.042   4.122   4.134   4.216
  4.233   4.376   4.413   4.422   4.516   4.543   4.546   4.565
  4.632   4.661   4.684   4.724   4.758   4.803   4.849   5.110
  5.192   5.375   5.840   6.168   6.223   6.227   6.327   6.333
  6.345   6.352   6.428   6.466   6.513   6.522   6.673   6.832
  6.868   6.931   7.053   7.114   7.532   7.692   8.007  43.028
 43.061  43.073  43.105  43.149  43.167  43.184  43.197  43.212
 43.233  43.247  43.268  43.289  43.378  43.476  44.864  44.949
 44.998  45.069  45.098  45.173  45.177  46.066  46.929  49.215
 49.431  49.483
 
 Beta MOs
 -- Occupied --
-19.612 -19.498 -19.447  -1.882  -1.608  -1.233  -1.097  -1.078
 -1.060  -0.849  -0.808
 -- Virtual --
 -0.490  -0.440  -0.148  -0.077  -0.066  -0.029  -0.020   0.002
  0.051   0.055   0.058   0.066   0.077   0.138   0.170   0.212
  0.631   0.695   0.710   0.724   0.758   0.788   0.796   0.823
  0.868   0.908   0.923   0.931   1.012   1.150   1.207   1.249
  1.267   1.290   1.343   1.643   1.806   1.899   2.012   2.016
  2.096   2.259   2.305   3.935   4.026   4.067   4.141   4.150
  4.230   4.251   4.389   4.442   4.512   4.534   4.551   4.574
  4.600   4.668   4.673   4.714   4.722   4.768   4.824   4.857
  5.141   5.204   5.390   5.871   6.229   6.240   6.305   6.357
  6.357   6.364   6.370   6.427   6.484   6.527   6.546   6.724
  6.862   6.878   6.935   7.074   7.126   7.547   7.709   8.019
 43.075  43.088  43.121  43.137  43.142  43.188  43.204  43.205
 43.224  43.247  43.256  43.269  43.278  43.399  43.475  44.877
 44.969  45.024  45.082  45.132  45.164  45.182  46.076  46.935
 49.228  49.446  49.482
 --------------------------------------------------------------
 
          Ground-State Mulliken Net Atomic Charges

     Atom                 Charge (a.u.)    Spin (a.u.)
  --------------------------------------------------------
      1 O                     0.393033       1.192278
      2 O                     0.437757       0.207694
      3 O                     0.169210      -0.399972
  --------------------------------------------------------
  Sum of atomic charges =     1.000000
  Sum of spin   charges =     1.000000

 -----------------------------------------------------------------
                    Cartesian Multipole Moments
 -----------------------------------------------------------------
    Charge (ESU x 10^10)
                 4.8032
    Dipole Moment (Debye)
         X       1.1944      Y       0.0003      Z       4.3628
       Tot       4.5233
    Quadrupole Moments (Debye-Ang)
        XX     -11.7411     XY      -0.0036     YY     -12.7534
        XZ       2.2443     YZ       0.0029     ZZ      -6.9164
    Octapole Moments (Debye-Ang^2)
       XXX     -13.8065    XXY      -0.0027    XYY      -4.7470
       YYY       0.0002    XXZ     -11.0645    XYZ       0.0013
       YYZ     -13.0613    XZZ      -0.7663    YZZ       0.0107
       ZZZ     -33.0079
    Hexadecapole Moments (Debye-Ang^3)
      XXXX     -38.8067   XXXY      -0.0067   XXYY      -7.7578
      XYYY      -0.0020   YYYY      -7.8085   XXXZ     -23.4850
      XXYZ      -0.0010   XYYZ      -8.5880   YYYZ       0.0016
      XXZZ     -24.1643   XYZZ       0.0076   YYZZ     -23.5082
      XZZZ     -19.8333   YZZZ       0.0310   ZZZZ    -129.4042
 -----------------------------------------------------------------
 Total job time:  64.59s(wall), 63.62s(cpu) 
 Mon Jul  8 16:57:54 2013

        *************************************************************
        *                                                           *
        *  Thank you very much for using Q-Chem.  Have a nice day.  *
        *                                                           *
        *************************************************************


0 sent ACK to 0 
now end server 0 ... 
