Process 0 of 1 is on cl197.stfx.acenet.ca - thread support 1
initial socket setup ...start
initial socket setup ...done 
now start server 0 ... 

cmd = /usr/bin/ssh clhead /usr/local/qchem/bin/get_hostid 482804702 > /globalscratch/itamblyn/bnl/g297_b3lyp_neut_g03Large/g2g71126/omega600/qchem8376/lic.dat
                  Welcome to Q-Chem
     A Quantum Leap Into The Future Of Chemistry

 Y. Shao, L. Fusti-Molnar, Y. Jung, J. Kussmann, C. Ochsenfeld,
 S. T. Brown, A. T. B. Gilbert, L. V. Slipchenko,S. V. Levchenko,
 D. P. O'Neill, R. A. DiStasio Jr., R. C. Lochan, T. Wang,
 G. J. O. Beran, N. A. Besley, J. M. Herbert, C. Y. Lin,
 T. Van Voorhis, S. H. Chien, A. Sodt, R. P. Steele, 
 V. A. Rassolov, P. E. Maslen, P. P. Korambath, R. D. Adamson,
 B. Austin, J. Baker, E. F. C. Byrd, H. Dachsel, R. J. Doerksen,
 A. Dreuw, B. D. Dunietz, A. D. Dutoi, T. R. Furlani,
 S. R. Gwaltney, A. Heyden, S. Hirata, C.-P. Hsu, G. Kedziora,
 R. Z. Khaliullin, P. Klunzinger, A. M. Lee, M. S. Lee, W. Liang,
 I. Lotan, N. Nair, B. Peters, E. I. Proynov, P. A. Pieniazek, 
 Y. M. Rhee, J. Ritchie, E. Rosta, C. D. Sherrill, 
 A. C. Simmonett, J. E. Subotnik, H. L. Woodcock III,
 W. Zhang, A. T. Bell, A. K. Chakraborty, D. M. Chipman,
 F. J. Keil, A. Warshel, W. J. Hehre, H. F. Schaefer III,
 J. Kong, A. I. Krylov, P. M. W. Gill, M. Head-Gordon,
 Q-Chem, Version 3.1, Q-Chem, Inc., Pittsburgh, PA (2007).

 Additional authors for Version 3.1: 
 Z. Gan, Y. Zhao, N. E. Schultz, D. Truhlar, E. Epifanovsky and M. Oana.

 Additional authors for Version 3.2: 
 R. Baer, B. R. Brooks, D. Casanova, J.-D. Chai, C.-L. Cheng, 
 C. Cramer, D. Crittenden, A. Ghysels, G. Hawkins, E. G. Hohenstein, 
 C. Kelley, W. Kurlancheek, D. Liotard, E. Livshits, P. Manohar, 
 A. Marenich, D. Neuhauser, R. Olson, M. A. Rohrdanz, K. S. Thanthiriwatte, 
 A. J. W. Thom, V. Vanovschi, C. F. Williams, Q. Wu and Z.-Q. You. 


 Intel X86 Linux Version

 Q-chem begins on Mon Apr 11 18:35:58 2011  

 Parallel job on  1  processors
Processing $rem in /usr/local/qchem/config/preferences.

theFileMan(): MAXOPENFILES=974 MAX_SUB_FILE_NUM=16
Maximum size of a physical file is 2.0 GB, maximum size of a tmp-file is 32.0 GB


--------------------------------------------------------------
User input:
--------------------------------------------------------------

$molecule
-1,2
C
X,1,1.
C,1,R1,2,THETA1
C,1,R1a,2,theta1a,3,180.,0
H,1,R2,2,THETA2,3,90.,0
H,1,R2,2,THETA2,3,-90.,0
H,3,R3,1,THETA3,2,180.,0
Cl,4,R5,1,theta6,2,180.,0
X,3,1.,1,THETA4,2,0.,0
H,3,R4,9,THETA5,1,90.,0
H,3,R4,9,THETA5,1,-90.,0
X,4,1.,1,THETA4a,2,0.,0
H,4,R4a,12,THETA5a,1,90.,0
H,4,R4a,12,THETA5a,1,-90.,0

R1a=1.52309438
R1=1.53450477
R2=1.09616
R3=1.09513102
R4=1.09654921
R4a=1.09254388
THETA1=54.73579058
THETA2=126.58788234
theta1a=56.51992893
THETA3=110.60770195
THETA4=128.40127449
THETA5=53.89018205
THETA4a=129.44505213
THETA5a=54.39150454
R5=1.82004582
theta6=111.91183995

$end

$comment
negative
$end

$xc_functional
   X HF 1.0
   X BNL 1.0
   C LYP 1.0
$end

$rem
SYMMETRY_DECOMPOSITION	0
exchange 		general
BASIS                   g3large
omega			600
separate_jk		true
mem_static              760
max_scf_cycles          200
scf_final_print         1
sym_ignore              true
$end

--------------------------------------------------------------
 Writing REM_CC_EA           11
 ----------------------------------------------------
       Standard Nuclear Orientation (Angstroms)
    I     Atom         X            Y            Z
 ----------------------------------------------------
    1      C       0.000000     0.000000     0.000000
    2      C       1.252921     0.000000     0.885943
    3      C      -1.270379     0.000000     0.840210
    4      H       0.000000    -0.880155    -0.653372
    5      H       0.000000     0.880155    -0.653372
    6      H       2.159454     0.000000     0.271525
    7      Cl     -2.768379     0.000000    -0.193503
    8      H       1.288286     0.885890     1.531209
    9      H       1.288286    -0.885890     1.531209
   10      H      -1.336486    -0.888254     1.472893
   11      H      -1.336486     0.888254     1.472893
 ----------------------------------------------------
 Nuclear Repulsion Energy =   157.4323713266 hartrees
 There are       22 alpha and       21 beta electrons
 Requested basis set is G3large
 There are 91 shells and 262 basis functions

Total QAlloc Memory Limit   2000 MB
Mega-Array Size       743 MB
MEM_STATIC part       760 MB

                       Distance Matrix (Angstroms)
             C (  1)   C (  2)   C (  3)   H (  4)   H (  5)   H (  6)
   C (  2)  1.534505
   C (  3)  1.523094  2.523714
   H (  4)  1.096160  2.171168  2.149261
   H (  5)  1.096160  2.171168  2.149261  1.760309
   H (  6)  2.176458  1.095131  3.476659  2.508655  2.508655
   Cl(  7)  2.775134  4.163659  1.820046  2.941101  2.941101  4.949726
   H (  8)  2.188397  1.096549  2.794467  3.090467  2.536160  1.769333
   H (  9)  2.188397  1.096549  2.794467  2.536160  3.090467  1.769333
   H ( 10)  2.178211  2.799738  1.092544  2.511426  3.071557  3.801825
   H ( 11)  2.178211  2.799738  1.092544  3.071557  2.511426  3.801825
             Cl(  7)   H (  8)   H (  9)   H ( 10)
   H (  8)  4.496216
   H (  9)  4.496216  1.771780
   H ( 10)  2.369850  3.168661  2.625420
   H ( 11)  2.369850  2.625420  3.168661  1.776508
 
 A cutoff of  1.0D-08 yielded   3693 shell pairs
 There are  30367 function pairs ( 37906 Cartesian)
Evaluating contribution to one-electron hamiltonian from nuclear
 Smallest overlap matrix eigenvalue = 2.76E-05

 Q-Chem warning in module mkSTV.C, line 194:

 Overlap eigenvalue is smaller than square root of threshold

 Multipole matrices computed through 2nd order

  Scale SEOQF with 1.000000e-01/1.000000e-01/1.000000e-01

 Standard Electronic Orientation quadrupole field applied
 Nucleus-field energy     =     0.0000000040 hartrees
 Guess from superposition of atomic densities
 Warning:  Energy on first SCF cycle will be non-variational
 An unrestricted hybrid HF-DFT SCF calculation will be
 performed using Pulay DIIS extrapolation
 Exchange:     1.0000 Hartree-Fock + 1.0000 BNL
 Correlation:  1.0000 LYP
 Using SG-1 standard quadrature grid
 SCF converges when DIIS error is below 1.0E-05
 Warning!  Inaccurate integrated density:
   Number of electrons =    43
   Numerical integral  =    42.000340802477
   Relative error      =    -2.3247888314 %
 ---------------------------------------
  Cycle       Energy         DIIS Error
 ---------------------------------------
    1    -576.6971215961      2.60E-02
    2    -575.5847004865      2.45E-03
    3    -575.6548636757      2.16E-03
    4    -575.6943270766      4.28E-04
    5    -575.7049805461      3.35E-04
    6    -575.7102133903      1.53E-04
    7    -575.7133615893      6.50E-05
    8    -575.7142718567      1.98E-05
    9    -575.7143665210      9.04E-06 Convergence criterion met
 ---------------------------------------
 One-Electron    Energy = -1111.1407837604
 Total Coulomb   Energy =   422.0499290568
 Alpha Exchange  Energy =    -5.8856890782
 Beta  Exchange  Energy =    -5.8124412346
 DFT   Exchange  Energy =   -30.8506350286
 DFT Correlation Energy =    -1.5071178066
 Nuclear Repu.   Energy =   157.4323713306
 Nuclear Attr.   Energy = -1685.1321582475
 Kinetic         Energy =   573.9913744871
 <S^2> = 0.7502
 SCF time:  CPU 294.28 s  wall 343.13 s
 Final Alpha MO Eigenvalues
            1           2           3           4           5           6
    1-100.4676119 -10.0261033  -9.9678017  -9.9420303  -9.3245249  -7.1686214
            7           8           9          10          11          12
    1  -7.1586003  -7.1584439  -0.9501381  -0.8536984  -0.7339468  -0.6535802
           13          14          15          16          17          18
    1  -0.5258829  -0.4702568  -0.4549594  -0.4351134  -0.3795068  -0.3718668
           19          20          21          22          23          24
    1  -0.3562217  -0.3238499  -0.3222499   0.0310001   0.1385177   0.1424066
           25          26          27
    1   0.1475598   0.1777435   0.1802582
 Final Beta MO Eigenvalues
            1           2           3           4           5           6
    1-100.4675464 -10.0256770  -9.9675436  -9.9411450  -9.3244564  -7.1684718
            7           8           9          10          11          12
    1  -7.1585536  -7.1583890  -0.9495386  -0.8527775  -0.7318097  -0.6513217
           13          14          15          16          17          18
    1  -0.5253851  -0.4689147  -0.4539189  -0.4347383  -0.3787565  -0.3701775
           19          20          21          22          23          24
    1  -0.3558631  -0.3236194  -0.3219072   0.1309021   0.1410773   0.1464414
           25          26
    1   0.1482078   0.1703925
 Analysis of SCF Wavefunction
 
 --------------------------------------------------------------
                    Orbital Energies (a.u.)
 --------------------------------------------------------------
 
 Alpha MOs
 -- Occupied --
******* -10.026  -9.968  -9.942  -9.325  -7.169  -7.159  -7.158
 -0.950  -0.854  -0.734  -0.654  -0.526  -0.470  -0.455  -0.435
 -0.380  -0.372  -0.356  -0.324  -0.322   0.031
 -- Virtual --
  0.139   0.142   0.148   0.178   0.180   0.183   0.193   0.227
  0.244   0.252   0.255   0.262   0.273   0.284   0.294   0.296
  0.301   0.308   0.321   0.325   0.328   0.343   0.375   0.378
  0.400   0.407   0.418   0.446   0.476   0.484   0.497   0.515
  0.525   0.567   0.581   0.595   0.623   0.658   0.664   0.670
  0.680   0.704   0.722   0.723   0.775   0.777   0.796   0.802
  0.807   0.812   0.830   0.837   0.871   0.884   0.914   0.936
  0.955   0.960   0.997   1.017   1.058   1.077   1.090   1.141
  1.157   1.221   1.228   1.282   1.306   1.321   1.336   1.348
  1.351   1.366   1.388   1.390   1.412   1.425   1.433   1.441
  1.469   1.475   1.499   1.532   1.534   1.550   1.565   1.601
  1.643   1.656   1.657   1.686   1.699   1.721   1.726   1.752
  1.763   1.783   1.808   1.844   1.848   1.871   1.884   1.896
  1.929   1.971   1.985   2.035   2.481   2.490   2.630   2.715
  2.808   2.811   2.897   2.924   2.959   3.052   3.063   3.095
  3.100   3.151   3.155   3.225   3.259   3.340   3.344   3.352
  3.373   3.430   3.438   3.518   3.552   3.572   3.613   3.641
  3.648   3.653   3.674   3.708   3.769   3.844   3.857   3.890
  3.940   3.941   3.983   3.988   4.048   4.060   4.138   4.138
  4.210   4.260   4.277   4.278   4.317   4.352   4.393   4.483
  4.503   4.551   4.573   4.578   4.587   4.639   4.665   4.674
  4.681   4.705   4.714   4.741   4.757   4.815   4.853   4.855
  4.871   4.897   4.929   4.948   4.952   5.050   5.089   5.229
  5.335   5.348   5.469   5.495   5.580   5.712   5.784   5.936
  5.988   6.010   6.025   6.051  10.099  20.839  20.846  21.084
 24.421  24.603  24.709  27.384  27.430  27.474  27.519  27.526
 27.917  28.066  28.280  28.386  28.416  28.465  28.543  28.685
 28.766  37.122  37.122  37.128  37.130  37.135  37.138  37.147
 41.109  41.163  41.174  41.185  41.246  41.274  41.435  41.459
 41.493  41.506  41.515  41.566  41.569  41.587  41.625 216.595
 
 Beta MOs
 -- Occupied --
******* -10.026  -9.968  -9.941  -9.324  -7.168  -7.159  -7.158
 -0.950  -0.853  -0.732  -0.651  -0.525  -0.469  -0.454  -0.435
 -0.379  -0.370  -0.356  -0.324  -0.322
 -- Virtual --
  0.131   0.141   0.146   0.148   0.170   0.174   0.179   0.186
  0.220   0.235   0.246   0.249   0.261   0.262   0.272   0.286
  0.288   0.291   0.300   0.312   0.316   0.318   0.332   0.368
  0.370   0.395   0.401   0.411   0.441   0.472   0.479   0.489
  0.506   0.524   0.565   0.578   0.592   0.621   0.653   0.660
  0.667   0.677   0.701   0.719   0.721   0.771   0.771   0.794
  0.798   0.802   0.809   0.826   0.834   0.866   0.879   0.909
  0.930   0.954   0.959   0.995   1.016   1.057   1.077   1.089
  1.141   1.156   1.220   1.226   1.281   1.305   1.320   1.335
  1.348   1.350   1.366   1.387   1.389   1.410   1.425   1.431
  1.440   1.468   1.474   1.498   1.532   1.533   1.549   1.564
  1.600   1.640   1.654   1.656   1.684   1.697   1.720   1.724
  1.751   1.761   1.782   1.807   1.843   1.847   1.870   1.882
  1.895   1.928   1.970   1.985   2.035   2.480   2.490   2.629
  2.714   2.807   2.810   2.896   2.924   2.959   3.052   3.062
  3.095   3.100   3.151   3.155   3.225   3.259   3.340   3.344
  3.352   3.373   3.431   3.438   3.518   3.553   3.572   3.613
  3.641   3.648   3.653   3.674   3.707   3.769   3.845   3.857
  3.890   3.940   3.941   3.983   3.988   4.048   4.060   4.138
  4.138   4.210   4.259   4.277   4.278   4.318   4.352   4.393
  4.483   4.503   4.552   4.573   4.577   4.587   4.639   4.665
  4.674   4.681   4.705   4.714   4.741   4.757   4.815   4.853
  4.855   4.871   4.897   4.929   4.949   4.952   5.050   5.089
  5.229   5.335   5.348   5.469   5.496   5.580   5.712   5.784
  5.937   5.988   6.010   6.025   6.052  10.099  20.839  20.846
 21.085  24.422  24.603  24.709  27.384  27.430  27.474  27.519
 27.526  27.917  28.067  28.280  28.386  28.417  28.466  28.543
 28.686  28.767  37.122  37.122  37.128  37.130  37.135  37.138
 37.147  41.110  41.163  41.174  41.186  41.246  41.275  41.436
 41.459  41.493  41.507  41.515  41.567  41.570  41.588  41.626
216.595
 --------------------------------------------------------------
 
          Ground-State Mulliken Net Atomic Charges

     Atom                 Charge (a.u.)    Spin (a.u.)
  --------------------------------------------------------
      1 C                    -2.790247       2.813861
      2 C                     4.095230      -4.529187
      3 C                     2.130316      -2.141961
      4 H                    -0.138324       0.240847
      5 H                    -0.114932       0.215697
      6 H                    -1.183947       1.300405
      7 Cl                   -0.745594       0.385659
      8 H                    -0.802058       0.910381
      9 H                    -0.859139       0.971681
     10 H                    -0.312896       0.434988
     11 H                    -0.278409       0.397628
  --------------------------------------------------------
  Sum of atomic charges =    -1.000000
  Sum of spin   charges =     1.000000

 -----------------------------------------------------------------
                    Cartesian Multipole Moments
 -----------------------------------------------------------------
    Charge (ESU x 10^10)
                -4.8032
    Dipole Moment (Debye)
         X      -3.8348      Y       0.3376      Z      -5.0735
       Tot       6.3687
    Quadrupole Moments (Debye-Ang)
        XX     -76.3498     XY       0.2463     YY     -60.9837
        XZ      -6.2706     YZ       0.5105     ZZ     -64.0533
    Octapole Moments (Debye-Ang^2)
       XXX      25.3532    XXY       1.3880    XYY       6.6332
       YYY       4.0913    XXZ     -40.7069    XYZ       0.2543
       YYZ     -44.1545    XZZ       1.6222    YZZ       2.1841
       ZZZ    -124.0764
    Hexadecapole Moments (Debye-Ang^3)
      XXXX   -1450.4265   XXXY       2.6414   XXYY    -285.7882
      XYYY       2.3394   YYYY    -398.7706   XXXZ     -82.5685
      XXYZ       2.0821   XYYZ     -33.6881   YYYZ       5.3187
      XXZZ    -320.8323   XYZZ       1.1750   YYZZ    -178.2442
      XZZZ     -91.6870   YZZZ       6.3440   ZZZZ    -612.6133
 -----------------------------------------------------------------
 Total job time:  346.54s(wall), 294.67s(cpu) 
 Mon Apr 11 18:41:44 2011

        *************************************************************
        *                                                           *
        *  Thank you very much for using Q-Chem.  Have a nice day.  *
        *                                                           *
        *************************************************************


0 sent ACK to 0 
now end server 0 ... 
 
**********************************************************************
Job 2 of 3 
**********************************************************************
 
Process 0 of 1 is on cl197.stfx.acenet.ca - thread support 1
initial socket setup ...start
initial socket setup ...done 
now start server 0 ... 

cmd = /usr/bin/ssh clhead /usr/local/qchem/bin/get_hostid 1430564616 > /globalscratch/itamblyn/bnl/g297_b3lyp_neut_g03Large/g2g71126/omega600/qchem8376/lic.dat
                  Welcome to Q-Chem
     A Quantum Leap Into The Future Of Chemistry

 Y. Shao, L. Fusti-Molnar, Y. Jung, J. Kussmann, C. Ochsenfeld,
 S. T. Brown, A. T. B. Gilbert, L. V. Slipchenko,S. V. Levchenko,
 D. P. O'Neill, R. A. DiStasio Jr., R. C. Lochan, T. Wang,
 G. J. O. Beran, N. A. Besley, J. M. Herbert, C. Y. Lin,
 T. Van Voorhis, S. H. Chien, A. Sodt, R. P. Steele, 
 V. A. Rassolov, P. E. Maslen, P. P. Korambath, R. D. Adamson,
 B. Austin, J. Baker, E. F. C. Byrd, H. Dachsel, R. J. Doerksen,
 A. Dreuw, B. D. Dunietz, A. D. Dutoi, T. R. Furlani,
 S. R. Gwaltney, A. Heyden, S. Hirata, C.-P. Hsu, G. Kedziora,
 R. Z. Khaliullin, P. Klunzinger, A. M. Lee, M. S. Lee, W. Liang,
 I. Lotan, N. Nair, B. Peters, E. I. Proynov, P. A. Pieniazek, 
 Y. M. Rhee, J. Ritchie, E. Rosta, C. D. Sherrill, 
 A. C. Simmonett, J. E. Subotnik, H. L. Woodcock III,
 W. Zhang, A. T. Bell, A. K. Chakraborty, D. M. Chipman,
 F. J. Keil, A. Warshel, W. J. Hehre, H. F. Schaefer III,
 J. Kong, A. I. Krylov, P. M. W. Gill, M. Head-Gordon,
 Q-Chem, Version 3.1, Q-Chem, Inc., Pittsburgh, PA (2007).

 Additional authors for Version 3.1: 
 Z. Gan, Y. Zhao, N. E. Schultz, D. Truhlar, E. Epifanovsky and M. Oana.

 Additional authors for Version 3.2: 
 R. Baer, B. R. Brooks, D. Casanova, J.-D. Chai, C.-L. Cheng, 
 C. Cramer, D. Crittenden, A. Ghysels, G. Hawkins, E. G. Hohenstein, 
 C. Kelley, W. Kurlancheek, D. Liotard, E. Livshits, P. Manohar, 
 A. Marenich, D. Neuhauser, R. Olson, M. A. Rohrdanz, K. S. Thanthiriwatte, 
 A. J. W. Thom, V. Vanovschi, C. F. Williams, Q. Wu and Z.-Q. You. 


 Intel X86 Linux Version

 Q-chem begins on Mon Apr 11 18:41:47 2011  

 Parallel job on  1  processors
Processing $rem in /usr/local/qchem/config/preferences.

theFileMan(): MAXOPENFILES=974 MAX_SUB_FILE_NUM=16
Maximum size of a physical file is 2.0 GB, maximum size of a tmp-file is 32.0 GB


--------------------------------------------------------------
User input:
--------------------------------------------------------------

$molecule
0,1
C
X,1,1.
C,1,R1,2,THETA1
C,1,R1a,2,theta1a,3,180.,0
H,1,R2,2,THETA2,3,90.,0
H,1,R2,2,THETA2,3,-90.,0
H,3,R3,1,THETA3,2,180.,0
Cl,4,R5,1,theta6,2,180.,0
X,3,1.,1,THETA4,2,0.,0
H,3,R4,9,THETA5,1,90.,0
H,3,R4,9,THETA5,1,-90.,0
X,4,1.,1,THETA4a,2,0.,0
H,4,R4a,12,THETA5a,1,90.,0
H,4,R4a,12,THETA5a,1,-90.,0

R1a=1.52309438
R1=1.53450477
R2=1.09616
R3=1.09513102
R4=1.09654921
R4a=1.09254388
THETA1=54.73579058
THETA2=126.58788234
theta1a=56.51992893
THETA3=110.60770195
THETA4=128.40127449
THETA5=53.89018205
THETA4a=129.44505213
THETA5a=54.39150454
R5=1.82004582
theta6=111.91183995

$end

$comment
neutral
$end

$xc_functional
   X HF 1.0
   X BNL 1.0
   C LYP 1.0
$end

$rem
SYMMETRY_DECOMPOSITION	0
exchange 		general
BASIS                   g3large
omega			600
separate_jk		true
mem_static              760
max_scf_cycles          200
scf_final_print         1
sym_ignore              true
$end

--------------------------------------------------------------
 Writing REM_CC_EA           11
 ----------------------------------------------------
       Standard Nuclear Orientation (Angstroms)
    I     Atom         X            Y            Z
 ----------------------------------------------------
    1      C       0.000000     0.000000     0.000000
    2      C       1.252921     0.000000     0.885943
    3      C      -1.270379     0.000000     0.840210
    4      H       0.000000    -0.880155    -0.653372
    5      H       0.000000     0.880155    -0.653372
    6      H       2.159454     0.000000     0.271525
    7      Cl     -2.768379     0.000000    -0.193503
    8      H       1.288286     0.885890     1.531209
    9      H       1.288286    -0.885890     1.531209
   10      H      -1.336486    -0.888254     1.472893
   11      H      -1.336486     0.888254     1.472893
 ----------------------------------------------------
 Nuclear Repulsion Energy =   157.4323713266 hartrees
 There are       21 alpha and       21 beta electrons
 Requested basis set is G3large
 There are 91 shells and 262 basis functions

Total QAlloc Memory Limit   2000 MB
Mega-Array Size       743 MB
MEM_STATIC part       760 MB

                       Distance Matrix (Angstroms)
             C (  1)   C (  2)   C (  3)   H (  4)   H (  5)   H (  6)
   C (  2)  1.534505
   C (  3)  1.523094  2.523714
   H (  4)  1.096160  2.171168  2.149261
   H (  5)  1.096160  2.171168  2.149261  1.760309
   H (  6)  2.176458  1.095131  3.476659  2.508655  2.508655
   Cl(  7)  2.775134  4.163659  1.820046  2.941101  2.941101  4.949726
   H (  8)  2.188397  1.096549  2.794467  3.090467  2.536160  1.769333
   H (  9)  2.188397  1.096549  2.794467  2.536160  3.090467  1.769333
   H ( 10)  2.178211  2.799738  1.092544  2.511426  3.071557  3.801825
   H ( 11)  2.178211  2.799738  1.092544  3.071557  2.511426  3.801825
             Cl(  7)   H (  8)   H (  9)   H ( 10)
   H (  8)  4.496216
   H (  9)  4.496216  1.771780
   H ( 10)  2.369850  3.168661  2.625420
   H ( 11)  2.369850  2.625420  3.168661  1.776508
 
 A cutoff of  1.0D-08 yielded   3693 shell pairs
 There are  30367 function pairs ( 37906 Cartesian)
Evaluating contribution to one-electron hamiltonian from nuclear
 Smallest overlap matrix eigenvalue = 2.76E-05

 Q-Chem warning in module mkSTV.C, line 194:

 Overlap eigenvalue is smaller than square root of threshold

 Multipole matrices computed through 2nd order

  Scale SEOQF with 1.000000e-01/1.000000e-01/1.000000e-01

 Standard Electronic Orientation quadrupole field applied
 Nucleus-field energy     =     0.0000000040 hartrees
 Guess from superposition of atomic densities
 Warning:  Energy on first SCF cycle will be non-variational
 A restricted hybrid HF-DFT SCF calculation will be
 performed using Pulay DIIS extrapolation
 Exchange:     1.0000 Hartree-Fock + 1.0000 BNL
 Correlation:  1.0000 LYP
 Using SG-1 standard quadrature grid
 SCF converges when DIIS error is below 1.0E-05
 ---------------------------------------
  Cycle       Energy         DIIS Error
 ---------------------------------------
    1    -576.6971215961      2.60E-02
    2    -575.6945843110      2.03E-03
    3    -575.7375148250      9.78E-04
    4    -575.7448011296      3.18E-04
    5    -575.7460378850      7.46E-05
    6    -575.7461207485      2.58E-05
    7    -575.7461283574      8.64E-06 Convergence criterion met
 ---------------------------------------
 One-Electron    Energy = -1105.9604780993
 Total Coulomb   Energy =   416.7600112361
 Alpha Exchange  Energy =    -5.8164109924
 Beta  Exchange  Energy =    -5.8164109924
 DFT   Exchange  Energy =   -30.8445918615
 DFT Correlation Energy =    -1.5006189784
 Nuclear Repu.   Energy =   157.4323713306
 Nuclear Attr.   Energy = -1679.8690273582
 Kinetic         Energy =   573.9085492589
 SCF time:  CPU 178.58 s  wall 198.02 s
 Final Alpha MO Eigenvalues
            1           2           3           4           5           6
    1-100.5793770 -10.1499345 -10.0983100 -10.0870399  -9.4359076  -7.2805695
            7           8           9          10          11          12
    1  -7.2697680  -7.2695837  -1.0668727  -0.9827417  -0.8634605  -0.7827580
           13          14          15          16          17          18
    1  -0.6540224  -0.6004353  -0.5800833  -0.5686898  -0.5110195  -0.5006468
           19          20          21          22          23          24
    1  -0.4911201  -0.4359383  -0.4358226   0.0303376   0.0486658   0.0515075
           25          26
    1   0.0544831   0.0804584
 Analysis of SCF Wavefunction
 
 --------------------------------------------------------------
                    Orbital Energies (a.u.)
 --------------------------------------------------------------
 
 Alpha MOs
 -- Occupied --
******* -10.150 -10.098 -10.087  -9.436  -7.281  -7.270  -7.270
 -1.067  -0.983  -0.863  -0.783  -0.654  -0.600  -0.580  -0.569
 -0.511  -0.501  -0.491  -0.436  -0.436
 -- Virtual --
  0.030   0.049   0.052   0.054   0.080   0.081   0.088   0.090
  0.114   0.130   0.152   0.155   0.159   0.160   0.163   0.177
  0.183   0.186   0.197   0.206   0.212   0.214   0.225   0.250
  0.266   0.271   0.280   0.292   0.318   0.353   0.363   0.370
  0.392   0.415   0.453   0.469   0.474   0.504   0.523   0.539
  0.548   0.572   0.578   0.608   0.611   0.641   0.649   0.671
  0.672   0.679   0.686   0.697   0.704   0.744   0.757   0.783
  0.803   0.831   0.831   0.869   0.888   0.927   0.944   0.964
  1.012   1.016   1.095   1.106   1.161   1.179   1.196   1.217
  1.228   1.232   1.252   1.261   1.267   1.277   1.301   1.309
  1.319   1.337   1.350   1.376   1.403   1.408   1.425   1.436
  1.471   1.512   1.526   1.535   1.558   1.574   1.585   1.592
  1.628   1.637   1.660   1.677   1.718   1.721   1.744   1.745
  1.774   1.808   1.841   1.858   1.918   2.370   2.380   2.514
  2.578   2.669   2.682   2.760   2.791   2.828   2.923   2.932
  2.964   2.969   3.019   3.025   3.092   3.115   3.207   3.217
  3.222   3.244   3.296   3.298   3.386   3.419   3.442   3.482
  3.504   3.512   3.519   3.542   3.588   3.636   3.706   3.720
  3.761   3.810   3.814   3.853   3.858   3.913   3.931   4.002
  4.007   4.074   4.124   4.147   4.148   4.179   4.219   4.261
  4.349   4.375   4.414   4.433   4.448   4.459   4.505   4.541
  4.543   4.568   4.578   4.597   4.625   4.644   4.696   4.720
  4.728   4.743   4.765   4.798   4.822   4.824   4.922   4.960
  5.098   5.224   5.238   5.356   5.381   5.447   5.580   5.656
  5.797   5.861   5.868   5.908   5.919   9.988  20.728  20.735
 20.973  24.295  24.466  24.573  27.273  27.318  27.363  27.408
 27.412  27.785  27.934  28.158  28.256  28.280  28.320  28.410
 28.556  28.630  37.011  37.011  37.017  37.019  37.023  37.026
 37.035  40.986  41.032  41.041  41.048  41.113  41.134  41.312
 41.333  41.360  41.365  41.390  41.429  41.439  41.443  41.489
216.484
 --------------------------------------------------------------
 
          Ground-State Mulliken Net Atomic Charges

     Atom                 Charge (a.u.)
  ----------------------------------------
      1 C                    -0.028420
      2 C                    -0.450919
      3 C                    -0.016180
      4 H                     0.118012
      5 H                     0.118001
      6 H                     0.120132
      7 Cl                   -0.321799
      8 H                     0.110460
      9 H                     0.110483
     10 H                     0.120091
     11 H                     0.120138
  ----------------------------------------
  Sum of atomic charges =     0.000000

 -----------------------------------------------------------------
                    Cartesian Multipole Moments
 -----------------------------------------------------------------
    Charge (ESU x 10^10)
                 0.0000
    Dipole Moment (Debye)
         X       2.1423      Y       0.0000      Z       1.0996
       Tot       2.4080
    Quadrupole Moments (Debye-Ang)
        XX     -40.4183     XY      -0.0001     YY     -32.9386
        XZ      -1.5134     YZ       0.0000     ZZ     -32.4538
    Octapole Moments (Debye-Ang^2)
       XXX     121.8299    XXY       0.0033    XYY      34.5534
       YYY      -0.0002    XXZ     -10.8573    XYZ       0.0016
       YYZ      -8.3830    XZZ      32.2368    YZZ       0.0012
       ZZZ     -28.8754
    Hexadecapole Moments (Debye-Ang^3)
      XXXX    -829.8752   XXXY      -0.0187   XXYY    -144.7634
      XYYY       0.0012   YYYY     -57.6906   XXXZ     -15.5673
      XXYZ      -0.0070   XYYZ      -9.6897   YYYZ       0.0007
      XXZZ    -150.1727   XYZZ      -0.0019   YYZZ     -27.7444
      XZZZ     -26.3328   YZZZ       0.0015   ZZZZ    -133.1731
 -----------------------------------------------------------------
 Total job time:  202.43s(wall), 179.01s(cpu) 
 Mon Apr 11 18:45:10 2011

        *************************************************************
        *                                                           *
        *  Thank you very much for using Q-Chem.  Have a nice day.  *
        *                                                           *
        *************************************************************


0 sent ACK to 0 
now end server 0 ... 
 
**********************************************************************
Job 3 of 3 
**********************************************************************
 
Process 0 of 1 is on cl197.stfx.acenet.ca - thread support 1
initial socket setup ...start
initial socket setup ...done 
now start server 0 ... 

cmd = /usr/bin/ssh clhead /usr/local/qchem/bin/get_hostid 2117514974 > /globalscratch/itamblyn/bnl/g297_b3lyp_neut_g03Large/g2g71126/omega600/qchem8376/lic.dat
                  Welcome to Q-Chem
     A Quantum Leap Into The Future Of Chemistry

 Y. Shao, L. Fusti-Molnar, Y. Jung, J. Kussmann, C. Ochsenfeld,
 S. T. Brown, A. T. B. Gilbert, L. V. Slipchenko,S. V. Levchenko,
 D. P. O'Neill, R. A. DiStasio Jr., R. C. Lochan, T. Wang,
 G. J. O. Beran, N. A. Besley, J. M. Herbert, C. Y. Lin,
 T. Van Voorhis, S. H. Chien, A. Sodt, R. P. Steele, 
 V. A. Rassolov, P. E. Maslen, P. P. Korambath, R. D. Adamson,
 B. Austin, J. Baker, E. F. C. Byrd, H. Dachsel, R. J. Doerksen,
 A. Dreuw, B. D. Dunietz, A. D. Dutoi, T. R. Furlani,
 S. R. Gwaltney, A. Heyden, S. Hirata, C.-P. Hsu, G. Kedziora,
 R. Z. Khaliullin, P. Klunzinger, A. M. Lee, M. S. Lee, W. Liang,
 I. Lotan, N. Nair, B. Peters, E. I. Proynov, P. A. Pieniazek, 
 Y. M. Rhee, J. Ritchie, E. Rosta, C. D. Sherrill, 
 A. C. Simmonett, J. E. Subotnik, H. L. Woodcock III,
 W. Zhang, A. T. Bell, A. K. Chakraborty, D. M. Chipman,
 F. J. Keil, A. Warshel, W. J. Hehre, H. F. Schaefer III,
 J. Kong, A. I. Krylov, P. M. W. Gill, M. Head-Gordon,
 Q-Chem, Version 3.1, Q-Chem, Inc., Pittsburgh, PA (2007).

 Additional authors for Version 3.1: 
 Z. Gan, Y. Zhao, N. E. Schultz, D. Truhlar, E. Epifanovsky and M. Oana.

 Additional authors for Version 3.2: 
 R. Baer, B. R. Brooks, D. Casanova, J.-D. Chai, C.-L. Cheng, 
 C. Cramer, D. Crittenden, A. Ghysels, G. Hawkins, E. G. Hohenstein, 
 C. Kelley, W. Kurlancheek, D. Liotard, E. Livshits, P. Manohar, 
 A. Marenich, D. Neuhauser, R. Olson, M. A. Rohrdanz, K. S. Thanthiriwatte, 
 A. J. W. Thom, V. Vanovschi, C. F. Williams, Q. Wu and Z.-Q. You. 


 Intel X86 Linux Version

 Q-chem begins on Mon Apr 11 18:45:13 2011  

 Parallel job on  1  processors
Processing $rem in /usr/local/qchem/config/preferences.

theFileMan(): MAXOPENFILES=974 MAX_SUB_FILE_NUM=16
Maximum size of a physical file is 2.0 GB, maximum size of a tmp-file is 32.0 GB


--------------------------------------------------------------
User input:
--------------------------------------------------------------

$molecule
1,2
C
X,1,1.
C,1,R1,2,THETA1
C,1,R1a,2,theta1a,3,180.,0
H,1,R2,2,THETA2,3,90.,0
H,1,R2,2,THETA2,3,-90.,0
H,3,R3,1,THETA3,2,180.,0
Cl,4,R5,1,theta6,2,180.,0
X,3,1.,1,THETA4,2,0.,0
H,3,R4,9,THETA5,1,90.,0
H,3,R4,9,THETA5,1,-90.,0
X,4,1.,1,THETA4a,2,0.,0
H,4,R4a,12,THETA5a,1,90.,0
H,4,R4a,12,THETA5a,1,-90.,0

R1a=1.52309438
R1=1.53450477
R2=1.09616
R3=1.09513102
R4=1.09654921
R4a=1.09254388
THETA1=54.73579058
THETA2=126.58788234
theta1a=56.51992893
THETA3=110.60770195
THETA4=128.40127449
THETA5=53.89018205
THETA4a=129.44505213
THETA5a=54.39150454
R5=1.82004582
theta6=111.91183995

$end

$comment
positive
$end

$xc_functional
   X HF 1.0
   X BNL 1.0
   C LYP 1.0
$end

$rem
SYMMETRY_DECOMPOSITION	0
exchange 		general
BASIS                   g3large
omega			600
separate_jk		true
mem_static              760
max_scf_cycles          200
scf_final_print         1
sym_ignore              true
$end

--------------------------------------------------------------
 Writing REM_CC_EA           11
 ----------------------------------------------------
       Standard Nuclear Orientation (Angstroms)
    I     Atom         X            Y            Z
 ----------------------------------------------------
    1      C       0.000000     0.000000     0.000000
    2      C       1.252921     0.000000     0.885943
    3      C      -1.270379     0.000000     0.840210
    4      H       0.000000    -0.880155    -0.653372
    5      H       0.000000     0.880155    -0.653372
    6      H       2.159454     0.000000     0.271525
    7      Cl     -2.768379     0.000000    -0.193503
    8      H       1.288286     0.885890     1.531209
    9      H       1.288286    -0.885890     1.531209
   10      H      -1.336486    -0.888254     1.472893
   11      H      -1.336486     0.888254     1.472893
 ----------------------------------------------------
 Nuclear Repulsion Energy =   157.4323713266 hartrees
 There are       21 alpha and       20 beta electrons
 Requested basis set is G3large
 There are 91 shells and 262 basis functions

Total QAlloc Memory Limit   2000 MB
Mega-Array Size       743 MB
MEM_STATIC part       760 MB

                       Distance Matrix (Angstroms)
             C (  1)   C (  2)   C (  3)   H (  4)   H (  5)   H (  6)
   C (  2)  1.534505
   C (  3)  1.523094  2.523714
   H (  4)  1.096160  2.171168  2.149261
   H (  5)  1.096160  2.171168  2.149261  1.760309
   H (  6)  2.176458  1.095131  3.476659  2.508655  2.508655
   Cl(  7)  2.775134  4.163659  1.820046  2.941101  2.941101  4.949726
   H (  8)  2.188397  1.096549  2.794467  3.090467  2.536160  1.769333
   H (  9)  2.188397  1.096549  2.794467  2.536160  3.090467  1.769333
   H ( 10)  2.178211  2.799738  1.092544  2.511426  3.071557  3.801825
   H ( 11)  2.178211  2.799738  1.092544  3.071557  2.511426  3.801825
             Cl(  7)   H (  8)   H (  9)   H ( 10)
   H (  8)  4.496216
   H (  9)  4.496216  1.771780
   H ( 10)  2.369850  3.168661  2.625420
   H ( 11)  2.369850  2.625420  3.168661  1.776508
 
 A cutoff of  1.0D-08 yielded   3693 shell pairs
 There are  30367 function pairs ( 37906 Cartesian)
Evaluating contribution to one-electron hamiltonian from nuclear
 Smallest overlap matrix eigenvalue = 2.76E-05

 Q-Chem warning in module mkSTV.C, line 194:

 Overlap eigenvalue is smaller than square root of threshold

 Multipole matrices computed through 2nd order

  Scale SEOQF with 1.000000e-01/1.000000e-01/1.000000e-01

 Standard Electronic Orientation quadrupole field applied
 Nucleus-field energy     =     0.0000000040 hartrees
 Guess from superposition of atomic densities
 Warning:  Energy on first SCF cycle will be non-variational
 An unrestricted hybrid HF-DFT SCF calculation will be
 performed using Pulay DIIS extrapolation
 Exchange:     1.0000 Hartree-Fock + 1.0000 BNL
 Correlation:  1.0000 LYP
 Using SG-1 standard quadrature grid
 SCF converges when DIIS error is below 1.0E-05
 Warning!  Inaccurate integrated density:
   Number of electrons =    41
   Numerical integral  =    42.000340802477
   Relative error      =     2.4398556158 %
 ---------------------------------------
  Cycle       Energy         DIIS Error
 ---------------------------------------
    1    -576.6971215961      2.60E-02
    2    -575.2315936948      2.27E-03
    3    -575.2865677662      1.61E-03
    4    -575.3092354229      3.63E-04
    5    -575.3167141599      2.98E-04
    6    -575.3204375564      2.14E-04
    7    -575.3290043620      1.77E-04
    8    -575.3357252469      1.41E-04
    9    -575.3356737382      9.19E-05
   10    -575.3369490378      4.17E-05
   11    -575.3370310058      3.20E-05
   12    -575.3371018889      1.79E-05
   13    -575.3371326273      5.82E-06 Convergence criterion met
 ---------------------------------------
 One-Electron    Energy = -1095.0387254468
 Total Coulomb   Energy =   405.9109512806
 Alpha Exchange  Energy =    -5.8501899534
 Beta  Exchange  Energy =    -5.5711363376
 DFT   Exchange  Energy =   -30.7557645297
 DFT Correlation Energy =    -1.4646389711
 Nuclear Repu.   Energy =   157.4323713306
 Nuclear Attr.   Energy = -1668.6031701627
 Kinetic         Energy =   573.5644447159
 <S^2> = 0.7552
 SCF time:  CPU 413.00 s  wall 458.31 s
 Final Alpha MO Eigenvalues
            1           2           3           4           5           6
    1-100.9633449 -10.3950750 -10.2900020 -10.2426222  -9.8139126  -7.6647574
            7           8           9          10          11          12
    1  -7.6518731  -7.6422245  -1.3941635  -1.2020354  -1.0791291  -0.9796073
           13          14          15          16          17          18
    1  -0.8964891  -0.8557587  -0.8295372  -0.7966889  -0.7555103  -0.7361623
           19          20          21          22          23          24
    1  -0.6963291  -0.6751269  -0.6613138  -0.1390138  -0.1077135  -0.0797624
           25          26
    1  -0.0763489  -0.0668360
 Final Beta MO Eigenvalues
            1           2           3           4           5           6
    1-100.9563657 -10.3947174 -10.2896360 -10.2425581  -9.8066173  -7.6487947
            7           8           9          10          11          12
    1  -7.6466199  -7.6367410  -1.3450787  -1.1888817  -1.0692857  -0.9754167
           13          14          15          16          17          18
    1  -0.8650449  -0.8433482  -0.8002515  -0.7556450  -0.7334944  -0.6933861
           19          20          21          22          23          24
    1  -0.6744904  -0.6607755  -0.3833307  -0.1295933  -0.1078634  -0.0790218
           25
    1  -0.0761119
 Analysis of SCF Wavefunction
 
 --------------------------------------------------------------
                    Orbital Energies (a.u.)
 --------------------------------------------------------------
 
 Alpha MOs
 -- Occupied --
******* -10.395 -10.290 -10.243  -9.814  -7.665  -7.652  -7.642
 -1.394  -1.202  -1.079  -0.980  -0.896  -0.856  -0.830  -0.797
 -0.756  -0.736  -0.696  -0.675  -0.661
 -- Virtual --
 -0.139  -0.108  -0.080  -0.076  -0.067  -0.046  -0.042  -0.029
 -0.027  -0.026  -0.009   0.006   0.009   0.022   0.024   0.029
  0.044   0.047   0.056   0.060   0.063   0.075   0.079   0.097
  0.102   0.108   0.119   0.131   0.145   0.153   0.163   0.179
  0.207   0.220   0.229   0.254   0.274   0.289   0.344   0.359
  0.365   0.368   0.382   0.394   0.403   0.461   0.477   0.484
  0.492   0.498   0.509   0.534   0.541   0.558   0.570   0.607
  0.609   0.639   0.647   0.678   0.694   0.748   0.757   0.765
  0.817   0.858   0.866   0.871   0.906   0.927   0.933   0.956
  0.964   0.970   0.985   1.016   1.039   1.072   1.102   1.106
  1.108   1.136   1.158   1.168   1.184   1.189   1.209   1.244
  1.279   1.288   1.325   1.333   1.336   1.384   1.388   1.395
  1.435   1.437   1.445   1.486   1.498   1.521   1.529   1.570
  1.574   1.596   1.646   1.660   1.662   2.034   2.067   2.220
  2.390   2.486   2.503   2.561   2.610   2.641   2.717   2.736
  2.765   2.769   2.825   2.834   2.899   2.963   2.986   3.008
  3.015   3.042   3.110   3.132   3.189   3.228   3.229   3.274
  3.310   3.325   3.339   3.343   3.356   3.443   3.517   3.536
  3.549   3.595   3.607   3.655   3.663   3.722   3.729   3.809
  3.817   3.892   3.911   3.951   3.964   4.008   4.026   4.063
  4.136   4.154   4.185   4.193   4.197   4.236   4.259   4.270
  4.282   4.297   4.311   4.321   4.367   4.372   4.401   4.471
  4.534   4.537   4.545   4.563   4.628   4.632   4.709   4.760
  4.850   4.859   4.902   4.998   5.046   5.253   5.379   5.447
  5.585   5.612   5.648   5.718   5.741   9.620  20.336  20.363
 20.604  24.066  24.281  24.395  26.888  26.946  26.977  27.029
 27.058  27.581  27.739  27.895  28.028  28.103  28.165  28.223
 28.347  28.452  36.627  36.630  36.637  36.639  36.646  36.659
 36.667  40.740  40.801  40.849  40.883  40.922  40.969  41.066
 41.099  41.139  41.178  41.205  41.245  41.249  41.287  41.314
216.101
 
 Beta MOs
 -- Occupied --
******* -10.395 -10.290 -10.243  -9.807  -7.649  -7.647  -7.637
 -1.345  -1.189  -1.069  -0.975  -0.865  -0.843  -0.800  -0.756
 -0.733  -0.693  -0.674  -0.661
 -- Virtual --
 -0.383  -0.130  -0.108  -0.079  -0.076  -0.066  -0.044  -0.041
 -0.027  -0.026  -0.024  -0.009   0.007   0.011   0.024   0.027
  0.029   0.045   0.048   0.058   0.061   0.072   0.077   0.079
  0.097   0.104   0.110   0.124   0.136   0.160   0.167   0.170
  0.181   0.213   0.227   0.246   0.256   0.278   0.295   0.351
  0.363   0.369   0.372   0.389   0.399   0.405   0.463   0.479
  0.485   0.495   0.500   0.510   0.536   0.542   0.560   0.572
  0.609   0.614   0.641   0.647   0.680   0.696   0.749   0.760
  0.767   0.819   0.860   0.874   0.876   0.919   0.941   0.954
  0.964   0.982   0.982   0.996   1.021   1.047   1.077   1.105
  1.108   1.110   1.140   1.159   1.171   1.189   1.192   1.214
  1.245   1.282   1.296   1.327   1.335   1.342   1.385   1.391
  1.401   1.436   1.442   1.447   1.488   1.506   1.522   1.531
  1.573   1.576   1.597   1.648   1.662   1.666   2.067   2.077
  2.228   2.392   2.488   2.504   2.564   2.610   2.641   2.719
  2.738   2.766   2.770   2.827   2.835   2.900   2.963   2.989
  3.009   3.016   3.043   3.111   3.132   3.190   3.230   3.231
  3.276   3.312   3.327   3.340   3.343   3.357   3.444   3.518
  3.537   3.550   3.597   3.609   3.657   3.664   3.725   3.730
  3.811   3.818   3.893   3.917   3.952   3.965   4.009   4.029
  4.066   4.150   4.161   4.202   4.218   4.225   4.256   4.271
  4.271   4.298   4.315   4.319   4.331   4.376   4.377   4.412
  4.478   4.537   4.546   4.546   4.565   4.629   4.634   4.712
  4.762   4.870   4.875   4.907   5.015   5.053   5.256   5.382
  5.449   5.594   5.616   5.650   5.719   5.741   9.635  20.357
 20.371  20.611  24.066  24.282  24.395  26.902  26.955  26.991
 27.039  27.063  27.581  27.739  27.896  28.029  28.103  28.165
 28.224  28.347  28.452  36.634  36.636  36.643  36.645  36.652
 36.661  36.669  40.741  40.802  40.850  40.883  40.923  40.969
 41.066  41.099  41.140  41.178  41.205  41.245  41.249  41.287
 41.315 216.109
 --------------------------------------------------------------
 
          Ground-State Mulliken Net Atomic Charges

     Atom                 Charge (a.u.)    Spin (a.u.)
  --------------------------------------------------------
      1 C                    -0.093283       0.018423
      2 C                    -0.409336       0.004550
      3 C                    -0.012361      -0.010173
      4 H                     0.150314       0.002907
      5 H                     0.155573       0.000156
      6 H                     0.158335       0.001043
      7 Cl                    0.410660       0.920603
      8 H                     0.131536       0.000012
      9 H                     0.132653      -0.000268
     10 H                     0.184187       0.014197
     11 H                     0.191723       0.048550
  --------------------------------------------------------
  Sum of atomic charges =     1.000000
  Sum of spin   charges =     1.000000

 -----------------------------------------------------------------
                    Cartesian Multipole Moments
 -----------------------------------------------------------------
    Charge (ESU x 10^10)
                 4.8032
    Dipole Moment (Debye)
         X      -7.4030      Y       0.0691      Z       1.6894
       Tot       7.5936
    Quadrupole Moments (Debye-Ang)
        XX      -7.1495     XY      -0.4802     YY     -28.0409
        XZ      -0.1321     YZ       0.7220     ZZ     -26.5315
    Octapole Moments (Debye-Ang^2)
       XXX      30.1618    XXY       2.4261    XYY      25.4013
       YYY       0.0688    XXZ     -11.8844    XYZ      -1.7058
       YYZ      -7.4208    XZZ      24.9677    YZZ      -0.0322
       ZZZ     -24.4538
    Hexadecapole Moments (Debye-Ang^3)
      XXXX    -493.0892   XXXY     -10.4666   XXYY    -113.9636
      XYYY      -0.3701   YYYY     -46.3770   XXXZ      -4.0969
      XXYZ       4.4283   XYYZ      -8.3663   YYYZ       0.6489
      XXZZ    -123.8031   XYZZ       0.3662   YYZZ     -21.1382
      XZZZ     -24.4403   YZZZ       1.0596   ZZZZ    -112.2332
 -----------------------------------------------------------------
 Total job time:  461.61s(wall), 413.39s(cpu) 
 Mon Apr 11 18:52:55 2011

        *************************************************************
        *                                                           *
        *  Thank you very much for using Q-Chem.  Have a nice day.  *
        *                                                           *
        *************************************************************


0 sent ACK to 0 
now end server 0 ... 
