Process 0 of 1 is on cl116.stfx.acenet.ca - thread support 1
initial socket setup ...start
initial socket setup ...done 
now start server 0 ... 

cmd = /usr/bin/ssh clhead /usr/local/qchem/bin/get_hostid 1365884764 > /scratch/tmp/5956433.1.short.q/qchem23147/lic.dat
                  Welcome to Q-Chem
     A Quantum Leap Into The Future Of Chemistry

 Y. Shao, L. Fusti-Molnar, Y. Jung, J. Kussmann, C. Ochsenfeld,
 S. T. Brown, A. T. B. Gilbert, L. V. Slipchenko,S. V. Levchenko,
 D. P. O'Neill, R. A. DiStasio Jr., R. C. Lochan, T. Wang,
 G. J. O. Beran, N. A. Besley, J. M. Herbert, C. Y. Lin,
 T. Van Voorhis, S. H. Chien, A. Sodt, R. P. Steele, 
 V. A. Rassolov, P. E. Maslen, P. P. Korambath, R. D. Adamson,
 B. Austin, J. Baker, E. F. C. Byrd, H. Dachsel, R. J. Doerksen,
 A. Dreuw, B. D. Dunietz, A. D. Dutoi, T. R. Furlani,
 S. R. Gwaltney, A. Heyden, S. Hirata, C.-P. Hsu, G. Kedziora,
 R. Z. Khaliullin, P. Klunzinger, A. M. Lee, M. S. Lee, W. Liang,
 I. Lotan, N. Nair, B. Peters, E. I. Proynov, P. A. Pieniazek, 
 Y. M. Rhee, J. Ritchie, E. Rosta, C. D. Sherrill, 
 A. C. Simmonett, J. E. Subotnik, H. L. Woodcock III,
 W. Zhang, A. T. Bell, A. K. Chakraborty, D. M. Chipman,
 F. J. Keil, A. Warshel, W. J. Hehre, H. F. Schaefer III,
 J. Kong, A. I. Krylov, P. M. W. Gill, M. Head-Gordon,
 Q-Chem, Version 3.1, Q-Chem, Inc., Pittsburgh, PA (2007).

 Additional authors for Version 3.1: 
 Z. Gan, Y. Zhao, N. E. Schultz, D. Truhlar, E. Epifanovsky and M. Oana.

 Additional authors for Version 3.2: 
 R. Baer, B. R. Brooks, D. Casanova, J.-D. Chai, C.-L. Cheng, 
 C. Cramer, D. Crittenden, A. Ghysels, G. Hawkins, E. G. Hohenstein, 
 C. Kelley, W. Kurlancheek, D. Liotard, E. Livshits, P. Manohar, 
 A. Marenich, D. Neuhauser, R. Olson, M. A. Rohrdanz, K. S. Thanthiriwatte, 
 A. J. W. Thom, V. Vanovschi, C. F. Williams, Q. Wu and Z.-Q. You. 


 Intel X86 Linux Version

 Q-chem begins on Tue Apr 30 22:48:34 2013  

 Parallel job on  1  processors
Processing $rem in /usr/local/qchem/config/preferences.

theFileMan(): MAXOPENFILES=974 MAX_SUB_FILE_NUM=16
Maximum size of a physical file is 2.0 GB, maximum size of a tmp-file is 32.0 GB


--------------------------------------------------------------
User input:
--------------------------------------------------------------

$molecule
-1,2
C1
C2,C1,rcc
O1,C1,rco,C2,a1
H,C1,rch,C2,a2,O1,180.0,0
O2,C2,rco,C1,a1,O1,180.,0
H,C2,rch,C1,a2,O1,0.,0

rcc=1.52501583
rco=1.20949276
rch=1.10918789
a1=121.52291302
a2=114.69886473

$end

$comment
negative
$end

$xc_functional
C PBE   1.00
X wPBE  1.00
$end

$rem
SYMMETRY_DECOMPOSITION	0
exchange 		general
LRC_DFT                 true
BASIS                   g3large
omega			380
mem_static              760
max_scf_cycles          200
scf_final_print         1
sym_ignore              true
$end

--------------------------------------------------------------
 Writing REM_CC_EA            6
 ----------------------------------------------------
       Standard Nuclear Orientation (Angstroms)
    I     Atom         X            Y            Z
 ----------------------------------------------------
    1      C       0.000000     0.000000     0.000000
    2      C       0.000000     0.000000     1.525016
    3      O       1.031009     0.000000    -0.632371
    4      H      -1.007715     0.000000    -0.463473
    5      O      -1.031009     0.000000     2.157386
    6      H       1.007715     0.000000     1.988489
 ----------------------------------------------------
 Nuclear Repulsion Energy =   101.6119437778 hartrees
 There are       16 alpha and       15 beta electrons
 Requested basis set is G3large
 There are 52 shells and 188 basis functions

Total QAlloc Memory Limit   2000 MB
Mega-Array Size       743 MB
MEM_STATIC part       760 MB

                       Distance Matrix (Angstroms)
             C (  1)   C (  2)   O (  3)   H (  4)   O (  5)
   C (  2)  1.525016
   O (  3)  1.209493  2.391087
   H (  4)  1.109188  2.229255  2.045709
   O (  5)  2.391087  1.209493  3.469101  2.620963
   H (  6)  2.229255  1.109188  2.620963  3.173969  2.045709
 
 A cutoff of  1.0D-08 yielded   1239 shell pairs
 There are  16161 function pairs ( 20529 Cartesian)
Evaluating contribution to one-electron hamiltonian from nuclear
 Smallest overlap matrix eigenvalue = 1.82E-04
 Multipole matrices computed through 2nd order

  Scale SEOQF with 1.000000e-01/1.000000e-01/1.000000e-01

 Standard Electronic Orientation quadrupole field applied
 Nucleus-field energy     =    -0.0000000056 hartrees
 Guess from superposition of atomic densities
 Warning:  Energy on first SCF cycle will be non-variational
 Long-range K will be added via erf
 Coulomb attenuation parameter = 0.38 bohr**(-1)
 An unrestricted Kohn-Sham SCF calculation will be
 performed using Pulay DIIS extrapolation
 Exchange:  wPBE + LR-HF      Correlation:  PBE
 Using SG-1 standard quadrature grid
 SCF converges when DIIS error is below 1.0E-05
 Requested basis set is G3large
 There are 52 shells and 188 basis functions
 A cutoff of  1.0D-08 yielded   1239 shell pairs
 There are  16161 function pairs ( 20529 Cartesian)
 Warning!  Inaccurate integrated density:
   Number of electrons =    31
   Numerical integral  =    29.999862858428
   Relative error      =    -3.2262488438 %
 ---------------------------------------
  Cycle       Energy         DIIS Error
 ---------------------------------------
    1    -228.6638612736      3.61E-02
    2    -227.5504545825      7.61E-03
    3    -227.4825805608      9.66E-03
    4    -227.7619889295      4.87E-04
    5    -227.7636980374      2.31E-04
    6    -227.7642413350      6.50E-05
    7    -227.7643525850      2.48E-05
    8    -227.7644059874      1.07E-05
    9    -227.7644179939      3.91E-06 Convergence criterion met
 ---------------------------------------
 One-Electron    Energy =  -519.5177410096
 Total Coulomb   Energy =   218.9817169326
 Alpha Exchange  Energy =    -3.0837893212
 Beta  Exchange  Energy =    -2.8961796378
 DFT   Exchange  Energy =   -21.8364492237
 DFT Correlation Energy =    -1.0239195064
 Nuclear Repu.   Energy =   101.6119437722
 Nuclear Attr.   Energy =  -746.7798718990
 Kinetic         Energy =   227.2621308894
 <S^2> = 0.7593
 SCF time:  CPU 88.99 s  wall 90.47 s
 Final Alpha MO Eigenvalues
            1           2           3           4           5           6
    1 -18.7111799 -18.7111610  -9.9367641  -9.9365831  -0.9537452  -0.9387223
            7           8           9          10          11          12
    1  -0.5873008  -0.4864396  -0.3723660  -0.3632023  -0.3391656  -0.3274142
           13          14          15          16          17          18
    1  -0.2865302  -0.1960553  -0.1302341  -0.0408630   0.1773279   0.1783222
           19          20          21
    1   0.2372964   0.2553454   0.2610072
 Final Beta MO Eigenvalues
            1           2           3           4           5           6
    1 -18.7042642 -18.7042439  -9.9342894  -9.9341766  -0.9423282  -0.9272563
            7           8           9          10          11          12
    1  -0.5649503  -0.4796445  -0.3683674  -0.3539829  -0.3203095  -0.2994176
           13          14          15          16          17          18
    1  -0.2383963  -0.1888851  -0.1231756   0.1774155   0.1786784   0.2375690
           19          20
    1   0.2376014   0.2558054
 Analysis of SCF Wavefunction
 
 --------------------------------------------------------------
                    Orbital Energies (a.u.)
 --------------------------------------------------------------
 
 Alpha MOs
 -- Occupied --
-18.711 -18.711  -9.937  -9.937  -0.954  -0.939  -0.587  -0.486
 -0.372  -0.363  -0.339  -0.327  -0.287  -0.196  -0.130  -0.041
 -- Virtual --
  0.177   0.178   0.237   0.255   0.261   0.263   0.277   0.310
  0.315   0.334   0.347   0.427   0.430   0.445   0.464   0.492
  0.509   0.520   0.524   0.543   0.572   0.650   0.699   0.703
  0.781   0.814   0.832   0.840   0.870   0.904   0.906   0.913
  0.988   1.019   1.055   1.075   1.126   1.259   1.277   1.304
  1.318   1.337   1.363   1.374   1.382   1.421   1.431   1.437
  1.474   1.502   1.561   1.630   1.687   1.795   1.815   1.845
  1.947   2.030   2.034   2.075   2.097   2.231   2.311   2.405
  2.502   2.740   2.741   2.771   2.869   2.922   2.946   2.991
  3.065   3.151   3.215   3.220   3.224   3.321   3.359   3.416
  3.447   3.534   3.563   3.629   3.634   3.653   3.669   3.745
  3.812   3.823   3.942   3.954   3.984   4.100   4.129   4.150
  4.364   4.424   4.460   4.468   4.492   4.751   4.914   4.914
  5.278   5.285   5.294   5.343   5.373   5.391   5.393   5.417
  5.559   5.674   5.764   5.780   5.781   5.789   6.067   6.135
  6.528   6.552   6.754   7.057   7.114   7.128   7.130   7.198
  7.257   7.260   7.470   7.531   7.702   7.739   7.889   7.954
 24.666  24.777  27.414  27.532  27.868  28.357  28.399  28.705
 41.054  41.146  41.193  41.243  41.300  41.304  41.367  41.372
 41.525  41.530  43.935  43.954  43.980  43.989  44.075  44.100
 44.101  44.142  44.218  44.241  45.927  45.931  46.028  46.061
 46.749  46.772  50.259  50.283
 
 Beta MOs
 -- Occupied --
-18.704 -18.704  -9.934  -9.934  -0.942  -0.927  -0.565  -0.480
 -0.368  -0.354  -0.320  -0.299  -0.238  -0.189  -0.123
 -- Virtual --
  0.177   0.179   0.238   0.238   0.256   0.271   0.277   0.279
  0.310   0.321   0.348   0.370   0.430   0.433   0.446   0.485
  0.498   0.510   0.522   0.525   0.545   0.573   0.659   0.702
  0.710   0.783   0.831   0.847   0.851   0.873   0.910   0.918
  0.927   1.004   1.025   1.058   1.080   1.137   1.267   1.285
  1.308   1.319   1.349   1.365   1.378   1.399   1.424   1.440
  1.448   1.478   1.516   1.567   1.634   1.690   1.799   1.826
  1.852   1.964   2.045   2.048   2.091   2.105   2.247   2.318
  2.422   2.505   2.745   2.746   2.778   2.884   2.925   2.957
  3.009   3.085   3.157   3.221   3.230   3.235   3.331   3.366
  3.433   3.460   3.543   3.575   3.637   3.640   3.668   3.680
  3.760   3.816   3.836   3.956   3.959   3.988   4.103   4.132
  4.155   4.377   4.427   4.465   4.475   4.497   4.754   4.916
  4.918   5.299   5.313   5.317   5.362   5.394   5.409   5.410
  5.423   5.568   5.682   5.783   5.794   5.795   5.806   6.070
  6.138   6.547   6.570   6.757   7.069   7.144   7.153   7.160
  7.204   7.265   7.282   7.497   7.558   7.707   7.745   7.901
  7.966  24.669  24.780  27.422  27.540  27.870  28.358  28.400
 28.706  41.061  41.154  41.194  41.244  41.306  41.310  41.372
 41.378  41.526  41.531  43.955  43.974  43.997  44.007  44.093
 44.103  44.117  44.143  44.223  44.246  45.948  45.952  46.032
 46.065  46.754  46.777  50.266  50.289
 --------------------------------------------------------------
 
          Ground-State Mulliken Net Atomic Charges

     Atom                 Charge (a.u.)    Spin (a.u.)
  --------------------------------------------------------
      1 C                    -0.069351       0.276148
      2 C                    -0.069355       0.276148
      3 O                    -0.448247       0.249006
      4 H                     0.017597      -0.025160
      5 O                    -0.448240       0.249010
      6 H                     0.017595      -0.025152
  --------------------------------------------------------
  Sum of atomic charges =    -1.000000
  Sum of spin   charges =     1.000000

 -----------------------------------------------------------------
                    Cartesian Multipole Moments
 -----------------------------------------------------------------
    Charge (ESU x 10^10)
                -4.8032
    Dipole Moment (Debye)
         X       0.0000      Y       0.0000      Z      -3.6625
       Tot       3.6625
    Quadrupole Moments (Debye-Ang)
        XX     -33.2408     XY       0.0003     YY     -26.2095
        XZ       9.0901     YZ      -0.0004     ZZ     -40.0266
    Octapole Moments (Debye-Ang^2)
       XXX       0.0001    XXY       0.0000    XYY       0.0000
       YYY       0.0000    XXZ     -25.3464    XYZ       0.0002
       YYZ     -19.9850    XZZ      13.8626    YZZ      -0.0006
       ZZZ     -87.3032
    Hexadecapole Moments (Debye-Ang^3)
      XXXX    -137.3226   XXXY       0.0005   XXYY     -26.4773
      XYYY       0.0003   YYYY     -33.1724   XXXZ      57.5676
      XXYZ      -0.0005   XYYZ      15.1124   YYYZ      -0.0009
      XXZZ     -93.6772   XYZZ       0.0008   YYZZ     -59.5155
      XZZZ      85.3937   YZZZ      -0.0023   ZZZZ    -397.9698
 -----------------------------------------------------------------
 Total job time:  90.68s(wall), 89.19s(cpu) 
 Tue Apr 30 22:50:04 2013

        *************************************************************
        *                                                           *
        *  Thank you very much for using Q-Chem.  Have a nice day.  *
        *                                                           *
        *************************************************************


0 sent ACK to 0 
now end server 0 ... 
 
**********************************************************************
Job 2 of 3 
**********************************************************************
 
Process 0 of 1 is on cl116.stfx.acenet.ca - thread support 1
initial socket setup ...start
initial socket setup ...done 
now start server 0 ... 

cmd = /usr/bin/ssh clhead /usr/local/qchem/bin/get_hostid 707968626 > /scratch/tmp/5956433.1.short.q/qchem23147/lic.dat
                  Welcome to Q-Chem
     A Quantum Leap Into The Future Of Chemistry

 Y. Shao, L. Fusti-Molnar, Y. Jung, J. Kussmann, C. Ochsenfeld,
 S. T. Brown, A. T. B. Gilbert, L. V. Slipchenko,S. V. Levchenko,
 D. P. O'Neill, R. A. DiStasio Jr., R. C. Lochan, T. Wang,
 G. J. O. Beran, N. A. Besley, J. M. Herbert, C. Y. Lin,
 T. Van Voorhis, S. H. Chien, A. Sodt, R. P. Steele, 
 V. A. Rassolov, P. E. Maslen, P. P. Korambath, R. D. Adamson,
 B. Austin, J. Baker, E. F. C. Byrd, H. Dachsel, R. J. Doerksen,
 A. Dreuw, B. D. Dunietz, A. D. Dutoi, T. R. Furlani,
 S. R. Gwaltney, A. Heyden, S. Hirata, C.-P. Hsu, G. Kedziora,
 R. Z. Khaliullin, P. Klunzinger, A. M. Lee, M. S. Lee, W. Liang,
 I. Lotan, N. Nair, B. Peters, E. I. Proynov, P. A. Pieniazek, 
 Y. M. Rhee, J. Ritchie, E. Rosta, C. D. Sherrill, 
 A. C. Simmonett, J. E. Subotnik, H. L. Woodcock III,
 W. Zhang, A. T. Bell, A. K. Chakraborty, D. M. Chipman,
 F. J. Keil, A. Warshel, W. J. Hehre, H. F. Schaefer III,
 J. Kong, A. I. Krylov, P. M. W. Gill, M. Head-Gordon,
 Q-Chem, Version 3.1, Q-Chem, Inc., Pittsburgh, PA (2007).

 Additional authors for Version 3.1: 
 Z. Gan, Y. Zhao, N. E. Schultz, D. Truhlar, E. Epifanovsky and M. Oana.

 Additional authors for Version 3.2: 
 R. Baer, B. R. Brooks, D. Casanova, J.-D. Chai, C.-L. Cheng, 
 C. Cramer, D. Crittenden, A. Ghysels, G. Hawkins, E. G. Hohenstein, 
 C. Kelley, W. Kurlancheek, D. Liotard, E. Livshits, P. Manohar, 
 A. Marenich, D. Neuhauser, R. Olson, M. A. Rohrdanz, K. S. Thanthiriwatte, 
 A. J. W. Thom, V. Vanovschi, C. F. Williams, Q. Wu and Z.-Q. You. 


 Intel X86 Linux Version

 Q-chem begins on Tue Apr 30 22:50:07 2013  

 Parallel job on  1  processors
Processing $rem in /usr/local/qchem/config/preferences.

theFileMan(): MAXOPENFILES=974 MAX_SUB_FILE_NUM=16
Maximum size of a physical file is 2.0 GB, maximum size of a tmp-file is 32.0 GB


--------------------------------------------------------------
User input:
--------------------------------------------------------------

$molecule
0,1
C1
C2,C1,rcc
O1,C1,rco,C2,a1
H,C1,rch,C2,a2,O1,180.0,0
O2,C2,rco,C1,a1,O1,180.,0
H,C2,rch,C1,a2,O1,0.,0

rcc=1.52501583
rco=1.20949276
rch=1.10918789
a1=121.52291302
a2=114.69886473

$end

$comment
neutral
$end

$xc_functional
C PBE   1.00
X wPBE  1.00
$end


$rem
SYMMETRY_DECOMPOSITION	0
LRC_DFT                 true
exchange 		general
BASIS                   g3large
omega			380
mem_static              760
max_scf_cycles          200
scf_final_print         1
sym_ignore              true
$end

--------------------------------------------------------------
 Writing REM_CC_EA            6
 ----------------------------------------------------
       Standard Nuclear Orientation (Angstroms)
    I     Atom         X            Y            Z
 ----------------------------------------------------
    1      C       0.000000     0.000000     0.000000
    2      C       0.000000     0.000000     1.525016
    3      O       1.031009     0.000000    -0.632371
    4      H      -1.007715     0.000000    -0.463473
    5      O      -1.031009     0.000000     2.157386
    6      H       1.007715     0.000000     1.988489
 ----------------------------------------------------
 Nuclear Repulsion Energy =   101.6119437778 hartrees
 There are       15 alpha and       15 beta electrons
 Requested basis set is G3large
 There are 52 shells and 188 basis functions

Total QAlloc Memory Limit   2000 MB
Mega-Array Size       743 MB
MEM_STATIC part       760 MB

                       Distance Matrix (Angstroms)
             C (  1)   C (  2)   O (  3)   H (  4)   O (  5)
   C (  2)  1.525016
   O (  3)  1.209493  2.391087
   H (  4)  1.109188  2.229255  2.045709
   O (  5)  2.391087  1.209493  3.469101  2.620963
   H (  6)  2.229255  1.109188  2.620963  3.173969  2.045709
 
 A cutoff of  1.0D-08 yielded   1239 shell pairs
 There are  16161 function pairs ( 20529 Cartesian)
Evaluating contribution to one-electron hamiltonian from nuclear
 Smallest overlap matrix eigenvalue = 1.82E-04
 Multipole matrices computed through 2nd order

  Scale SEOQF with 1.000000e-01/1.000000e-01/1.000000e-01

 Standard Electronic Orientation quadrupole field applied
 Nucleus-field energy     =    -0.0000000056 hartrees
 Guess from superposition of atomic densities
 Warning:  Energy on first SCF cycle will be non-variational
 Long-range K will be added via erf
 Coulomb attenuation parameter = 0.38 bohr**(-1)
 A restricted Kohn-Sham SCF calculation will be
 performed using Pulay DIIS extrapolation
 Exchange:  wPBE + LR-HF      Correlation:  PBE
 Using SG-1 standard quadrature grid
 SCF converges when DIIS error is below 1.0E-05
 Requested basis set is G3large
 There are 52 shells and 188 basis functions
 A cutoff of  1.0D-08 yielded   1239 shell pairs
 There are  16161 function pairs ( 20529 Cartesian)
 ---------------------------------------
  Cycle       Energy         DIIS Error
 ---------------------------------------
    1    -228.6638612736      3.61E-02
    2    -227.5131189597      7.57E-03
    3    -227.3429301405      1.13E-02
    4    -227.7260651076      4.99E-04
    5    -227.7279097994      1.77E-04
    6    -227.7281828252      4.50E-05
    7    -227.7282270513      1.37E-05
    8    -227.7282251778      3.67E-06 Convergence criterion met
 ---------------------------------------
 One-Electron    Energy =  -511.4249592767
 Total Coulomb   Energy =   210.6063054038
 Alpha Exchange  Energy =    -2.9132460971
 Beta  Exchange  Energy =    -2.9132460971
 DFT   Exchange  Energy =   -21.7038932627
 DFT Correlation Energy =    -0.9911296202
 Nuclear Repu.   Energy =   101.6119437722
 Nuclear Attr.   Energy =  -738.3767805085
 Kinetic         Energy =   226.9518212318
 SCF time:  CPU 64.16 s  wall 65.05 s
 Final Alpha MO Eigenvalues
            1           2           3           4           5           6
    1 -18.9973714 -18.9973116 -10.2185986 -10.2184798  -1.2226315  -1.2067150
            7           8           9          10          11          12
    1  -0.8512128  -0.7409131  -0.6345175  -0.6221378  -0.5860257  -0.5852318
           13          14          15          16          17          18
    1  -0.5244460  -0.4566313  -0.3890565  -0.0326450   0.0466487   0.0511285
           19          20
    1   0.0865653   0.0909904
 Analysis of SCF Wavefunction
 
 --------------------------------------------------------------
                    Orbital Energies (a.u.)
 --------------------------------------------------------------
 
 Alpha MOs
 -- Occupied --
-18.997 -18.997 -10.219 -10.218  -1.223  -1.207  -0.851  -0.741
 -0.635  -0.622  -0.586  -0.585  -0.524  -0.457  -0.389
 -- Virtual --
 -0.033   0.047   0.051   0.087   0.091   0.100   0.115   0.133
  0.146   0.153   0.166   0.191   0.241   0.243   0.261   0.280
  0.320   0.322   0.338   0.345   0.370   0.386   0.405   0.482
  0.486   0.566   0.591   0.605   0.622   0.659   0.672   0.676
  0.680   0.754   0.803   0.825   0.832   0.887   1.015   1.051
  1.075   1.098   1.101   1.143   1.155   1.162   1.190   1.200
  1.218   1.240   1.257   1.323   1.394   1.458   1.567   1.579
  1.601   1.699   1.784   1.790   1.829   1.841   1.978   2.065
  2.156   2.258   2.492   2.494   2.523   2.599   2.675   2.687
  2.727   2.797   2.888   2.948   2.958   2.958   3.063   3.096
  3.149   3.189   3.272   3.300   3.365   3.372   3.384   3.413
  3.479   3.553   3.558   3.676   3.694   3.723   3.836   3.868
  3.887   4.094   4.174   4.196   4.217   4.226   4.490   4.652
  4.656   5.019   5.025   5.036   5.082   5.112   5.131   5.133
  5.154   5.295   5.414   5.501   5.517   5.517   5.525   5.805
  5.874   6.259   6.284   6.484   6.792   6.851   6.864   6.867
  6.929   6.989   6.998   7.207   7.269   7.438   7.474   7.624
  7.689  24.386  24.496  27.133  27.252  27.586  28.076  28.118
 28.424  40.773  40.866  40.912  40.962  41.019  41.023  41.085
 41.091  41.243  41.249  43.655  43.674  43.698  43.707  43.793
 43.817  43.817  43.857  43.934  43.957  45.646  45.650  45.743
 45.776  46.464  46.487  49.975  49.998
 --------------------------------------------------------------
 
          Ground-State Mulliken Net Atomic Charges

     Atom                 Charge (a.u.)
  ----------------------------------------
      1 C                     0.102673
      2 C                     0.102732
      3 O                    -0.223509
      4 H                     0.120836
      5 O                    -0.223570
      6 H                     0.120838
  ----------------------------------------
  Sum of atomic charges =     0.000000

 -----------------------------------------------------------------
                    Cartesian Multipole Moments
 -----------------------------------------------------------------
    Charge (ESU x 10^10)
                 0.0000
    Dipole Moment (Debye)
         X       0.0003      Y       0.0000      Z      -0.0002
       Tot       0.0003
    Quadrupole Moments (Debye-Ang)
        XX     -25.5938     XY      -0.0007     YY     -21.3755
        XZ       6.1810     YZ      -0.0003     ZZ     -26.5622
    Octapole Moments (Debye-Ang^2)
       XXX       0.0002    XXY       0.0000    XYY       0.0000
       YYY       0.0000    XXZ     -19.5157    XYZ      -0.0005
       YYZ     -16.2989    XZZ       9.4265    YZZ      -0.0004
       ZZZ     -60.7617
    Hexadecapole Moments (Debye-Ang^3)
      XXXX    -107.0204   XXXY      -0.0020   XXYY     -19.7897
      XYYY      -0.0004   YYYY     -18.7370   XXXZ      49.8552
      XXYZ       0.0006   XYYZ      13.3941   YYYZ      -0.0005
      XXZZ     -69.4359   XYZZ      -0.0009   YYZZ     -47.7078
      XZZZ      67.0654   YZZZ      -0.0023   ZZZZ    -307.6946
 -----------------------------------------------------------------
 Total job time:  65.25s(wall), 64.35s(cpu) 
 Tue Apr 30 22:51:12 2013

        *************************************************************
        *                                                           *
        *  Thank you very much for using Q-Chem.  Have a nice day.  *
        *                                                           *
        *************************************************************


0 sent ACK to 0 
now end server 0 ... 
 
**********************************************************************
Job 3 of 3 
**********************************************************************
 
Process 0 of 1 is on cl116.stfx.acenet.ca - thread support 1
initial socket setup ...start
initial socket setup ...done 
now start server 0 ... 

cmd = /usr/bin/ssh clhead /usr/local/qchem/bin/get_hostid 416566109 > /scratch/tmp/5956433.1.short.q/qchem23147/lic.dat
                  Welcome to Q-Chem
     A Quantum Leap Into The Future Of Chemistry

 Y. Shao, L. Fusti-Molnar, Y. Jung, J. Kussmann, C. Ochsenfeld,
 S. T. Brown, A. T. B. Gilbert, L. V. Slipchenko,S. V. Levchenko,
 D. P. O'Neill, R. A. DiStasio Jr., R. C. Lochan, T. Wang,
 G. J. O. Beran, N. A. Besley, J. M. Herbert, C. Y. Lin,
 T. Van Voorhis, S. H. Chien, A. Sodt, R. P. Steele, 
 V. A. Rassolov, P. E. Maslen, P. P. Korambath, R. D. Adamson,
 B. Austin, J. Baker, E. F. C. Byrd, H. Dachsel, R. J. Doerksen,
 A. Dreuw, B. D. Dunietz, A. D. Dutoi, T. R. Furlani,
 S. R. Gwaltney, A. Heyden, S. Hirata, C.-P. Hsu, G. Kedziora,
 R. Z. Khaliullin, P. Klunzinger, A. M. Lee, M. S. Lee, W. Liang,
 I. Lotan, N. Nair, B. Peters, E. I. Proynov, P. A. Pieniazek, 
 Y. M. Rhee, J. Ritchie, E. Rosta, C. D. Sherrill, 
 A. C. Simmonett, J. E. Subotnik, H. L. Woodcock III,
 W. Zhang, A. T. Bell, A. K. Chakraborty, D. M. Chipman,
 F. J. Keil, A. Warshel, W. J. Hehre, H. F. Schaefer III,
 J. Kong, A. I. Krylov, P. M. W. Gill, M. Head-Gordon,
 Q-Chem, Version 3.1, Q-Chem, Inc., Pittsburgh, PA (2007).

 Additional authors for Version 3.1: 
 Z. Gan, Y. Zhao, N. E. Schultz, D. Truhlar, E. Epifanovsky and M. Oana.

 Additional authors for Version 3.2: 
 R. Baer, B. R. Brooks, D. Casanova, J.-D. Chai, C.-L. Cheng, 
 C. Cramer, D. Crittenden, A. Ghysels, G. Hawkins, E. G. Hohenstein, 
 C. Kelley, W. Kurlancheek, D. Liotard, E. Livshits, P. Manohar, 
 A. Marenich, D. Neuhauser, R. Olson, M. A. Rohrdanz, K. S. Thanthiriwatte, 
 A. J. W. Thom, V. Vanovschi, C. F. Williams, Q. Wu and Z.-Q. You. 


 Intel X86 Linux Version

 Q-chem begins on Tue Apr 30 22:51:15 2013  

 Parallel job on  1  processors
Processing $rem in /usr/local/qchem/config/preferences.

theFileMan(): MAXOPENFILES=974 MAX_SUB_FILE_NUM=16
Maximum size of a physical file is 2.0 GB, maximum size of a tmp-file is 32.0 GB


--------------------------------------------------------------
User input:
--------------------------------------------------------------

$molecule
1,2
C1
C2,C1,rcc
O1,C1,rco,C2,a1
H,C1,rch,C2,a2,O1,180.0,0
O2,C2,rco,C1,a1,O1,180.,0
H,C2,rch,C1,a2,O1,0.,0

rcc=1.52501583
rco=1.20949276
rch=1.10918789
a1=121.52291302
a2=114.69886473

$end

$comment
positive
$end

$xc_functional
C PBE   1.00
X wPBE  1.00
$end

$rem
SYMMETRY_DECOMPOSITION	0
LRC_DFT                 true
exchange 		general
BASIS                   g3large
omega			380
mem_static              760
max_scf_cycles          200
scf_final_print         1
sym_ignore              true
$end

--------------------------------------------------------------
 Writing REM_CC_EA            6
 ----------------------------------------------------
       Standard Nuclear Orientation (Angstroms)
    I     Atom         X            Y            Z
 ----------------------------------------------------
    1      C       0.000000     0.000000     0.000000
    2      C       0.000000     0.000000     1.525016
    3      O       1.031009     0.000000    -0.632371
    4      H      -1.007715     0.000000    -0.463473
    5      O      -1.031009     0.000000     2.157386
    6      H       1.007715     0.000000     1.988489
 ----------------------------------------------------
 Nuclear Repulsion Energy =   101.6119437778 hartrees
 There are       15 alpha and       14 beta electrons
 Requested basis set is G3large
 There are 52 shells and 188 basis functions

Total QAlloc Memory Limit   2000 MB
Mega-Array Size       743 MB
MEM_STATIC part       760 MB

                       Distance Matrix (Angstroms)
             C (  1)   C (  2)   O (  3)   H (  4)   O (  5)
   C (  2)  1.525016
   O (  3)  1.209493  2.391087
   H (  4)  1.109188  2.229255  2.045709
   O (  5)  2.391087  1.209493  3.469101  2.620963
   H (  6)  2.229255  1.109188  2.620963  3.173969  2.045709
 
 A cutoff of  1.0D-08 yielded   1239 shell pairs
 There are  16161 function pairs ( 20529 Cartesian)
Evaluating contribution to one-electron hamiltonian from nuclear
 Smallest overlap matrix eigenvalue = 1.82E-04
 Multipole matrices computed through 2nd order

  Scale SEOQF with 1.000000e-01/1.000000e-01/1.000000e-01

 Standard Electronic Orientation quadrupole field applied
 Nucleus-field energy     =    -0.0000000056 hartrees
 Guess from superposition of atomic densities
 Warning:  Energy on first SCF cycle will be non-variational
 Long-range K will be added via erf
 Coulomb attenuation parameter = 0.38 bohr**(-1)
 An unrestricted Kohn-Sham SCF calculation will be
 performed using Pulay DIIS extrapolation
 Exchange:  wPBE + LR-HF      Correlation:  PBE
 Using SG-1 standard quadrature grid
 SCF converges when DIIS error is below 1.0E-05
 Requested basis set is G3large
 There are 52 shells and 188 basis functions
 A cutoff of  1.0D-08 yielded   1239 shell pairs
 There are  16161 function pairs ( 20529 Cartesian)
 Warning!  Inaccurate integrated density:
   Number of electrons =    29
   Numerical integral  =    29.999862858428
   Relative error      =     3.4478029601 %
 ---------------------------------------
  Cycle       Energy         DIIS Error
 ---------------------------------------
    1    -228.6638612736      3.61E-02
    2    -227.1075905414      6.90E-03
    3    -226.9290799666      1.12E-02
    4    -227.3274213895      7.78E-04
    5    -227.3303786966      2.54E-04
    6    -227.3310226009      6.41E-05
    7    -227.3311714411      2.09E-05
    8    -227.3311958377      8.99E-06 Convergence criterion met
 ---------------------------------------
 One-Electron    Energy =  -502.6454871334
 Total Coulomb   Energy =   201.8092485591
 Alpha Exchange  Energy =    -2.9302772495
 Beta  Exchange  Energy =    -2.7010288449
 DFT   Exchange  Energy =   -21.5202222262
 DFT Correlation Energy =    -0.9553727150
 Nuclear Repu.   Energy =   101.6119437722
 Nuclear Attr.   Energy =  -729.1740798991
 Kinetic         Energy =   226.5285927657
 <S^2> = 0.7602
 SCF time:  CPU 79.59 s  wall 80.44 s
 Final Alpha MO Eigenvalues
            1           2           3           4           5           6
    1 -19.3241141 -19.3240895 -10.5150751 -10.5149532  -1.5268880  -1.5117058
            7           8           9          10          11          12
    1  -1.1540525  -1.0253407  -0.9324422  -0.9163224  -0.8761491  -0.8708879
           13          14          15          16          17          18
    1  -0.8142227  -0.7727773  -0.7033140  -0.3131943  -0.1697038  -0.1049843
           19          20
    1  -0.1016132  -0.0754940
 Final Beta MO Eigenvalues
            1           2           3           4           5           6
    1 -19.3147295 -19.3147066 -10.5145259 -10.5144005  -1.5114811  -1.4951627
            7           8           9          10          11          12
    1  -1.1326637  -1.0041249  -0.9047199  -0.8994100  -0.8653491  -0.8605909
           13          14          15          16          17          18
    1  -0.8052458  -0.6797236  -0.4058435  -0.3063802  -0.1684781  -0.1037475
           19
    1  -0.0978620
 Analysis of SCF Wavefunction
 
 --------------------------------------------------------------
                    Orbital Energies (a.u.)
 --------------------------------------------------------------
 
 Alpha MOs
 -- Occupied --
-19.324 -19.324 -10.515 -10.515  -1.527  -1.512  -1.154  -1.025
 -0.932  -0.916  -0.876  -0.871  -0.814  -0.773  -0.703
 -- Virtual --
 -0.313  -0.170  -0.105  -0.102  -0.075  -0.064  -0.049  -0.022
 -0.017  -0.003   0.003   0.036   0.038   0.046   0.065   0.086
  0.095   0.144   0.145   0.154   0.180   0.181   0.206   0.261
  0.270   0.337   0.359   0.368   0.386   0.414   0.435   0.435
  0.445   0.509   0.575   0.583   0.592   0.634   0.753   0.806
  0.828   0.851   0.859   0.909   0.914   0.925   0.938   0.953
  0.977   0.991   0.997   1.059   1.135   1.211   1.320   1.323
  1.335   1.419   1.510   1.522   1.551   1.555   1.706   1.790
  1.888   1.982   2.221   2.225   2.250   2.309   2.399   2.408
  2.452   2.518   2.595   2.667   2.681   2.681   2.785   2.814
  2.867   2.910   2.993   3.018   3.084   3.085   3.101   3.135
  3.197   3.269   3.278   3.395   3.412   3.441   3.546   3.578
  3.601   3.805   3.892   3.904   3.934   3.936   4.200   4.357
  4.361   4.724   4.724   4.727   4.779   4.807   4.821   4.828
  4.829   4.989   5.121   5.210   5.214   5.218   5.233   5.500
  5.570   5.965   5.991   6.171   6.482   6.526   6.539   6.542
  6.630   6.680   6.690   6.911   6.972   7.120   7.154   7.323
  7.387  24.092  24.200  26.839  26.957  27.287  27.781  27.823
 28.127  40.475  40.569  40.615  40.663  40.721  40.726  40.789
 40.795  40.946  40.951  43.321  43.341  43.364  43.373  43.475
 43.484  43.499  43.523  43.608  43.630  45.324  45.328  45.406
 45.438  46.142  46.165  49.650  49.674
 
 Beta MOs
 -- Occupied --
-19.315 -19.315 -10.515 -10.514  -1.511  -1.495  -1.133  -1.004
 -0.905  -0.899  -0.865  -0.861  -0.805  -0.680
 -- Virtual --
 -0.406  -0.306  -0.168  -0.104  -0.098  -0.074  -0.064  -0.046
 -0.019  -0.017  -0.002   0.010   0.039   0.042   0.053   0.068
  0.088   0.109   0.146   0.148   0.158   0.185   0.189   0.208
  0.265   0.274   0.348   0.361   0.370   0.392   0.418   0.439
  0.445   0.447   0.508   0.578   0.586   0.593   0.639   0.757
  0.814   0.836   0.854   0.865   0.915   0.923   0.931   0.950
  0.958   0.991   1.000   1.002   1.071   1.147   1.218   1.328
  1.331   1.345   1.437   1.525   1.532   1.569   1.572   1.709
  1.803   1.892   1.996   2.230   2.233   2.262   2.318   2.412
  2.418   2.451   2.520   2.611   2.672   2.682   2.685   2.791
  2.821   2.866   2.913   2.998   3.025   3.086   3.094   3.098
  3.140   3.199   3.279   3.281   3.396   3.418   3.447   3.552
  3.592   3.608   3.812   3.911   3.915   3.945   3.953   4.213
  4.375   4.380   4.734   4.740   4.758   4.803   4.832   4.850
  4.853   4.872   5.015   5.136   5.219   5.233   5.235   5.243
  5.523   5.592   5.970   5.995   6.193   6.506   6.567   6.579
  6.583   6.639   6.700   6.714   6.919   6.980   7.154   7.190
  7.337   7.401  24.093  24.202  26.838  26.957  27.291  27.781
 27.823  28.130  40.477  40.570  40.616  40.666  40.723  40.727
 40.789  40.795  40.948  40.953  43.344  43.363  43.388  43.397
 43.478  43.502  43.505  43.546  43.621  43.643  45.331  45.335
 45.432  45.465  46.149  46.172  49.660  49.683
 --------------------------------------------------------------
 
          Ground-State Mulliken Net Atomic Charges

     Atom                 Charge (a.u.)    Spin (a.u.)
  --------------------------------------------------------
      1 C                     0.181116       0.020648
      2 C                     0.181082       0.020643
      3 O                     0.082372       0.389748
      4 H                     0.236505       0.089594
      5 O                     0.082415       0.389769
      6 H                     0.236509       0.089597
  --------------------------------------------------------
  Sum of atomic charges =     1.000000
  Sum of spin   charges =     1.000000

 -----------------------------------------------------------------
                    Cartesian Multipole Moments
 -----------------------------------------------------------------
    Charge (ESU x 10^10)
                 4.8032
    Dipole Moment (Debye)
         X      -0.0002      Y       0.0000      Z       3.6627
       Tot       3.6627
    Quadrupole Moments (Debye-Ang)
        XX     -17.8941     XY       0.0020     YY     -19.2384
        XZ       3.4909     YZ       0.0060     ZZ     -12.3879
    Octapole Moments (Debye-Ang^2)
       XXX      -0.0002    XXY       0.0000    XYY       0.0000
       YYY       0.0000    XXZ     -13.6441    XYZ       0.0015
       YYZ     -14.6694    XZZ       5.3235    YZZ       0.0092
       ZZZ     -32.5964
    Hexadecapole Moments (Debye-Ang^3)
      XXXX     -82.1558   XXXY       0.0146   XXYY     -16.4875
      XYYY       0.0008   YYYY     -14.9648   XXXZ      43.1104
      XXYZ      -0.0047   XYYZ      12.2906   YYYZ       0.0033
      XXZZ     -48.2771   XYZZ      -0.0131   YYZZ     -41.6511
      XZZZ      49.8576   YZZZ       0.0467   ZZZZ    -216.0271
 -----------------------------------------------------------------
 Total job time:  80.65s(wall), 79.79s(cpu) 
 Tue Apr 30 22:52:36 2013

        *************************************************************
        *                                                           *
        *  Thank you very much for using Q-Chem.  Have a nice day.  *
        *                                                           *
        *************************************************************


0 sent ACK to 0 
now end server 0 ... 
