Process 0 of 1 is on cl046.stfx.acenet.ca - thread support 1
initial socket setup ...start
initial socket setup ...done 
now start server 0 ... 

cmd = /usr/bin/ssh clhead /usr/local/qchem/bin/get_hostid 569738042 > /scratch/tmp/6065337.1.short.q/qchem30798/lic.dat
                  Welcome to Q-Chem
     A Quantum Leap Into The Future Of Chemistry

 Y. Shao, L. Fusti-Molnar, Y. Jung, J. Kussmann, C. Ochsenfeld,
 S. T. Brown, A. T. B. Gilbert, L. V. Slipchenko,S. V. Levchenko,
 D. P. O'Neill, R. A. DiStasio Jr., R. C. Lochan, T. Wang,
 G. J. O. Beran, N. A. Besley, J. M. Herbert, C. Y. Lin,
 T. Van Voorhis, S. H. Chien, A. Sodt, R. P. Steele, 
 V. A. Rassolov, P. E. Maslen, P. P. Korambath, R. D. Adamson,
 B. Austin, J. Baker, E. F. C. Byrd, H. Dachsel, R. J. Doerksen,
 A. Dreuw, B. D. Dunietz, A. D. Dutoi, T. R. Furlani,
 S. R. Gwaltney, A. Heyden, S. Hirata, C.-P. Hsu, G. Kedziora,
 R. Z. Khaliullin, P. Klunzinger, A. M. Lee, M. S. Lee, W. Liang,
 I. Lotan, N. Nair, B. Peters, E. I. Proynov, P. A. Pieniazek, 
 Y. M. Rhee, J. Ritchie, E. Rosta, C. D. Sherrill, 
 A. C. Simmonett, J. E. Subotnik, H. L. Woodcock III,
 W. Zhang, A. T. Bell, A. K. Chakraborty, D. M. Chipman,
 F. J. Keil, A. Warshel, W. J. Hehre, H. F. Schaefer III,
 J. Kong, A. I. Krylov, P. M. W. Gill, M. Head-Gordon,
 Q-Chem, Version 3.1, Q-Chem, Inc., Pittsburgh, PA (2007).

 Additional authors for Version 3.1: 
 Z. Gan, Y. Zhao, N. E. Schultz, D. Truhlar, E. Epifanovsky and M. Oana.

 Additional authors for Version 3.2: 
 R. Baer, B. R. Brooks, D. Casanova, J.-D. Chai, C.-L. Cheng, 
 C. Cramer, D. Crittenden, A. Ghysels, G. Hawkins, E. G. Hohenstein, 
 C. Kelley, W. Kurlancheek, D. Liotard, E. Livshits, P. Manohar, 
 A. Marenich, D. Neuhauser, R. Olson, M. A. Rohrdanz, K. S. Thanthiriwatte, 
 A. J. W. Thom, V. Vanovschi, C. F. Williams, Q. Wu and Z.-Q. You. 


 Intel X86 Linux Version

 Q-chem begins on Mon Jul  8 17:00:04 2013  

 Parallel job on  1  processors
Processing $rem in /usr/local/qchem/config/preferences.

theFileMan(): MAXOPENFILES=974 MAX_SUB_FILE_NUM=16
Maximum size of a physical file is 2.0 GB, maximum size of a tmp-file is 32.0 GB


--------------------------------------------------------------
User input:
--------------------------------------------------------------

$molecule
-1,1
C          0.00034        0.00000       -0.00234
C          0.00795        0.00000        1.30335
H          0.93102        0.00000       -0.58577
H         -0.92815        0.00000       -0.57958
H          0.72652        0.00000        2.11724
$end

$comment
negative
$end

$xc_functional
C PBE   1.00
X wPBE  1.00
$end

$rem
SYMMETRY_DECOMPOSITION	0
exchange 		general
LRC_DFT                 true
BASIS                   g3large
omega			190
mem_static              760
max_scf_cycles          200
scf_final_print         1
sym_ignore              true
$end

--------------------------------------------------------------
 Writing REM_CC_EA            5
 ----------------------------------------------------
       Standard Nuclear Orientation (Angstroms)
    I     Atom         X            Y            Z
 ----------------------------------------------------
    1      C       0.000340     0.000000    -0.002340
    2      C       0.007950     0.000000     1.303350
    3      H       0.931020     0.000000    -0.585770
    4      H      -0.928150     0.000000    -0.579580
    5      H       0.726520     0.000000     2.117240
 ----------------------------------------------------
 Nuclear Repulsion Energy =    28.3933182935 hartrees
 There are        8 alpha and        8 beta electrons
 Requested basis set is G3large
 There are 38 shells and 114 basis functions

Total QAlloc Memory Limit   2000 MB
Mega-Array Size       743 MB
MEM_STATIC part       760 MB

                       Distance Matrix (Angstroms)
             C (  1)   C (  2)   H (  3)   H (  4)
   C (  2)  1.305712
   H (  3)  1.098433  2.102578
   H (  4)  1.093298  2.102786  1.859180
   H (  5)  2.240526  1.085707  2.710735  3.163980
 
 A cutoff of  1.0D-08 yielded    732 shell pairs
 There are   6640 function pairs (  8147 Cartesian)
Evaluating contribution to one-electron hamiltonian from nuclear
 Smallest overlap matrix eigenvalue = 1.16E-04
 Multipole matrices computed through 2nd order

  Scale SEOQF with 1.000000e-01/1.000000e-01/1.000000e-01

 Standard Electronic Orientation quadrupole field applied
 Nucleus-field energy     =    -0.0000000016 hartrees
 Guess from superposition of atomic densities
 Warning:  Energy on first SCF cycle will be non-variational
 Long-range K will be added via erf
 Coulomb attenuation parameter = 0.19 bohr**(-1)
 A restricted Kohn-Sham SCF calculation will be
 performed using Pulay DIIS extrapolation
 Exchange:  wPBE + LR-HF      Correlation:  PBE
 Using SG-1 standard quadrature grid
 SCF converges when DIIS error is below 1.0E-05
 Requested basis set is G3large
 There are 38 shells and 114 basis functions
 A cutoff of  1.0D-08 yielded    732 shell pairs
 There are   6640 function pairs (  8147 Cartesian)
 Warning!  Inaccurate integrated density:
   Number of electrons =    16
   Numerical integral  =    14.999948730966
   Relative error      =    -6.2503204315 %
 ---------------------------------------
  Cycle       Energy         DIIS Error
 ---------------------------------------
    1     -78.0216694275      3.64E-02
    2     -77.6519164445      9.35E-03
    3     -77.0647713474      1.59E-02
    4     -77.8003430311      4.23E-03
    5     -77.8333292057      1.62E-03
    6     -77.8397426870      2.38E-04
    7     -77.8400968741      1.38E-04
    8     -77.8402196890      7.36E-05
    9     -77.8402727732      2.46E-05
   10     -77.8402875844      1.11E-05
   11     -77.8402898338      4.75E-06 Convergence criterion met
 ---------------------------------------
 One-Electron    Energy =  -163.5514819195
 Total Coulomb   Energy =    69.3073742135
 Alpha Exchange  Energy =    -0.8145691891
 Beta  Exchange  Energy =    -0.8145691891
 DFT   Exchange  Energy =    -9.8750313037
 DFT Correlation Energy =    -0.4853307378
 Nuclear Repu.   Energy =    28.3933182919
 Nuclear Attr.   Energy =  -241.1891475869
 Kinetic         Energy =    77.6376656674
 SCF time:  CPU 30.41 s  wall 31.84 s
 Final Alpha MO Eigenvalues
            1           2           3           4           5           6
    1  -9.7536236  -9.7181270  -0.5446606  -0.3659685  -0.2634851  -0.2323170
            7           8           9          10          11          12
    1  -0.1032169   0.0151339   0.1726711   0.1794417   0.1843958   0.2523109
           13
    1   0.2728766
 Analysis of SCF Wavefunction
 
 --------------------------------------------------------------
                    Orbital Energies (a.u.)
 --------------------------------------------------------------
 
 Alpha MOs
 -- Occupied --
 -9.754  -9.718  -0.545  -0.366  -0.263  -0.232  -0.103   0.015
 -- Virtual --
  0.173   0.179   0.184   0.252   0.273   0.273   0.292   0.330
  0.331   0.348   0.354   0.360   0.393   0.414   0.508   0.610
  0.698   0.724   0.750   0.785   0.796   0.821   0.862   0.869
  0.878   0.910   0.929   0.941   1.015   1.021   1.063   1.170
  1.209   1.240   1.314   1.374   1.431   1.467   1.582   1.609
  1.647   1.679   1.728   1.755   1.790   1.968   2.670   2.716
  2.882   2.909   2.914   2.937   3.001   3.018   3.063   3.120
  3.131   3.200   3.311   3.327   3.372   3.387   3.435   3.469
  3.472   3.549   3.563   3.615   3.653   3.734   3.849   3.945
  3.945   4.001   4.152   4.351   4.366   4.415   4.545   4.659
  4.699   4.844   5.037   5.354   5.484   5.627   5.778   6.371
 23.874  24.852  27.363  27.561  27.716  28.258  28.410  28.537
 40.973  41.037  41.074  41.267  41.269  41.309  41.383  41.414
 41.456  41.477
 --------------------------------------------------------------
 
          Ground-State Mulliken Net Atomic Charges

     Atom                 Charge (a.u.)
  ----------------------------------------
      1 C                    -0.697636
      2 C                    -0.243669
      3 H                    -0.139946
      4 H                     0.046210
      5 H                     0.035040
  ----------------------------------------
  Sum of atomic charges =    -1.000000

 -----------------------------------------------------------------
                    Cartesian Multipole Moments
 -----------------------------------------------------------------
    Charge (ESU x 10^10)
                -4.8032
    Dipole Moment (Debye)
         X       1.7743      Y      -0.0004      Z      -5.2494
       Tot       5.5412
    Quadrupole Moments (Debye-Ang)
        XX     -21.8667     XY       0.0017     YY     -20.1182
        XZ       6.0147     YZ      -0.0022     ZZ     -28.8497
    Octapole Moments (Debye-Ang^2)
       XXX       2.7748    XXY      -0.0003    XYY       1.3909
       YYY      -0.0015    XXZ     -18.7136    XYZ       0.0023
       YYZ     -13.9144    XZZ      10.8608    YZZ      -0.0043
       ZZZ     -56.0099
    Hexadecapole Moments (Debye-Ang^3)
      XXXX     -71.5786   XXXY       0.0058   XXYY     -19.0404
      XYYY       0.0055   YYYY     -41.8381   XXXZ      17.1454
      XXYZ      -0.0031   XYYZ       5.6930   YYYZ      -0.0099
      XXZZ     -56.0760   XYZZ       0.0083   YYZZ     -39.0332
      XZZZ      36.9293   YZZZ      -0.0176   ZZZZ    -215.9450
 -----------------------------------------------------------------
 Total job time:  32.07s(wall), 30.57s(cpu) 
 Mon Jul  8 17:00:36 2013

        *************************************************************
        *                                                           *
        *  Thank you very much for using Q-Chem.  Have a nice day.  *
        *                                                           *
        *************************************************************


0 sent ACK to 0 
now end server 0 ... 
 
**********************************************************************
Job 2 of 3 
**********************************************************************
 
Process 0 of 1 is on cl046.stfx.acenet.ca - thread support 1
initial socket setup ...start
initial socket setup ...done 
now start server 0 ... 

cmd = /usr/bin/ssh clhead /usr/local/qchem/bin/get_hostid 664538916 > /scratch/tmp/6065337.1.short.q/qchem30798/lic.dat
                  Welcome to Q-Chem
     A Quantum Leap Into The Future Of Chemistry

 Y. Shao, L. Fusti-Molnar, Y. Jung, J. Kussmann, C. Ochsenfeld,
 S. T. Brown, A. T. B. Gilbert, L. V. Slipchenko,S. V. Levchenko,
 D. P. O'Neill, R. A. DiStasio Jr., R. C. Lochan, T. Wang,
 G. J. O. Beran, N. A. Besley, J. M. Herbert, C. Y. Lin,
 T. Van Voorhis, S. H. Chien, A. Sodt, R. P. Steele, 
 V. A. Rassolov, P. E. Maslen, P. P. Korambath, R. D. Adamson,
 B. Austin, J. Baker, E. F. C. Byrd, H. Dachsel, R. J. Doerksen,
 A. Dreuw, B. D. Dunietz, A. D. Dutoi, T. R. Furlani,
 S. R. Gwaltney, A. Heyden, S. Hirata, C.-P. Hsu, G. Kedziora,
 R. Z. Khaliullin, P. Klunzinger, A. M. Lee, M. S. Lee, W. Liang,
 I. Lotan, N. Nair, B. Peters, E. I. Proynov, P. A. Pieniazek, 
 Y. M. Rhee, J. Ritchie, E. Rosta, C. D. Sherrill, 
 A. C. Simmonett, J. E. Subotnik, H. L. Woodcock III,
 W. Zhang, A. T. Bell, A. K. Chakraborty, D. M. Chipman,
 F. J. Keil, A. Warshel, W. J. Hehre, H. F. Schaefer III,
 J. Kong, A. I. Krylov, P. M. W. Gill, M. Head-Gordon,
 Q-Chem, Version 3.1, Q-Chem, Inc., Pittsburgh, PA (2007).

 Additional authors for Version 3.1: 
 Z. Gan, Y. Zhao, N. E. Schultz, D. Truhlar, E. Epifanovsky and M. Oana.

 Additional authors for Version 3.2: 
 R. Baer, B. R. Brooks, D. Casanova, J.-D. Chai, C.-L. Cheng, 
 C. Cramer, D. Crittenden, A. Ghysels, G. Hawkins, E. G. Hohenstein, 
 C. Kelley, W. Kurlancheek, D. Liotard, E. Livshits, P. Manohar, 
 A. Marenich, D. Neuhauser, R. Olson, M. A. Rohrdanz, K. S. Thanthiriwatte, 
 A. J. W. Thom, V. Vanovschi, C. F. Williams, Q. Wu and Z.-Q. You. 


 Intel X86 Linux Version

 Q-chem begins on Mon Jul  8 17:00:39 2013  

 Parallel job on  1  processors
Processing $rem in /usr/local/qchem/config/preferences.

theFileMan(): MAXOPENFILES=974 MAX_SUB_FILE_NUM=16
Maximum size of a physical file is 2.0 GB, maximum size of a tmp-file is 32.0 GB


--------------------------------------------------------------
User input:
--------------------------------------------------------------

$molecule
0,2
C          0.00034        0.00000       -0.00234
C          0.00795        0.00000        1.30335
H          0.93102        0.00000       -0.58577
H         -0.92815        0.00000       -0.57958
H          0.72652        0.00000        2.11724
$end

$comment
neutral
$end

$xc_functional
C PBE   1.00
X wPBE  1.00
$end


$rem
SYMMETRY_DECOMPOSITION	0
LRC_DFT                 true
exchange 		general
BASIS                   g3large
omega			190
mem_static              760
max_scf_cycles          200
scf_final_print         1
sym_ignore              true
$end

--------------------------------------------------------------
 Writing REM_CC_EA            5
 ----------------------------------------------------
       Standard Nuclear Orientation (Angstroms)
    I     Atom         X            Y            Z
 ----------------------------------------------------
    1      C       0.000340     0.000000    -0.002340
    2      C       0.007950     0.000000     1.303350
    3      H       0.931020     0.000000    -0.585770
    4      H      -0.928150     0.000000    -0.579580
    5      H       0.726520     0.000000     2.117240
 ----------------------------------------------------
 Nuclear Repulsion Energy =    28.3933182935 hartrees
 There are        8 alpha and        7 beta electrons
 Requested basis set is G3large
 There are 38 shells and 114 basis functions

Total QAlloc Memory Limit   2000 MB
Mega-Array Size       743 MB
MEM_STATIC part       760 MB

                       Distance Matrix (Angstroms)
             C (  1)   C (  2)   H (  3)   H (  4)
   C (  2)  1.305712
   H (  3)  1.098433  2.102578
   H (  4)  1.093298  2.102786  1.859180
   H (  5)  2.240526  1.085707  2.710735  3.163980
 
 A cutoff of  1.0D-08 yielded    732 shell pairs
 There are   6640 function pairs (  8147 Cartesian)
Evaluating contribution to one-electron hamiltonian from nuclear
 Smallest overlap matrix eigenvalue = 1.16E-04
 Multipole matrices computed through 2nd order

  Scale SEOQF with 1.000000e-01/1.000000e-01/1.000000e-01

 Standard Electronic Orientation quadrupole field applied
 Nucleus-field energy     =    -0.0000000016 hartrees
 Guess from superposition of atomic densities
 Warning:  Energy on first SCF cycle will be non-variational
 Long-range K will be added via erf
 Coulomb attenuation parameter = 0.19 bohr**(-1)
 An unrestricted Kohn-Sham SCF calculation will be
 performed using Pulay DIIS extrapolation
 Exchange:  wPBE + LR-HF      Correlation:  PBE
 Using SG-1 standard quadrature grid
 SCF converges when DIIS error is below 1.0E-05
 Requested basis set is G3large
 There are 38 shells and 114 basis functions
 A cutoff of  1.0D-08 yielded    732 shell pairs
 There are   6640 function pairs (  8147 Cartesian)
 ---------------------------------------
  Cycle       Energy         DIIS Error
 ---------------------------------------
    1     -78.0216694275      3.64E-02
    2     -77.7927596539      4.56E-03
    3     -77.8132095579      3.59E-03
    4     -77.8350395804      4.67E-04
    5     -77.8358866562      3.48E-04
    6     -77.8364108784      6.89E-05
    7     -77.8365932683      2.10E-05
    8     -77.8366302455      8.30E-06 Convergence criterion met
 ---------------------------------------
 One-Electron    Energy =  -159.6966368425
 Total Coulomb   Energy =    65.2529407728
 Alpha Exchange  Energy =    -0.8228508345
 Beta  Exchange  Energy =    -0.7208000187
 DFT   Exchange  Energy =    -9.7875256229
 DFT Correlation Energy =    -0.4550759916
 Nuclear Repu.   Energy =    28.3933182919
 Nuclear Attr.   Energy =  -237.2013895036
 Kinetic         Energy =    77.5047526610
 <S^2> = 0.7584
 SCF time:  CPU 26.14 s  wall 27.08 s
 Final Alpha MO Eigenvalues
            1           2           3           4           5           6
    1 -10.0182467  -9.9969755  -0.8091981  -0.6267660  -0.5186153  -0.4870187
            7           8           9          10          11          12
    1  -0.3566171  -0.2967091   0.0391213   0.0428716   0.0519440   0.0605987
           13
    1   0.1121884
 Final Beta MO Eigenvalues
            1           2           3           4           5           6
    1 -10.0042549  -9.9982117  -0.7942847  -0.6073174  -0.5046950  -0.4736843
            7           8           9          10          11          12
    1  -0.3482412  -0.0245405   0.0410155   0.0531684   0.0533579   0.0625642
 Analysis of SCF Wavefunction
 
 --------------------------------------------------------------
                    Orbital Energies (a.u.)
 --------------------------------------------------------------
 
 Alpha MOs
 -- Occupied --
-10.018  -9.997  -0.809  -0.627  -0.519  -0.487  -0.357  -0.297
 -- Virtual --
  0.039   0.043   0.052   0.061   0.112   0.124   0.130   0.163
  0.165   0.172   0.191   0.199   0.206   0.219   0.321   0.396
  0.482   0.501   0.539   0.552   0.572   0.594   0.635   0.638
  0.660   0.685   0.693   0.710   0.767   0.780   0.824   0.952
  0.974   1.021   1.086   1.135   1.196   1.231   1.349   1.371
  1.405   1.450   1.494   1.521   1.561   1.713   2.420   2.474
  2.616   2.651   2.659   2.679   2.733   2.744   2.777   2.848
  2.868   2.923   3.058   3.060   3.121   3.125   3.163   3.174
  3.209   3.289   3.291   3.332   3.379   3.464   3.585   3.672
  3.686   3.737   3.896   4.102   4.116   4.170   4.281   4.403
  4.435   4.576   4.770   5.089   5.218   5.363   5.534   6.098
 23.598  24.585  27.093  27.292  27.402  28.015  28.165  28.242
 40.701  40.731  40.830  40.986  41.002  41.040  41.100  41.143
 41.183  41.211
 
 Beta MOs
 -- Occupied --
-10.004  -9.998  -0.794  -0.607  -0.505  -0.474  -0.348
 -- Virtual --
 -0.025   0.041   0.053   0.053   0.063   0.113   0.128   0.138
  0.167   0.167   0.176   0.192   0.203   0.213   0.229   0.332
  0.406   0.494   0.517   0.545   0.562   0.578   0.617   0.644
  0.661   0.673   0.697   0.701   0.729   0.792   0.798   0.848
  0.960   0.987   1.026   1.093   1.156   1.212   1.242   1.363
  1.384   1.433   1.461   1.504   1.534   1.573   1.742   2.431
  2.485   2.646   2.663   2.670   2.689   2.751   2.775   2.821
  2.873   2.879   2.963   3.067   3.077   3.131   3.148   3.195
  3.228   3.230   3.311   3.320   3.371   3.412   3.496   3.603
  3.694   3.699   3.758   3.915   4.119   4.128   4.180   4.300
  4.416   4.457   4.598   4.781   5.112   5.232   5.384   5.545
  6.119  23.608  24.591  27.098  27.295  27.439  28.014  28.165
 28.251  40.709  40.758  40.828  41.003  41.009  41.043  41.117
 41.146  41.192  41.216
 --------------------------------------------------------------
 
          Ground-State Mulliken Net Atomic Charges

     Atom                 Charge (a.u.)    Spin (a.u.)
  --------------------------------------------------------
      1 C                    -0.232516      -0.098670
      2 C                    -0.073473       0.957690
      3 H                     0.083257       0.084316
      4 H                     0.107252       0.036464
      5 H                     0.115480       0.020201
  --------------------------------------------------------
  Sum of atomic charges =     0.000000
  Sum of spin   charges =     1.000000

 -----------------------------------------------------------------
                    Cartesian Multipole Moments
 -----------------------------------------------------------------
    Charge (ESU x 10^10)
                 0.0000
    Dipole Moment (Debye)
         X       0.6424      Y       0.0006      Z      -0.3598
       Tot       0.7363
    Quadrupole Moments (Debye-Ang)
        XX     -12.4452     XY       0.0001     YY     -14.9460
        XZ       1.6186     YZ       0.0003     ZZ     -11.8619
    Octapole Moments (Debye-Ang^2)
       XXX      -0.9349    XXY       0.0006    XYY      -0.4435
       YYY       0.0026    XXZ      -8.7339    XYZ      -0.0028
       YYZ      -9.0157    XZZ       3.1706    YZZ       0.0015
       ZZZ     -20.5875
    Hexadecapole Moments (Debye-Ang^3)
      XXXX     -24.5014   XXXY       0.0002   XXYY      -7.7623
      XYYY      -0.0007   YYYY     -19.2429   XXXZ      -1.4542
      XXYZ       0.0000   XYYZ      -0.8232   YYYZ       0.0012
      XXZZ     -18.9439   XYZZ       0.0002   YYZZ     -20.3262
      XZZZ       5.7643   YZZZ       0.0008   ZZZZ     -86.6844
 -----------------------------------------------------------------
 Total job time:  27.20s(wall), 26.25s(cpu) 
 Mon Jul  8 17:01:06 2013

        *************************************************************
        *                                                           *
        *  Thank you very much for using Q-Chem.  Have a nice day.  *
        *                                                           *
        *************************************************************


0 sent ACK to 0 
now end server 0 ... 
 
**********************************************************************
Job 3 of 3 
**********************************************************************
 
Process 0 of 1 is on cl046.stfx.acenet.ca - thread support 1
initial socket setup ...start
initial socket setup ...done 
now start server 0 ... 

cmd = /usr/bin/ssh clhead /usr/local/qchem/bin/get_hostid 1210541846 > /scratch/tmp/6065337.1.short.q/qchem30798/lic.dat
                  Welcome to Q-Chem
     A Quantum Leap Into The Future Of Chemistry

 Y. Shao, L. Fusti-Molnar, Y. Jung, J. Kussmann, C. Ochsenfeld,
 S. T. Brown, A. T. B. Gilbert, L. V. Slipchenko,S. V. Levchenko,
 D. P. O'Neill, R. A. DiStasio Jr., R. C. Lochan, T. Wang,
 G. J. O. Beran, N. A. Besley, J. M. Herbert, C. Y. Lin,
 T. Van Voorhis, S. H. Chien, A. Sodt, R. P. Steele, 
 V. A. Rassolov, P. E. Maslen, P. P. Korambath, R. D. Adamson,
 B. Austin, J. Baker, E. F. C. Byrd, H. Dachsel, R. J. Doerksen,
 A. Dreuw, B. D. Dunietz, A. D. Dutoi, T. R. Furlani,
 S. R. Gwaltney, A. Heyden, S. Hirata, C.-P. Hsu, G. Kedziora,
 R. Z. Khaliullin, P. Klunzinger, A. M. Lee, M. S. Lee, W. Liang,
 I. Lotan, N. Nair, B. Peters, E. I. Proynov, P. A. Pieniazek, 
 Y. M. Rhee, J. Ritchie, E. Rosta, C. D. Sherrill, 
 A. C. Simmonett, J. E. Subotnik, H. L. Woodcock III,
 W. Zhang, A. T. Bell, A. K. Chakraborty, D. M. Chipman,
 F. J. Keil, A. Warshel, W. J. Hehre, H. F. Schaefer III,
 J. Kong, A. I. Krylov, P. M. W. Gill, M. Head-Gordon,
 Q-Chem, Version 3.1, Q-Chem, Inc., Pittsburgh, PA (2007).

 Additional authors for Version 3.1: 
 Z. Gan, Y. Zhao, N. E. Schultz, D. Truhlar, E. Epifanovsky and M. Oana.

 Additional authors for Version 3.2: 
 R. Baer, B. R. Brooks, D. Casanova, J.-D. Chai, C.-L. Cheng, 
 C. Cramer, D. Crittenden, A. Ghysels, G. Hawkins, E. G. Hohenstein, 
 C. Kelley, W. Kurlancheek, D. Liotard, E. Livshits, P. Manohar, 
 A. Marenich, D. Neuhauser, R. Olson, M. A. Rohrdanz, K. S. Thanthiriwatte, 
 A. J. W. Thom, V. Vanovschi, C. F. Williams, Q. Wu and Z.-Q. You. 


 Intel X86 Linux Version

 Q-chem begins on Mon Jul  8 17:01:09 2013  

 Parallel job on  1  processors
Processing $rem in /usr/local/qchem/config/preferences.

theFileMan(): MAXOPENFILES=974 MAX_SUB_FILE_NUM=16
Maximum size of a physical file is 2.0 GB, maximum size of a tmp-file is 32.0 GB


--------------------------------------------------------------
User input:
--------------------------------------------------------------

$molecule
1,1
C          0.00034        0.00000       -0.00234
C          0.00795        0.00000        1.30335
H          0.93102        0.00000       -0.58577
H         -0.92815        0.00000       -0.57958
H          0.72652        0.00000        2.11724
$end

$comment
positive
$end

$xc_functional
C PBE   1.00
X wPBE  1.00
$end

$rem
SYMMETRY_DECOMPOSITION	0
LRC_DFT                 true
exchange 		general
BASIS                   g3large
omega			190
mem_static              760
max_scf_cycles          200
scf_final_print         1
sym_ignore              true
$end

--------------------------------------------------------------
 Writing REM_CC_EA            5
 ----------------------------------------------------
       Standard Nuclear Orientation (Angstroms)
    I     Atom         X            Y            Z
 ----------------------------------------------------
    1      C       0.000340     0.000000    -0.002340
    2      C       0.007950     0.000000     1.303350
    3      H       0.931020     0.000000    -0.585770
    4      H      -0.928150     0.000000    -0.579580
    5      H       0.726520     0.000000     2.117240
 ----------------------------------------------------
 Nuclear Repulsion Energy =    28.3933182935 hartrees
 There are        7 alpha and        7 beta electrons
 Requested basis set is G3large
 There are 38 shells and 114 basis functions

Total QAlloc Memory Limit   2000 MB
Mega-Array Size       743 MB
MEM_STATIC part       760 MB

                       Distance Matrix (Angstroms)
             C (  1)   C (  2)   H (  3)   H (  4)
   C (  2)  1.305712
   H (  3)  1.098433  2.102578
   H (  4)  1.093298  2.102786  1.859180
   H (  5)  2.240526  1.085707  2.710735  3.163980
 
 A cutoff of  1.0D-08 yielded    732 shell pairs
 There are   6640 function pairs (  8147 Cartesian)
Evaluating contribution to one-electron hamiltonian from nuclear
 Smallest overlap matrix eigenvalue = 1.16E-04
 Multipole matrices computed through 2nd order

  Scale SEOQF with 1.000000e-01/1.000000e-01/1.000000e-01

 Standard Electronic Orientation quadrupole field applied
 Nucleus-field energy     =    -0.0000000016 hartrees
 Guess from superposition of atomic densities
 Warning:  Energy on first SCF cycle will be non-variational
 Long-range K will be added via erf
 Coulomb attenuation parameter = 0.19 bohr**(-1)
 A restricted Kohn-Sham SCF calculation will be
 performed using Pulay DIIS extrapolation
 Exchange:  wPBE + LR-HF      Correlation:  PBE
 Using SG-1 standard quadrature grid
 SCF converges when DIIS error is below 1.0E-05
 Requested basis set is G3large
 There are 38 shells and 114 basis functions
 A cutoff of  1.0D-08 yielded    732 shell pairs
 There are   6640 function pairs (  8147 Cartesian)
 Warning!  Inaccurate integrated density:
   Number of electrons =    14
   Numerical integral  =    14.999948730966
   Relative error      =     7.1424909355 %
 ---------------------------------------
  Cycle       Energy         DIIS Error
 ---------------------------------------
    1     -78.0216694275      3.64E-02
    2     -77.4419029575      4.61E-03
    3     -77.4014480887      7.15E-03
    4     -77.4822837322      4.90E-04
    5     -77.4833746605      1.75E-04
    6     -77.4837656084      9.90E-05
    7     -77.4839708559      5.16E-05
    8     -77.4840455131      1.00E-05
    9     -77.4840469530      2.01E-06 Convergence criterion met
 ---------------------------------------
 One-Electron    Energy =  -154.8953773191
 Total Coulomb   Energy =    60.4562092367
 Alpha Exchange  Energy =    -0.7221564479
 Beta  Exchange  Energy =    -0.7221564479
 DFT   Exchange  Energy =    -9.5670157257
 DFT Correlation Energy =    -0.4268685411
 Nuclear Repu.   Energy =    28.3933182919
 Nuclear Attr.   Energy =  -231.9853055969
 Kinetic         Energy =    77.0899282778
 SCF time:  CPU 24.50 s  wall 25.13 s
 Final Alpha MO Eigenvalues
            1           2           3           4           5           6
    1 -10.3993793 -10.3137089  -1.1253631  -0.9300369  -0.8255125  -0.7856285
            7           8           9          10          11          12
    1  -0.6624256  -0.4020106  -0.2419552  -0.1272666  -0.1121183  -0.0922443
 Analysis of SCF Wavefunction
 
 --------------------------------------------------------------
                    Orbital Energies (a.u.)
 --------------------------------------------------------------
 
 Alpha MOs
 -- Occupied --
-10.399 -10.314  -1.125  -0.930  -0.826  -0.786  -0.662
 -- Virtual --
 -0.402  -0.242  -0.127  -0.112  -0.092  -0.063  -0.051  -0.033
 -0.029  -0.008  -0.006   0.009   0.022   0.027   0.041   0.120
  0.153   0.251   0.269   0.279   0.304   0.324   0.353   0.389
  0.398   0.418   0.425   0.441   0.472   0.500   0.525   0.575
  0.696   0.722   0.772   0.826   0.874   0.937   0.966   1.088
  1.108   1.143   1.195   1.229   1.259   1.303   1.445   2.129
  2.191   2.321   2.333   2.366   2.367   2.432   2.435   2.474
  2.541   2.558   2.621   2.746   2.759   2.818   2.824   2.861
  2.864   2.906   2.981   2.992   3.025   3.075   3.161   3.277
  3.358   3.380   3.432   3.599   3.812   3.817   3.881   3.973
  4.103   4.131   4.269   4.453   4.782   4.901   5.056   5.240
  5.783  23.247  24.246  26.737  26.955  27.030  27.698  27.847
 27.867  40.349  40.357  40.511  40.613  40.643  40.719  40.731
 40.804  40.841  40.883
 --------------------------------------------------------------
 
          Ground-State Mulliken Net Atomic Charges

     Atom                 Charge (a.u.)
  ----------------------------------------
      1 C                    -0.001404
      2 C                     0.338117
      3 H                     0.221266
      4 H                     0.201951
      5 H                     0.240070
  ----------------------------------------
  Sum of atomic charges =     1.000000

 -----------------------------------------------------------------
                    Cartesian Multipole Moments
 -----------------------------------------------------------------
    Charge (ESU x 10^10)
                 4.8032
    Dipole Moment (Debye)
         X       0.5741      Y       0.0000      Z       3.1802
       Tot       3.2316
    Quadrupole Moments (Debye-Ang)
        XX      -7.3100     XY       0.0000     YY     -12.3133
        XZ       1.1353     YZ       0.0000     ZZ      -1.0163
    Octapole Moments (Debye-Ang^2)
       XXX      -0.5565    XXY       0.0000    XYY      -0.5365
       YYY       0.0000    XXZ      -5.4766    XYZ      -0.0001
       YYZ      -7.4425    XZZ       3.1203    YZZ       0.0001
       ZZZ      -2.2798
    Hexadecapole Moments (Debye-Ang^3)
      XXXX     -12.7314   XXXY       0.0000   XXYY      -4.9569
      XYYY       0.0000   YYYY     -12.6004   XXXZ      -1.4099
      XXYZ       0.0000   XYYZ      -1.1278   YYYZ       0.0000
      XXZZ      -7.4846   XYZZ      -0.0001   YYZZ     -15.1455
      XZZZ       5.8942   YZZZ       0.0002   ZZZZ     -36.8552
 -----------------------------------------------------------------
 Total job time:  25.24s(wall), 24.61s(cpu) 
 Mon Jul  8 17:01:35 2013

        *************************************************************
        *                                                           *
        *  Thank you very much for using Q-Chem.  Have a nice day.  *
        *                                                           *
        *************************************************************


0 sent ACK to 0 
now end server 0 ... 
