Process 0 of 1 is on cl185.stfx.acenet.ca - thread support 1
initial socket setup ...start
initial socket setup ...done 
now start server 0 ... 

cmd = /usr/bin/ssh clhead /usr/local/qchem/bin/get_hostid 1175625256 > /scratch/tmp/4825615.1.medium.q/qchem22527/lic.dat
                  Welcome to Q-Chem
     A Quantum Leap Into The Future Of Chemistry

 Y. Shao, L. Fusti-Molnar, Y. Jung, J. Kussmann, C. Ochsenfeld,
 S. T. Brown, A. T. B. Gilbert, L. V. Slipchenko,S. V. Levchenko,
 D. P. O'Neill, R. A. DiStasio Jr., R. C. Lochan, T. Wang,
 G. J. O. Beran, N. A. Besley, J. M. Herbert, C. Y. Lin,
 T. Van Voorhis, S. H. Chien, A. Sodt, R. P. Steele, 
 V. A. Rassolov, P. E. Maslen, P. P. Korambath, R. D. Adamson,
 B. Austin, J. Baker, E. F. C. Byrd, H. Dachsel, R. J. Doerksen,
 A. Dreuw, B. D. Dunietz, A. D. Dutoi, T. R. Furlani,
 S. R. Gwaltney, A. Heyden, S. Hirata, C.-P. Hsu, G. Kedziora,
 R. Z. Khaliullin, P. Klunzinger, A. M. Lee, M. S. Lee, W. Liang,
 I. Lotan, N. Nair, B. Peters, E. I. Proynov, P. A. Pieniazek, 
 Y. M. Rhee, J. Ritchie, E. Rosta, C. D. Sherrill, 
 A. C. Simmonett, J. E. Subotnik, H. L. Woodcock III,
 W. Zhang, A. T. Bell, A. K. Chakraborty, D. M. Chipman,
 F. J. Keil, A. Warshel, W. J. Hehre, H. F. Schaefer III,
 J. Kong, A. I. Krylov, P. M. W. Gill, M. Head-Gordon,
 Q-Chem, Version 3.1, Q-Chem, Inc., Pittsburgh, PA (2007).

 Additional authors for Version 3.1: 
 Z. Gan, Y. Zhao, N. E. Schultz, D. Truhlar, E. Epifanovsky and M. Oana.

 Additional authors for Version 3.2: 
 R. Baer, B. R. Brooks, D. Casanova, J.-D. Chai, C.-L. Cheng, 
 C. Cramer, D. Crittenden, A. Ghysels, G. Hawkins, E. G. Hohenstein, 
 C. Kelley, W. Kurlancheek, D. Liotard, E. Livshits, P. Manohar, 
 A. Marenich, D. Neuhauser, R. Olson, M. A. Rohrdanz, K. S. Thanthiriwatte, 
 A. J. W. Thom, V. Vanovschi, C. F. Williams, Q. Wu and Z.-Q. You. 


 Intel X86 Linux Version

 Q-chem begins on Mon Nov 14 19:39:09 2011  

 Parallel job on  1  processors
Processing $rem in /usr/local/qchem/config/preferences.

theFileMan(): MAXOPENFILES=974 MAX_SUB_FILE_NUM=16
Maximum size of a physical file is 2.0 GB, maximum size of a tmp-file is 32.0 GB


--------------------------------------------------------------
User input:
--------------------------------------------------------------

$molecule
-1,1
C
X,1,1.
C,1,CC,2,CCX
C,1,CC,2,CCX,3,120.,0
C,1,CC,2,CCX,3,-120.,0
X,3,1.,1,XCC,2,0.,0
H,3,CH1,1,H1CC,6,180.,0
H,3,CH2,6,HCX,1,90.,0
H,3,CH2,6,HCX,1,-90.,0
X,4,1.,1,XCC,2,0.,0
H,4,CH1,1,H1CC,10,180.,0
H,4,CH2,10,HCX,1,90.,0
H,4,CH2,10,HCX,1,-90.,0
X,5,1.,1,XCC,2,0.,0
H,5,CH1,1,H1CC,14,180.,0
H,5,CH2,14,HCX,1,90.,0
H,5,CH2,14,HCX,1,-90.,0

CC=1.4974949
CH1=1.10709549
CH2=1.09754396
XCC=129.18006387
H1CC=112.18931802
HCX=54.06363192
CCX=96.10000574

$end

$comment
negative
$end

$xc_functional
   X HF 1.0
   X BNL 1.0
   C LYP 1.0
$end

$rem
SYMMETRY_DECOMPOSITION	0
exchange 		general
BASIS                   g3large
omega			51
separate_jk		true
mem_static              760
max_scf_cycles          200
scf_final_print         1
sym_ignore              true
$end

--------------------------------------------------------------
 Writing REM_CC_EA           13
 ----------------------------------------------------
       Standard Nuclear Orientation (Angstroms)
    I     Atom         X            Y            Z
 ----------------------------------------------------
    1      C       0.000000     0.000000     0.000000
    2      C       1.489016     0.000000    -0.159130
    3      C      -0.744508    -1.289526    -0.159130
    4      C      -0.744508     1.289526    -0.159130
    5      H       1.795831     0.000000    -1.222862
    6      H       1.946708     0.888648     0.294109
    7      H       1.946708    -0.888648     0.294109
    8      H      -0.897916    -1.555236    -1.222862
    9      H      -0.203763    -2.130223     0.294109
   10      H      -1.742946    -1.241575     0.294109
   11      H      -0.897916     1.555236    -1.222862
   12      H      -1.742946     1.241575     0.294109
   13      H      -0.203763     2.130223     0.294109
 ----------------------------------------------------
 Nuclear Repulsion Energy =   124.9362447512 hartrees
 There are       17 alpha and       17 beta electrons
 Requested basis set is G3large
 There are 94 shells and 258 basis functions

Total QAlloc Memory Limit   2000 MB
Mega-Array Size       743 MB
MEM_STATIC part       760 MB

                       Distance Matrix (Angstroms)
             C (  1)   C (  2)   C (  3)   C (  4)   H (  5)   H (  6)
   C (  2)  1.497495
   C (  3)  1.497495  2.579051
   C (  4)  1.497495  2.579051  2.579051
   H (  5)  2.172648  1.107095  3.041007  3.041007
   H (  6)  2.160062  1.097544  3.491777  2.758401  1.764556
   H (  7)  2.160062  1.097544  2.758401  3.491777  1.764556  1.777295
   H (  8)  2.172648  3.041007  1.107095  3.041007  3.110471  4.045448
   H (  9)  2.160062  2.758401  1.097544  3.491777  3.292025  3.706495
   H ( 10)  2.160062  3.491777  1.097544  2.758401  4.045448  4.260445
   H ( 11)  2.172648  3.041007  3.041007  1.107095  3.110471  3.292025
   H ( 12)  2.160062  3.491777  2.758401  1.097544  4.045448  3.706495
   H ( 13)  2.160062  2.758401  3.491777  1.097544  3.292025  2.483150
             H (  7)   H (  8)   H (  9)   H ( 10)   H ( 11)   H ( 12)
   H (  8)  3.292025
   H (  9)  2.483150  1.764556
   H ( 10)  3.706495  1.764556  1.777295
   H ( 11)  4.045448  3.110471  4.045448  3.292025
   H ( 12)  4.260445  3.292025  3.706495  2.483150  1.764556
   H ( 13)  3.706495  4.045448  4.260445  3.706495  1.764556  1.777295

 
 A cutoff of  1.0D-08 yielded   4111 shell pairs
 There are  31083 function pairs ( 37323 Cartesian)
Evaluating contribution to one-electron hamiltonian from nuclear
 Smallest overlap matrix eigenvalue = 4.90E-05

 Q-Chem warning in module mkSTV.C, line 194:

 Overlap eigenvalue is smaller than square root of threshold

 Multipole matrices computed through 2nd order

  Scale SEOQF with 1.000000e-01/1.000000e-01/1.000000e-01

 Standard Electronic Orientation quadrupole field applied
 Nucleus-field energy     =     0.0000000035 hartrees
 Guess from superposition of atomic densities
 Warning:  Energy on first SCF cycle will be non-variational
 A restricted hybrid HF-DFT SCF calculation will be
 performed using Pulay DIIS extrapolation
 Exchange:     1.0000 Hartree-Fock + 1.0000 BNL
 Correlation:  1.0000 LYP
 Using SG-1 standard quadrature grid
 SCF converges when DIIS error is below 1.0E-05
 Warning!  Inaccurate integrated density:
   Number of electrons =    34
   Numerical integral  =    33.000414039965
   Relative error      =    -2.9399587060 %
 ---------------------------------------
  Cycle       Energy         DIIS Error
 ---------------------------------------
    1    -155.7594939327      2.66E-02
    2    -154.8731613404      6.83E-03
    3    -151.6036635400      1.83E-02
    4    -155.3105121813      1.83E-03
    5    -155.1791018713      3.99E-03
    6    -155.3485117888      3.38E-04
    7    -155.3482447418      3.75E-04
    8    -155.3492225103      2.12E-04
    9    -155.3495725801      8.88E-05
   10    -155.3496439493      2.26E-05
   11    -155.3496505230      1.04E-05
   12    -155.3496541754      6.72E-06 Convergence criterion met
 ---------------------------------------
 One-Electron    Energy =  -463.1402296692
 Total Coulomb   Energy =   205.3988753685
 Alpha Exchange  Energy =    -0.4867237020
 Beta  Exchange  Energy =    -0.4867237020
 DFT   Exchange  Energy =   -20.5093179196
 DFT Correlation Energy =    -1.0617793058
 Nuclear Repu.   Energy =   124.9362447547
 Nuclear Attr.   Energy =  -618.0625190120
 Kinetic         Energy =   154.9222893428
 SCF time:  CPU 288.05 s  wall 307.77 s
 Final Alpha MO Eigenvalues
            1           2           3           4           5           6
    1  -9.5938447  -9.5938351  -9.5938118  -9.5729772  -0.5535873  -0.4646924
            7           8           9          10          11          12
    1  -0.4646893  -0.3138185  -0.2409844  -0.2409717  -0.2326913  -0.1852510
           13          14          15          16          17          18
    1  -0.1852462  -0.1728743  -0.1466606  -0.1466565   0.0561437   0.1180192
           19          20          21          22
    1   0.1356191   0.1356253   0.1543136   0.1587768
 Analysis of SCF Wavefunction
 
 --------------------------------------------------------------
                    Orbital Energies (a.u.)
 --------------------------------------------------------------
 
 Alpha MOs
 -- Occupied --
 -9.594  -9.594  -9.594  -9.573  -0.554  -0.465  -0.465  -0.314
 -0.241  -0.241  -0.233  -0.185  -0.185  -0.173  -0.147  -0.147
  0.056
 -- Virtual --
  0.118   0.136   0.136   0.154   0.159   0.159   0.173   0.173
  0.194   0.195   0.223   0.231   0.232   0.245   0.247   0.247
  0.268   0.268   0.279   0.283   0.283   0.302   0.303   0.303
  0.306   0.340   0.340   0.357   0.360   0.360   0.368   0.425
  0.440   0.444   0.444   0.476   0.476   0.558   0.558   0.586
  0.626   0.626   0.652   0.653   0.653   0.665   0.701   0.701
  0.705   0.707   0.711   0.712   0.724   0.763   0.763   0.788
  0.788   0.809   0.825   0.833   0.833   0.897   0.946   0.946
  0.975   0.990   0.990   1.025   1.061   1.061   1.081   1.148
  1.149   1.191   1.258   1.258   1.289   1.289   1.301   1.304
  1.328   1.328   1.379   1.396   1.396   1.417   1.419   1.419
  1.453   1.476   1.476   1.478   1.508   1.508   1.571   1.571
  1.593   1.608   1.640   1.640   1.658   1.680   1.715   1.715
  1.724   1.796   1.796   1.898   1.898   2.506   2.506   2.595
  2.608   2.657   2.657   2.721   2.843   2.843   2.911   2.925
  2.937   2.937   3.002   3.009   3.009   3.061   3.061   3.081
  3.085   3.124   3.124   3.249   3.249   3.275   3.289   3.289
  3.333   3.333   3.346   3.350   3.404   3.404   3.446   3.446
  3.456   3.470   3.522   3.539   3.540   3.665   3.671   3.671
  3.708   3.708   3.731   3.792   3.792   3.869   3.890   3.890
  3.925   3.925   3.971   3.972   4.017   4.093   4.093   4.121
  4.172   4.221   4.221   4.226   4.292   4.292   4.369   4.369
  4.372   4.385   4.444   4.444   4.478   4.493   4.566   4.575
  4.575   4.649   4.649   4.667   4.701   4.701   4.765   4.765
  4.876   5.051   5.051   5.120   5.287   5.592   5.592   5.751
  5.781   5.781   5.790   5.801   5.801  24.114  24.427  24.427
 24.566  27.571  27.783  27.783  28.146  28.161  28.161  28.177
 28.191  28.252  28.252  28.659  28.659  40.909  40.942  40.943
 40.950  40.971  40.986  41.002  41.076  41.272  41.276  41.278
 41.295  41.298  41.301  41.311  41.315  41.323  41.353  41.360
 41.453
 --------------------------------------------------------------
 
          Ground-State Mulliken Net Atomic Charges

     Atom                 Charge (a.u.)
  ----------------------------------------
      1 C                    -0.894406
      2 C                     0.270613
      3 C                     0.273090
      4 C                     0.273692
      5 H                    -0.407411
      6 H                     0.050558
      7 H                     0.050890
      8 H                    -0.409894
      9 H                     0.050651
     10 H                     0.051002
     11 H                    -0.410020
     12 H                     0.050360
     13 H                     0.050876
  ----------------------------------------
  Sum of atomic charges =    -1.000000

 -----------------------------------------------------------------
                    Cartesian Multipole Moments
 -----------------------------------------------------------------
    Charge (ESU x 10^10)
                -4.8032
    Dipole Moment (Debye)
         X       0.0022      Y      -0.0014      Z       5.2056
       Tot       5.2056
    Quadrupole Moments (Debye-Ang)
        XX     -45.8223     XY       0.0000     YY     -45.8226
        XZ       0.0036     YZ       0.0011     ZZ     -56.6115
    Octapole Moments (Debye-Ang^2)
       XXX     -10.0155    XXY      -0.0054    XYY      10.0448
       YYY      -0.0094    XXZ      34.2743    XYZ      -0.0007
       YYZ      34.2734    XZZ       0.0292    YZZ      -0.0045
       ZZZ      77.7175
    Hexadecapole Moments (Debye-Ang^3)
      XXXX    -424.4414   XXXY       0.0134   XXYY    -141.4832
      XYYY       0.0116   YYYY    -424.4615   XXXZ      13.5534
      XXYZ       0.0018   XYYZ     -13.5573   YYYZ       0.0112
      XXZZ    -150.0708   XYZZ       0.0041   YYZZ    -150.0864
      XZZZ      -0.0113   YZZZ       0.0091   ZZZZ    -393.4207
 -----------------------------------------------------------------
 Total job time:  308.35s(wall), 288.40s(cpu) 
 Mon Nov 14 19:44:17 2011

        *************************************************************
        *                                                           *
        *  Thank you very much for using Q-Chem.  Have a nice day.  *
        *                                                           *
        *************************************************************


0 sent ACK to 0 
now end server 0 ... 
 
**********************************************************************
Job 2 of 3 
**********************************************************************
 
Process 0 of 1 is on cl185.stfx.acenet.ca - thread support 1
initial socket setup ...start
initial socket setup ...done 
now start server 0 ... 

cmd = /usr/bin/ssh clhead /usr/local/qchem/bin/get_hostid 18346431 > /scratch/tmp/4825615.1.medium.q/qchem22527/lic.dat
                  Welcome to Q-Chem
     A Quantum Leap Into The Future Of Chemistry

 Y. Shao, L. Fusti-Molnar, Y. Jung, J. Kussmann, C. Ochsenfeld,
 S. T. Brown, A. T. B. Gilbert, L. V. Slipchenko,S. V. Levchenko,
 D. P. O'Neill, R. A. DiStasio Jr., R. C. Lochan, T. Wang,
 G. J. O. Beran, N. A. Besley, J. M. Herbert, C. Y. Lin,
 T. Van Voorhis, S. H. Chien, A. Sodt, R. P. Steele, 
 V. A. Rassolov, P. E. Maslen, P. P. Korambath, R. D. Adamson,
 B. Austin, J. Baker, E. F. C. Byrd, H. Dachsel, R. J. Doerksen,
 A. Dreuw, B. D. Dunietz, A. D. Dutoi, T. R. Furlani,
 S. R. Gwaltney, A. Heyden, S. Hirata, C.-P. Hsu, G. Kedziora,
 R. Z. Khaliullin, P. Klunzinger, A. M. Lee, M. S. Lee, W. Liang,
 I. Lotan, N. Nair, B. Peters, E. I. Proynov, P. A. Pieniazek, 
 Y. M. Rhee, J. Ritchie, E. Rosta, C. D. Sherrill, 
 A. C. Simmonett, J. E. Subotnik, H. L. Woodcock III,
 W. Zhang, A. T. Bell, A. K. Chakraborty, D. M. Chipman,
 F. J. Keil, A. Warshel, W. J. Hehre, H. F. Schaefer III,
 J. Kong, A. I. Krylov, P. M. W. Gill, M. Head-Gordon,
 Q-Chem, Version 3.1, Q-Chem, Inc., Pittsburgh, PA (2007).

 Additional authors for Version 3.1: 
 Z. Gan, Y. Zhao, N. E. Schultz, D. Truhlar, E. Epifanovsky and M. Oana.

 Additional authors for Version 3.2: 
 R. Baer, B. R. Brooks, D. Casanova, J.-D. Chai, C.-L. Cheng, 
 C. Cramer, D. Crittenden, A. Ghysels, G. Hawkins, E. G. Hohenstein, 
 C. Kelley, W. Kurlancheek, D. Liotard, E. Livshits, P. Manohar, 
 A. Marenich, D. Neuhauser, R. Olson, M. A. Rohrdanz, K. S. Thanthiriwatte, 
 A. J. W. Thom, V. Vanovschi, C. F. Williams, Q. Wu and Z.-Q. You. 


 Intel X86 Linux Version

 Q-chem begins on Mon Nov 14 19:44:20 2011  

 Parallel job on  1  processors
Processing $rem in /usr/local/qchem/config/preferences.

theFileMan(): MAXOPENFILES=974 MAX_SUB_FILE_NUM=16
Maximum size of a physical file is 2.0 GB, maximum size of a tmp-file is 32.0 GB


--------------------------------------------------------------
User input:
--------------------------------------------------------------

$molecule
0,2
C
X,1,1.
C,1,CC,2,CCX
C,1,CC,2,CCX,3,120.,0
C,1,CC,2,CCX,3,-120.,0
X,3,1.,1,XCC,2,0.,0
H,3,CH1,1,H1CC,6,180.,0
H,3,CH2,6,HCX,1,90.,0
H,3,CH2,6,HCX,1,-90.,0
X,4,1.,1,XCC,2,0.,0
H,4,CH1,1,H1CC,10,180.,0
H,4,CH2,10,HCX,1,90.,0
H,4,CH2,10,HCX,1,-90.,0
X,5,1.,1,XCC,2,0.,0
H,5,CH1,1,H1CC,14,180.,0
H,5,CH2,14,HCX,1,90.,0
H,5,CH2,14,HCX,1,-90.,0

CC=1.4974949
CH1=1.10709549
CH2=1.09754396
XCC=129.18006387
H1CC=112.18931802
HCX=54.06363192
CCX=96.10000574

$end

$comment
neutral
$end

$xc_functional
   X HF 1.0
   X BNL 1.0
   C LYP 1.0
$end

$rem
SYMMETRY_DECOMPOSITION	0
exchange 		general
BASIS                   g3large
omega			51
separate_jk		true
mem_static              760
max_scf_cycles          200
scf_final_print         1
sym_ignore              true
$end

--------------------------------------------------------------
 Writing REM_CC_EA           13
 ----------------------------------------------------
       Standard Nuclear Orientation (Angstroms)
    I     Atom         X            Y            Z
 ----------------------------------------------------
    1      C       0.000000     0.000000     0.000000
    2      C       1.489016     0.000000    -0.159130
    3      C      -0.744508    -1.289526    -0.159130
    4      C      -0.744508     1.289526    -0.159130
    5      H       1.795831     0.000000    -1.222862
    6      H       1.946708     0.888648     0.294109
    7      H       1.946708    -0.888648     0.294109
    8      H      -0.897916    -1.555236    -1.222862
    9      H      -0.203763    -2.130223     0.294109
   10      H      -1.742946    -1.241575     0.294109
   11      H      -0.897916     1.555236    -1.222862
   12      H      -1.742946     1.241575     0.294109
   13      H      -0.203763     2.130223     0.294109
 ----------------------------------------------------
 Nuclear Repulsion Energy =   124.9362447512 hartrees
 There are       17 alpha and       16 beta electrons
 Requested basis set is G3large
 There are 94 shells and 258 basis functions

Total QAlloc Memory Limit   2000 MB
Mega-Array Size       743 MB
MEM_STATIC part       760 MB

                       Distance Matrix (Angstroms)
             C (  1)   C (  2)   C (  3)   C (  4)   H (  5)   H (  6)
   C (  2)  1.497495
   C (  3)  1.497495  2.579051
   C (  4)  1.497495  2.579051  2.579051
   H (  5)  2.172648  1.107095  3.041007  3.041007
   H (  6)  2.160062  1.097544  3.491777  2.758401  1.764556
   H (  7)  2.160062  1.097544  2.758401  3.491777  1.764556  1.777295
   H (  8)  2.172648  3.041007  1.107095  3.041007  3.110471  4.045448
   H (  9)  2.160062  2.758401  1.097544  3.491777  3.292025  3.706495
   H ( 10)  2.160062  3.491777  1.097544  2.758401  4.045448  4.260445
   H ( 11)  2.172648  3.041007  3.041007  1.107095  3.110471  3.292025
   H ( 12)  2.160062  3.491777  2.758401  1.097544  4.045448  3.706495
   H ( 13)  2.160062  2.758401  3.491777  1.097544  3.292025  2.483150
             H (  7)   H (  8)   H (  9)   H ( 10)   H ( 11)   H ( 12)
   H (  8)  3.292025
   H (  9)  2.483150  1.764556
   H ( 10)  3.706495  1.764556  1.777295
   H ( 11)  4.045448  3.110471  4.045448  3.292025
   H ( 12)  4.260445  3.292025  3.706495  2.483150  1.764556
   H ( 13)  3.706495  4.045448  4.260445  3.706495  1.764556  1.777295

 
 A cutoff of  1.0D-08 yielded   4111 shell pairs
 There are  31083 function pairs ( 37323 Cartesian)
Evaluating contribution to one-electron hamiltonian from nuclear
 Smallest overlap matrix eigenvalue = 4.90E-05

 Q-Chem warning in module mkSTV.C, line 194:

 Overlap eigenvalue is smaller than square root of threshold

 Multipole matrices computed through 2nd order

  Scale SEOQF with 1.000000e-01/1.000000e-01/1.000000e-01

 Standard Electronic Orientation quadrupole field applied
 Nucleus-field energy     =     0.0000000035 hartrees
 Guess from superposition of atomic densities
 Warning:  Energy on first SCF cycle will be non-variational
 An unrestricted hybrid HF-DFT SCF calculation will be
 performed using Pulay DIIS extrapolation
 Exchange:     1.0000 Hartree-Fock + 1.0000 BNL
 Correlation:  1.0000 LYP
 Using SG-1 standard quadrature grid
 SCF converges when DIIS error is below 1.0E-05
 ---------------------------------------
  Cycle       Energy         DIIS Error
 ---------------------------------------
    1    -155.7594939327      2.66E-02
    2    -155.1477351495      4.94E-03
    3    -154.9974464511      6.26E-03
    4    -155.3607520120      6.67E-04
    5    -155.3639854640      3.56E-04
    6    -155.3649638782      3.61E-05
    7    -155.3649802867      8.42E-06 Convergence criterion met
 ---------------------------------------
 One-Electron    Energy =  -457.5258240412
 Total Coulomb   Energy =   199.6297293339
 Alpha Exchange  Energy =    -0.4874577845
 Beta  Exchange  Energy =    -0.4588370695
 DFT   Exchange  Energy =   -20.4210777863
 DFT Correlation Energy =    -1.0377576938
 Nuclear Repu.   Energy =   124.9362447547
 Nuclear Attr.   Energy =  -612.3565630821
 Kinetic         Energy =   154.8307390409
 <S^2> = 0.7520
 SCF time:  CPU 212.64 s  wall 227.17 s
 Final Alpha MO Eigenvalues
            1           2           3           4           5           6
    1  -9.7842170  -9.7585478  -9.7583999  -9.7582636  -0.7380464  -0.6346116
            7           8           9          10          11          12
    1  -0.6345494  -0.4911040  -0.4110790  -0.4106476  -0.4106228  -0.3550234
           13          14          15          16          17          18
    1  -0.3549626  -0.3343991  -0.3201464  -0.3201248  -0.1476527   0.0031417
           19          20          21          22
    1   0.0313763   0.0313851   0.0428225   0.0549590
 Final Beta MO Eigenvalues
            1           2           3           4           5           6
    1  -9.7706099  -9.7590599  -9.7589133  -9.7587789  -0.7255566  -0.6309227
            7           8           9          10          11          12
    1  -0.6308622  -0.4789757  -0.4059837  -0.4059540  -0.3990376  -0.3496587
           13          14          15          16          17          18
    1  -0.3496015  -0.3330864  -0.3142023  -0.3141746  -0.0474545   0.0039811
           19          20          21
    1   0.0314753   0.0314814   0.0433525
 Analysis of SCF Wavefunction
 
 --------------------------------------------------------------
                    Orbital Energies (a.u.)
 --------------------------------------------------------------
 
 Alpha MOs
 -- Occupied --
 -9.784  -9.759  -9.758  -9.758  -0.738  -0.635  -0.635  -0.491
 -0.411  -0.411  -0.411  -0.355  -0.355  -0.334  -0.320  -0.320
 -0.148
 -- Virtual --
  0.003   0.031   0.031   0.043   0.055   0.055   0.071   0.071
  0.073   0.094   0.099   0.108   0.108   0.130   0.130   0.131
  0.150   0.151   0.151   0.163   0.163   0.175   0.179   0.179
  0.188   0.198   0.198   0.220   0.231   0.233   0.233   0.264
  0.303   0.303   0.306   0.322   0.322   0.413   0.414   0.436
  0.480   0.480   0.504   0.504   0.505   0.507   0.543   0.548
  0.548   0.561   0.563   0.565   0.565   0.605   0.605   0.621
  0.622   0.653   0.671   0.688   0.688   0.724   0.782   0.782
  0.816   0.826   0.826   0.862   0.893   0.893   0.926   0.987
  0.988   1.023   1.099   1.099   1.129   1.129   1.142   1.145
  1.164   1.164   1.215   1.234   1.234   1.246   1.256   1.256
  1.300   1.308   1.308   1.310   1.351   1.351   1.413   1.413
  1.430   1.445   1.481   1.481   1.499   1.513   1.559   1.559
  1.561   1.625   1.625   1.727   1.727   2.340   2.340   2.419
  2.443   2.488   2.488   2.554   2.669   2.669   2.715   2.753
  2.756   2.756   2.794   2.830   2.830   2.893   2.893   2.894
  2.919   2.947   2.947   3.069   3.069   3.104   3.121   3.121
  3.154   3.154   3.169   3.184   3.235   3.235   3.276   3.276
  3.289   3.307   3.339   3.366   3.366   3.487   3.487   3.498
  3.534   3.534   3.565   3.613   3.613   3.696   3.717   3.717
  3.748   3.748   3.801   3.801   3.851   3.921   3.921   3.956
  3.984   4.048   4.048   4.056   4.120   4.120   4.201   4.201
  4.202   4.209   4.273   4.273   4.296   4.329   4.398   4.404
  4.404   4.475   4.475   4.493   4.523   4.523   4.595   4.595
  4.695   4.871   4.871   4.940   5.115   5.413   5.413   5.581
  5.611   5.611   5.627   5.637   5.637  23.919  24.262  24.262
 24.384  27.353  27.598  27.598  27.980  27.996  27.996  28.011
 28.027  28.086  28.086  28.473  28.474  40.707  40.766  40.779
 40.786  40.803  40.819  40.821  40.886  41.072  41.081  41.112
 41.119  41.120  41.134  41.139  41.142  41.150  41.188  41.195
 41.260
 
 Beta MOs
 -- Occupied --
 -9.771  -9.759  -9.759  -9.759  -0.726  -0.631  -0.631  -0.479
 -0.406  -0.406  -0.399  -0.350  -0.350  -0.333  -0.314  -0.314
 -- Virtual --
 -0.047   0.004   0.031   0.031   0.043   0.055   0.055   0.070
  0.070   0.075   0.097   0.099   0.109   0.109   0.131   0.131
  0.132   0.151   0.151   0.153   0.163   0.163   0.179   0.180
  0.180   0.188   0.201   0.201   0.225   0.232   0.234   0.235
  0.276   0.308   0.308   0.310   0.327   0.327   0.416   0.417
  0.440   0.482   0.482   0.507   0.507   0.509   0.514   0.552
  0.552   0.560   0.564   0.566   0.566   0.568   0.609   0.609
  0.628   0.628   0.658   0.677   0.691   0.691   0.740   0.788
  0.788   0.818   0.830   0.830   0.867   0.901   0.901   0.928
  0.992   0.992   1.029   1.103   1.103   1.133   1.133   1.145
  1.151   1.170   1.170   1.221   1.240   1.240   1.258   1.261
  1.261   1.302   1.315   1.315   1.320   1.355   1.355   1.417
  1.417   1.434   1.451   1.484   1.484   1.500   1.525   1.564
  1.564   1.568   1.636   1.636   1.735   1.735   2.345   2.345
  2.431   2.446   2.495   2.495   2.562   2.677   2.677   2.740
  2.756   2.766   2.766   2.835   2.842   2.843   2.896   2.896
  2.913   2.921   2.955   2.955   3.084   3.084   3.111   3.125
  3.125   3.167   3.167   3.183   3.186   3.239   3.239   3.281
  3.281   3.292   3.308   3.360   3.372   3.372   3.501   3.504
  3.504   3.543   3.543   3.566   3.627   3.627   3.702   3.722
  3.722   3.760   3.760   3.807   3.807   3.856   3.928   3.928
  3.958   4.003   4.057   4.057   4.064   4.130   4.130   4.208
  4.208   4.209   4.221   4.281   4.281   4.308   4.333   4.403
  4.412   4.412   4.484   4.484   4.502   4.535   4.535   4.601
  4.601   4.707   4.882   4.882   4.948   5.123   5.422   5.422
  5.588   5.618   5.618   5.629   5.641   5.641  23.932  24.261
 24.261  24.390  27.378  27.602  27.602  27.980  27.996  27.996
 28.011  28.027  28.086  28.086  28.478  28.478  40.727  40.769
 40.778  40.785  40.803  40.821  40.825  40.891  41.091  41.099
 41.112  41.122  41.122  41.134  41.141  41.143  41.151  41.188
 41.195  41.265
 --------------------------------------------------------------
 
          Ground-State Mulliken Net Atomic Charges

     Atom                 Charge (a.u.)    Spin (a.u.)
  --------------------------------------------------------
      1 C                     0.308049       0.763012
      2 C                    -0.554774      -0.010300
      3 C                    -0.553812      -0.010938
      4 C                    -0.553342      -0.010831
      5 H                     0.150620       0.079039
      6 H                     0.150416       0.005330
      7 H                     0.150382       0.005331
      8 H                     0.150627       0.079067
      9 H                     0.150447       0.005312
     10 H                     0.150361       0.005319
     11 H                     0.150531       0.079012
     12 H                     0.150176       0.005324
     13 H                     0.150319       0.005323
  --------------------------------------------------------
  Sum of atomic charges =     0.000000
  Sum of spin   charges =     1.000000

 -----------------------------------------------------------------
                    Cartesian Multipole Moments
 -----------------------------------------------------------------
    Charge (ESU x 10^10)
                 0.0000
    Dipole Moment (Debye)
         X      -0.0002      Y       0.0008      Z      -0.2103
       Tot       0.2103
    Quadrupole Moments (Debye-Ang)
        XX     -28.2389     XY       0.0015     YY     -28.2400
        XZ       0.0003     YZ       0.0000     ZZ     -29.5235
    Octapole Moments (Debye-Ang^2)
       XXX      -1.4160    XXY      -0.0028    XYY       1.4162
       YYY      -0.0084    XXZ       5.9170    XYZ      -0.0001
       YYZ       5.9177    XZZ       0.0000    YZZ      -0.0029
       ZZZ      10.9689
    Hexadecapole Moments (Debye-Ang^3)
      XXXX    -237.9721   XXXY       0.0130   XXYY     -79.3253
      XYYY       0.0087   YYYY    -237.9779   XXXZ      -1.6940
      XXYZ       0.0002   XYYZ       1.6957   YYYZ       0.0008
      XXZZ     -50.8315   XYZZ       0.0036   YYZZ     -50.8326
      XZZZ       0.0009   YZZZ       0.0029   ZZZZ     -65.7795
 -----------------------------------------------------------------
 Total job time:  227.60s(wall), 212.97s(cpu) 
 Mon Nov 14 19:48:07 2011

        *************************************************************
        *                                                           *
        *  Thank you very much for using Q-Chem.  Have a nice day.  *
        *                                                           *
        *************************************************************


0 sent ACK to 0 
now end server 0 ... 
 
**********************************************************************
Job 3 of 3 
**********************************************************************
 
Process 0 of 1 is on cl185.stfx.acenet.ca - thread support 1
initial socket setup ...start
initial socket setup ...done 
now start server 0 ... 

cmd = /usr/bin/ssh clhead /usr/local/qchem/bin/get_hostid 1701109687 > /scratch/tmp/4825615.1.medium.q/qchem22527/lic.dat
                  Welcome to Q-Chem
     A Quantum Leap Into The Future Of Chemistry

 Y. Shao, L. Fusti-Molnar, Y. Jung, J. Kussmann, C. Ochsenfeld,
 S. T. Brown, A. T. B. Gilbert, L. V. Slipchenko,S. V. Levchenko,
 D. P. O'Neill, R. A. DiStasio Jr., R. C. Lochan, T. Wang,
 G. J. O. Beran, N. A. Besley, J. M. Herbert, C. Y. Lin,
 T. Van Voorhis, S. H. Chien, A. Sodt, R. P. Steele, 
 V. A. Rassolov, P. E. Maslen, P. P. Korambath, R. D. Adamson,
 B. Austin, J. Baker, E. F. C. Byrd, H. Dachsel, R. J. Doerksen,
 A. Dreuw, B. D. Dunietz, A. D. Dutoi, T. R. Furlani,
 S. R. Gwaltney, A. Heyden, S. Hirata, C.-P. Hsu, G. Kedziora,
 R. Z. Khaliullin, P. Klunzinger, A. M. Lee, M. S. Lee, W. Liang,
 I. Lotan, N. Nair, B. Peters, E. I. Proynov, P. A. Pieniazek, 
 Y. M. Rhee, J. Ritchie, E. Rosta, C. D. Sherrill, 
 A. C. Simmonett, J. E. Subotnik, H. L. Woodcock III,
 W. Zhang, A. T. Bell, A. K. Chakraborty, D. M. Chipman,
 F. J. Keil, A. Warshel, W. J. Hehre, H. F. Schaefer III,
 J. Kong, A. I. Krylov, P. M. W. Gill, M. Head-Gordon,
 Q-Chem, Version 3.1, Q-Chem, Inc., Pittsburgh, PA (2007).

 Additional authors for Version 3.1: 
 Z. Gan, Y. Zhao, N. E. Schultz, D. Truhlar, E. Epifanovsky and M. Oana.

 Additional authors for Version 3.2: 
 R. Baer, B. R. Brooks, D. Casanova, J.-D. Chai, C.-L. Cheng, 
 C. Cramer, D. Crittenden, A. Ghysels, G. Hawkins, E. G. Hohenstein, 
 C. Kelley, W. Kurlancheek, D. Liotard, E. Livshits, P. Manohar, 
 A. Marenich, D. Neuhauser, R. Olson, M. A. Rohrdanz, K. S. Thanthiriwatte, 
 A. J. W. Thom, V. Vanovschi, C. F. Williams, Q. Wu and Z.-Q. You. 


 Intel X86 Linux Version

 Q-chem begins on Mon Nov 14 19:48:11 2011  

 Parallel job on  1  processors
Processing $rem in /usr/local/qchem/config/preferences.

theFileMan(): MAXOPENFILES=974 MAX_SUB_FILE_NUM=16
Maximum size of a physical file is 2.0 GB, maximum size of a tmp-file is 32.0 GB


--------------------------------------------------------------
User input:
--------------------------------------------------------------

$molecule
1,1
C
X,1,1.
C,1,CC,2,CCX
C,1,CC,2,CCX,3,120.,0
C,1,CC,2,CCX,3,-120.,0
X,3,1.,1,XCC,2,0.,0
H,3,CH1,1,H1CC,6,180.,0
H,3,CH2,6,HCX,1,90.,0
H,3,CH2,6,HCX,1,-90.,0
X,4,1.,1,XCC,2,0.,0
H,4,CH1,1,H1CC,10,180.,0
H,4,CH2,10,HCX,1,90.,0
H,4,CH2,10,HCX,1,-90.,0
X,5,1.,1,XCC,2,0.,0
H,5,CH1,1,H1CC,14,180.,0
H,5,CH2,14,HCX,1,90.,0
H,5,CH2,14,HCX,1,-90.,0

CC=1.4974949
CH1=1.10709549
CH2=1.09754396
XCC=129.18006387
H1CC=112.18931802
HCX=54.06363192
CCX=96.10000574

$end

$comment
positive
$end

$xc_functional
   X HF 1.0
   X BNL 1.0
   C LYP 1.0
$end

$rem
SYMMETRY_DECOMPOSITION	0
exchange 		general
BASIS                   g3large
omega			51
separate_jk		true
mem_static              760
max_scf_cycles          200
scf_final_print         1
sym_ignore              true
$end

--------------------------------------------------------------
 Writing REM_CC_EA           13
 ----------------------------------------------------
       Standard Nuclear Orientation (Angstroms)
    I     Atom         X            Y            Z
 ----------------------------------------------------
    1      C       0.000000     0.000000     0.000000
    2      C       1.489016     0.000000    -0.159130
    3      C      -0.744508    -1.289526    -0.159130
    4      C      -0.744508     1.289526    -0.159130
    5      H       1.795831     0.000000    -1.222862
    6      H       1.946708     0.888648     0.294109
    7      H       1.946708    -0.888648     0.294109
    8      H      -0.897916    -1.555236    -1.222862
    9      H      -0.203763    -2.130223     0.294109
   10      H      -1.742946    -1.241575     0.294109
   11      H      -0.897916     1.555236    -1.222862
   12      H      -1.742946     1.241575     0.294109
   13      H      -0.203763     2.130223     0.294109
 ----------------------------------------------------
 Nuclear Repulsion Energy =   124.9362447512 hartrees
 There are       16 alpha and       16 beta electrons
 Requested basis set is G3large
 There are 94 shells and 258 basis functions

Total QAlloc Memory Limit   2000 MB
Mega-Array Size       743 MB
MEM_STATIC part       760 MB

                       Distance Matrix (Angstroms)
             C (  1)   C (  2)   C (  3)   C (  4)   H (  5)   H (  6)
   C (  2)  1.497495
   C (  3)  1.497495  2.579051
   C (  4)  1.497495  2.579051  2.579051
   H (  5)  2.172648  1.107095  3.041007  3.041007
   H (  6)  2.160062  1.097544  3.491777  2.758401  1.764556
   H (  7)  2.160062  1.097544  2.758401  3.491777  1.764556  1.777295
   H (  8)  2.172648  3.041007  1.107095  3.041007  3.110471  4.045448
   H (  9)  2.160062  2.758401  1.097544  3.491777  3.292025  3.706495
   H ( 10)  2.160062  3.491777  1.097544  2.758401  4.045448  4.260445
   H ( 11)  2.172648  3.041007  3.041007  1.107095  3.110471  3.292025
   H ( 12)  2.160062  3.491777  2.758401  1.097544  4.045448  3.706495
   H ( 13)  2.160062  2.758401  3.491777  1.097544  3.292025  2.483150
             H (  7)   H (  8)   H (  9)   H ( 10)   H ( 11)   H ( 12)
   H (  8)  3.292025
   H (  9)  2.483150  1.764556
   H ( 10)  3.706495  1.764556  1.777295
   H ( 11)  4.045448  3.110471  4.045448  3.292025
   H ( 12)  4.260445  3.292025  3.706495  2.483150  1.764556
   H ( 13)  3.706495  4.045448  4.260445  3.706495  1.764556  1.777295

 
 A cutoff of  1.0D-08 yielded   4111 shell pairs
 There are  31083 function pairs ( 37323 Cartesian)
Evaluating contribution to one-electron hamiltonian from nuclear
 Smallest overlap matrix eigenvalue = 4.90E-05

 Q-Chem warning in module mkSTV.C, line 194:

 Overlap eigenvalue is smaller than square root of threshold

 Multipole matrices computed through 2nd order

  Scale SEOQF with 1.000000e-01/1.000000e-01/1.000000e-01

 Standard Electronic Orientation quadrupole field applied
 Nucleus-field energy     =     0.0000000035 hartrees
 Guess from superposition of atomic densities
 Warning:  Energy on first SCF cycle will be non-variational
 A restricted hybrid HF-DFT SCF calculation will be
 performed using Pulay DIIS extrapolation
 Exchange:     1.0000 Hartree-Fock + 1.0000 BNL
 Correlation:  1.0000 LYP
 Using SG-1 standard quadrature grid
 SCF converges when DIIS error is below 1.0E-05
 Warning!  Inaccurate integrated density:
   Number of electrons =    32
   Numerical integral  =    33.000414039965
   Relative error      =     3.1262938749 %
 ---------------------------------------
  Cycle       Energy         DIIS Error
 ---------------------------------------
    1    -155.7594939327      2.66E-02
    2    -154.9764814764      4.39E-03
    3    -154.9048528629      5.27E-03
    4    -155.1193344268      7.90E-04
    5    -155.1234579121      3.43E-04
    6    -155.1245525801      4.34E-05
    7    -155.1245648208      1.43E-05
    8    -155.1245681173      4.45E-06 Convergence criterion met
 ---------------------------------------
 One-Electron    Energy =  -449.8931473732
 Total Coulomb   Energy =   191.9315834005
 Alpha Exchange  Energy =    -0.4588719411
 Beta  Exchange  Energy =    -0.4588719411
 DFT   Exchange  Energy =   -20.1680612194
 DFT Correlation Energy =    -1.0134437976
 Nuclear Repu.   Energy =   124.9362447547
 Nuclear Attr.   Energy =  -604.3407356293
 Kinetic         Energy =   154.4475882561
 SCF time:  CPU 182.98 s  wall 196.07 s
 Final Alpha MO Eigenvalues
            1           2           3           4           5           6
    1 -10.1022552  -9.9820147  -9.9819737  -9.9819175  -0.9828982  -0.8610576
            7           8           9          10          11          12
    1  -0.8610408  -0.7181853  -0.6391206  -0.6373667  -0.6373578  -0.5735027
           13          14          15          16          17          18
    1  -0.5734859  -0.5466771  -0.5466720  -0.5465010  -0.3329047  -0.1530279
           19          20          21
    1  -0.1059091  -0.1059049  -0.0991547
 Analysis of SCF Wavefunction
 
 --------------------------------------------------------------
                    Orbital Energies (a.u.)
 --------------------------------------------------------------
 
 Alpha MOs
 -- Occupied --
-10.102  -9.982  -9.982  -9.982  -0.983  -0.861  -0.861  -0.718
 -0.639  -0.637  -0.637  -0.574  -0.573  -0.547  -0.547  -0.547
 -- Virtual --
 -0.333  -0.153  -0.106  -0.106  -0.099  -0.089  -0.089  -0.082
 -0.073  -0.064  -0.064  -0.052  -0.052  -0.025  -0.020  -0.020
 -0.005   0.006   0.012   0.012   0.021   0.021   0.032   0.033
  0.033   0.047   0.047   0.050   0.052   0.068   0.078   0.078
  0.084   0.113   0.113   0.149   0.162   0.162   0.239   0.239
  0.254   0.298   0.298   0.308   0.323   0.323   0.331   0.341
  0.356   0.356   0.380   0.385   0.385   0.390   0.414   0.414
  0.417   0.417   0.455   0.490   0.515   0.515   0.520   0.582
  0.582   0.617   0.620   0.620   0.659   0.688   0.688   0.731
  0.786   0.786   0.816   0.899   0.899   0.930   0.930   0.944
  0.947   0.961   0.961   1.017   1.032   1.032   1.038   1.054
  1.054   1.097   1.097   1.101   1.107   1.155   1.155   1.219
  1.219   1.232   1.247   1.281   1.281   1.294   1.305   1.366
  1.366   1.367   1.415   1.415   1.513   1.513   2.127   2.127
  2.199   2.228   2.270   2.270   2.340   2.447   2.447   2.467
  2.518   2.518   2.523   2.548   2.599   2.600   2.656   2.674
  2.674   2.702   2.713   2.713   2.841   2.841   2.885   2.902
  2.902   2.928   2.928   2.937   2.972   3.013   3.013   3.058
  3.058   3.070   3.092   3.112   3.138   3.138   3.246   3.246
  3.278   3.312   3.312   3.344   3.385   3.385   3.472   3.488
  3.488   3.523   3.523   3.578   3.578   3.634   3.699   3.699
  3.739   3.749   3.826   3.826   3.833   3.898   3.898   3.986
  3.986   3.986   3.987   4.055   4.055   4.063   4.115   4.183
  4.188   4.188   4.253   4.253   4.270   4.296   4.296   4.374
  4.374   4.462   4.637   4.638   4.700   4.894   5.178   5.178
  5.362   5.394   5.394   5.412   5.424   5.424  23.637  24.036
 24.036  24.136  27.039  27.327  27.327  27.754  27.773  27.773
 27.786  27.805  27.861  27.861  28.209  28.209  40.402  40.487
 40.555  40.562  40.574  40.581  40.596  40.631  40.759  40.769
 40.858  40.889  40.893  40.901  40.909  40.917  40.923  40.963
 40.970  41.000
 --------------------------------------------------------------
 
          Ground-State Mulliken Net Atomic Charges

     Atom                 Charge (a.u.)
  ----------------------------------------
      1 C                     0.370557
      2 C                    -0.435554
      3 C                    -0.435181
      4 C                    -0.434994
      5 H                     0.246621
      6 H                     0.199260
      7 H                     0.199272
      8 H                     0.246614
      9 H                     0.199272
     10 H                     0.199155
     11 H                     0.246583
     12 H                     0.199139
     13 H                     0.199256
  ----------------------------------------
  Sum of atomic charges =     1.000000

 -----------------------------------------------------------------
                    Cartesian Multipole Moments
 -----------------------------------------------------------------
    Charge (ESU x 10^10)
                 4.8032
    Dipole Moment (Debye)
         X      -0.0001      Y      -0.0004      Z      -1.2889
       Tot       1.2889
    Quadrupole Moments (Debye-Ang)
        XX     -17.0413     XY       0.0003     YY     -17.0423
        XZ       0.0003     YZ       0.0001     ZZ     -22.4981
    Octapole Moments (Debye-Ang^2)
       XXX       4.2727    XXY       0.0001    XYY      -4.2723
       YYY       0.0002    XXZ       2.3989    XYZ      -0.0001
       YYZ       2.3993    XZZ      -0.0002    YZZ       0.0005
       ZZZ       4.9499
    Hexadecapole Moments (Debye-Ang^3)
      XXXX    -172.6895   XXXY      -0.0014   XXYY     -57.5638
      XYYY       0.0005   YYYY    -172.6928   XXXZ      -5.8182
      XXYZ       0.0001   XYYZ       5.8200   YYYZ       0.0003
      XXZZ     -34.9925   XYZZ      -0.0004   YYZZ     -34.9935
      XZZZ       0.0003   YZZZ      -0.0005   ZZZZ     -40.2710
 -----------------------------------------------------------------
 Total job time:  196.47s(wall), 183.30s(cpu) 
 Mon Nov 14 19:51:27 2011

        *************************************************************
        *                                                           *
        *  Thank you very much for using Q-Chem.  Have a nice day.  *
        *                                                           *
        *************************************************************


0 sent ACK to 0 
now end server 0 ... 
