Process 0 of 1 is on cl122 - thread support 1
initial socket setup ...start
initial socket setup ...done 
now start server 0 ... 

cmd = /usr/bin/ssh clhead /usr/local/qchem/bin/get_hostid 1700837959 > /tmp/1602009.1.medium.q/qchem24787/lic.dat

cmd = /usr/bin/ssh clhead /usr/local/qchem/bin/get_hostid 1700837959 > /tmp/1602009.1.medium.q/qchem24787/lic.dat

cmd = /usr/bin/ssh clhead /usr/local/qchem/bin/get_hostid 1700837959 > /tmp/1602009.1.medium.q/qchem24787/lic.dat

cmd = /usr/bin/ssh clhead /usr/local/qchem/bin/get_hostid 1700837959 > /tmp/1602009.1.medium.q/qchem24787/lic.dat

cmd = /usr/bin/ssh clhead /usr/local/qchem/bin/get_hostid 1700837959 > /tmp/1602009.1.medium.q/qchem24787/lic.dat
                  Welcome to Q-Chem
     A Quantum Leap Into The Future Of Chemistry

 Y. Shao, L. Fusti-Molnar, Y. Jung, J. Kussmann, C. Ochsenfeld,
 S. T. Brown, A. T. B. Gilbert, L. V. Slipchenko,S. V. Levchenko,
 D. P. O'Neill, R. A. DiStasio Jr., R. C. Lochan, T. Wang,
 G. J. O. Beran, N. A. Besley, J. M. Herbert, C. Y. Lin,
 T. Van Voorhis, S. H. Chien, A. Sodt, R. P. Steele, 
 V. A. Rassolov, P. E. Maslen, P. P. Korambath, R. D. Adamson,
 B. Austin, J. Baker, E. F. C. Byrd, H. Dachsel, R. J. Doerksen,
 A. Dreuw, B. D. Dunietz, A. D. Dutoi, T. R. Furlani,
 S. R. Gwaltney, A. Heyden, S. Hirata, C.-P. Hsu, G. Kedziora,
 R. Z. Khaliullin, P. Klunzinger, A. M. Lee, M. S. Lee, W. Liang,
 I. Lotan, N. Nair, B. Peters, E. I. Proynov, P. A. Pieniazek, 
 Y. M. Rhee, J. Ritchie, E. Rosta, C. D. Sherrill, 
 A. C. Simmonett, J. E. Subotnik, H. L. Woodcock III,
 W. Zhang, A. T. Bell, A. K. Chakraborty, D. M. Chipman,
 F. J. Keil, A. Warshel, W. J. Hehre, H. F. Schaefer III,
 J. Kong, A. I. Krylov, P. M. W. Gill, M. Head-Gordon,
 Q-Chem, Version 3.1, Q-Chem, Inc., Pittsburgh, PA (2007).

 Additional authors for Version 3.1: 
 Z. Gan, Y. Zhao, N. E. Schultz, D. Truhlar, E. Epifanovsky and M. Oana.

 Additional authors for Version 3.2: 
 R. Baer, B. R. Brooks, D. Casanova, J.-D. Chai, C.-L. Cheng, 
 C. Cramer, D. Crittenden, A. Ghysels, G. Hawkins, E. G. Hohenstein, 
 C. Kelley, W. Kurlancheek, D. Liotard, E. Livshits, P. Manohar, 
 A. Marenich, D. Neuhauser, R. Olson, M. A. Rohrdanz, K. S. Thanthiriwatte, 
 A. J. W. Thom, V. Vanovschi, C. F. Williams, Q. Wu and Z.-Q. You. 


 Intel X86 Linux Version

 Q-chem begins on Thu Mar 20 15:07:35 2014  

 Parallel job on  1  processors
Processing $rem in /usr/local/qchem/config/preferences.

theFileMan(): MAXOPENFILES=974 MAX_SUB_FILE_NUM=16
Maximum size of a physical file is 2.0 GB, maximum size of a tmp-file is 32.0 GB


--------------------------------------------------------------
User input:
--------------------------------------------------------------

$molecule
0,1
C         -0.00010        0.00000        0.01845
Si        -0.00040        0.00000        1.87168
H          1.01354        0.00000       -0.36644
H         -0.50645       -0.87766       -0.36740
H         -0.50645        0.87766       -0.36740
H         -1.38115        0.00000        2.39343
H          0.69049       -1.19616        2.39178
H          0.69049        1.19616        2.39178
$end

$comment
neutral
$end

$xc_functional
C PBE   1.00
X wPBE  1.00
$end


$rem
SYMMETRY_DECOMPOSITION	0
LRC_DFT                 true
exchange 		general
BASIS                   g3large
omega			430 
JOBTYPE                 opt
mem_static              760
max_scf_cycles          200
scf_final_print         1
sym_ignore              true
$end


--------------------------------------------------------------
 Writing REM_CC_EA            8
 ----------------------------------------------------
       Standard Nuclear Orientation (Angstroms)
    I     Atom         X            Y            Z
 ----------------------------------------------------
    1      C      -0.000100     0.000000     0.018450
    2      Si     -0.000400     0.000000     1.871680
    3      H       1.013540     0.000000    -0.366440
    4      H      -0.506450    -0.877660    -0.367400
    5      H      -0.506450     0.877660    -0.367400
    6      H      -1.381150     0.000000     2.393430
    7      H       0.690490    -1.196160     2.391780
    8      H       0.690490     1.196160     2.391780
 ----------------------------------------------------
 Nuclear Repulsion Energy =    63.3930539500 hartrees
 There are       13 alpha and       13 beta electrons
 Requested basis set is G3large
 There are 65 shells and 168 basis functions

Total QAlloc Memory Limit   2000 MB
Mega-Array Size       743 MB
MEM_STATIC part       760 MB
 A cutoff of  1.0D-11 yielded   2106 shell pairs
 There are  14143 function pairs ( 17593 Cartesian)
Evaluating contribution to one-electron hamiltonian from nuclear
 Smallest overlap matrix eigenvalue = 1.32E-04
 Multipole matrices computed through 2nd order

  Scale SEOQF with 1.000000e-01/1.000000e-01/1.000000e-01

 Standard Electronic Orientation quadrupole field applied
 Nucleus-field energy     =    -0.0000000067 hartrees
 Guess from superposition of atomic densities
 Warning:  Energy on first SCF cycle will be non-variational
 Long-range K will be added via erf
 Coulomb attenuation parameter = 0.43 bohr**(-1)
 A restricted Kohn-Sham SCF calculation will be
 performed using Pulay DIIS extrapolation
 Exchange:  wPBE + LR-HF      Correlation:  PBE
 Using SG-1 standard quadrature grid
 SCF converges when DIIS error is below 1.0E-08
 Requested basis set is G3large
 There are 65 shells and 168 basis functions
 A cutoff of  1.0D-11 yielded   2106 shell pairs
 There are  14143 function pairs ( 17593 Cartesian)
 ---------------------------------------
  Cycle       Energy         DIIS Error
 ---------------------------------------
    1    -331.2996602386      2.81E-02
    2    -331.0734816286      2.73E-03
    3    -331.0990433452      1.47E-03
    4    -331.1063626970      2.76E-04
    5    -331.1067583435      5.32E-05
    6    -331.1067788062      1.38E-05
    7    -331.1067803385      2.84E-06
    8    -331.1067804292      6.05E-07
    9    -331.1067804327      1.67E-07
   10    -331.1067804332      3.05E-08
   11    -331.1067804327      5.28E-09 Convergence criterion met
 ---------------------------------------
 One-Electron    Energy =  -581.9894612013
 Total Coulomb   Energy =   215.9724000601
 Alpha Exchange  Energy =    -2.7681909833
 Beta  Exchange  Energy =    -2.7681909833
 DFT   Exchange  Energy =   -22.0666368379
 DFT Correlation Energy =    -0.8797544304
 Nuclear Repu.   Energy =    63.3930539434
 Nuclear Attr.   Energy =  -912.3611741376
 Kinetic         Energy =   330.3717129363
 SCF time:  CPU 103.13 s  wall 104.94 s
 Final Alpha MO Eigenvalues
            1           2           3           4           5           6
    1 -65.6184316 -10.1011876  -5.2813543  -3.6812147  -3.6812043  -3.6805751
            7           8           9          10          11          12
    1  -0.8674342  -0.6702202  -0.5467003  -0.5466715  -0.4545048  -0.4544918
           13          14          15          16          17          18
    1  -0.4498500   0.0389105   0.0618831   0.0679512   0.0679627   0.0866789
 Analysis of SCF Wavefunction
 
 --------------------------------------------------------------
                    Orbital Energies (a.u.)
 --------------------------------------------------------------
 
 Alpha MOs
 -- Occupied --
-65.618 -10.101  -5.281  -3.681  -3.681  -3.681  -0.867  -0.670
 -0.547  -0.547  -0.455  -0.454  -0.450
 -- Virtual --
  0.039   0.062   0.068   0.068   0.087   0.095   0.095   0.104
  0.104   0.157   0.158   0.158   0.162   0.189   0.189   0.192
  0.206   0.241   0.241   0.241   0.306   0.306   0.361   0.365
  0.365   0.369   0.414   0.414   0.501   0.506   0.506   0.521
  0.548   0.592   0.592   0.610   0.644   0.644   0.651   0.687
  0.687   0.755   0.786   0.798   0.798   0.846   0.846   0.914
  0.930   0.930   0.955   0.960   1.017   1.086   1.087   1.150
  1.150   1.191   1.217   1.217   1.304   1.304   1.345   1.390
  1.413   1.413   1.431   1.436   1.437   1.517   1.517   1.585
  1.585   1.598   1.659   1.659   1.692   1.736   2.238   2.278
  2.283   2.283   2.347   2.347   2.463   2.620   2.620   2.722
  2.954   2.954   3.057   3.084   3.229   3.230   3.235   3.340
  3.340   3.443   3.444   3.499   3.653   3.653   3.784   3.785
  3.796   3.918   3.919   4.022   4.052   4.052   4.190   4.190
  4.192   4.234   4.255   4.255   4.358   4.358   4.371   4.481
  4.498   4.499   4.559   4.626   4.775   4.776   5.170   5.797
  5.797   6.366  11.495  11.495  11.835  17.616  17.698  17.796
 17.880  17.936  22.227  22.242  22.249  22.250  22.257  22.258
 22.284  24.184  27.870  28.124  28.124  40.994  41.010  41.227
 41.270  41.318 141.169
 --------------------------------------------------------------
 
          Ground-State Mulliken Net Atomic Charges

     Atom                 Charge (a.u.)
  ----------------------------------------
      1 C                    -0.289460
      2 Si                    0.208882
      3 H                     0.099262
      4 H                     0.099208
      5 H                     0.099208
      6 H                    -0.072263
      7 H                    -0.072419
      8 H                    -0.072418
  ----------------------------------------
  Sum of atomic charges =     0.000000

 -----------------------------------------------------------------
                    Cartesian Multipole Moments
 -----------------------------------------------------------------
    Charge (ESU x 10^10)
                 0.0000
    Dipole Moment (Debye)
         X      -0.0012      Y       0.0000      Z      -0.8122
       Tot       0.8122
    Quadrupole Moments (Debye-Ang)
        XX     -22.7876     XY       0.0000     YY     -22.7884
        XZ      -0.0025     YZ       0.0000     ZZ     -25.0182
    Octapole Moments (Debye-Ang^2)
       XXX       1.6475    XXY       0.0000    XYY      -1.6310
       YYY       0.0000    XXZ     -31.4297    XYZ       0.0000
       YYZ     -31.4332    XZZ      -0.0006    YZZ       0.0000
       ZZZ     -92.3735
    Hexadecapole Moments (Debye-Ang^3)
      XXXX     -55.3512   XXXY       0.0000   XXYY     -18.4513
      XYYY       0.0000   YYYY     -55.3583   XXXZ       1.2411
      XXYZ       0.0000   XYYZ      -1.2048   YYYZ       0.0000
      XXZZ     -80.0526   XYZZ       0.0000   YYZZ     -80.0587
      XZZZ       0.0246   YZZZ       0.0000   ZZZZ    -403.9496
 -----------------------------------------------------------------
 Calculating analytic gradient of the SCF energy
 Gradient of AOints
            1           2           3           4           5           6
    1   0.0011721   0.0042286  -2.9423424   1.4696399   1.4696398   3.1680548
    2  -0.0000007  -0.0000001   0.0000000   2.5478743  -2.5478741   0.0000003
    3   4.0368731  -5.2769502   1.7938322   1.7969809   1.7969816  -1.3856684
            7           8
    1  -1.5851964  -1.5851964
    2   2.7446719  -2.7446716
    3  -1.3810241  -1.3810252
 Gradient of XC Energy
            1           2           3           4           5           6
    1  -0.0000979  -0.0000679   0.1513136  -0.0755895  -0.0755895  -0.0819055
    2   0.0000000  -0.0000000   0.0000000  -0.1310290   0.1310290  -0.0000000
    3   0.0980208   0.0071765  -0.0659308  -0.0660955  -0.0660955   0.0310018
            7           8
    1   0.0409684   0.0409684
    2  -0.0709307   0.0709307
    3   0.0309613   0.0309613
 Gradient of SCF Energy
            1           2           3           4           5           6
    1   0.0000262  -0.0000264  -0.0029469   0.0014825   0.0014825   0.0020960
    2   0.0000000   0.0000000   0.0000000   0.0025541  -0.0025541  -0.0000000
    3  -0.0008825  -0.0001795   0.0012111   0.0012111   0.0012111  -0.0008848
            7           8
    1  -0.0010570  -0.0010570
    2   0.0018220  -0.0018220
    3  -0.0008433  -0.0008432
 Max gradient component =       2.947E-03
 RMS gradient           =       1.397E-03
 Gradient time:  CPU 34.47 s  wall 34.65 s
 Geometry Optimization Parameters
   NAtoms,    NIC,     NZ,  NCons,   NDum,   NFix, NCnnct, MaxDiis
        8      44       0       0       0       0       0       0


** GEOMETRY OPTIMIZATION IN DELOCALIZED INTERNAL COORDINATES **
   Searching for a Minimum

   Optimization Cycle:   1

                       Coordinates (Angstroms)
     ATOM              X           Y           Z
    1  C          -0.000100    0.000000    0.018450
    2  Si         -0.000400    0.000000    1.871680
    3  H           1.013540    0.000000   -0.366440
    4  H          -0.506450   -0.877660   -0.367400
    5  H          -0.506450    0.877660   -0.367400
    6  H          -1.381150    0.000000    2.393430
    7  H           0.690490   -1.196160    2.391780
    8  H           0.690490    1.196160    2.391780
   Point Group: c1    Number of degrees of freedom:  18


   Energy is   -331.106780433


 Attempting to Generate Delocalized Internal Coordinates

 15 Hessian modes will be used to form the next step
  Hessian Eigenvalues:
     0.057924    0.058305    0.160000    0.160000    0.160000    0.160000
     0.160000    0.160000    0.179611    0.179621    0.179621    0.223352
     0.354852    0.354879    0.354879

 Minimum Search - Taking Simple RFO Step
 Searching for Lamda that Minimizes Along All modes
 Value Taken    Lamda =  -0.00020644
 Step Taken.  Stepsize is  0.029576

                             Maximum     Tolerance    Cnvgd?
         Gradient           0.006442      0.000300      NO
         Displacement       0.022602      0.001200      NO
         Energy change     *********      0.000001      NO


 New Cartesian Coordinates Obtained by Inverse Iteration

 Displacement from previous Coordinates is:  0.037363
 Writing REM_CC_EA            8
 ----------------------------------------------------
       Standard Nuclear Orientation (Angstroms)
    I     Atom         X            Y            Z
 ----------------------------------------------------
    1      C      -0.000126     0.000000     0.014875
    2      Si     -0.000431     0.000000     1.874617
    3      H       1.017818     0.000000    -0.372084
    4      H      -0.508535    -0.881342    -0.373243
    5      H      -0.508535     0.881342    -0.373243
    6      H      -1.387124     0.000000     2.399624
    7      H       0.693451    -1.201373     2.397667
    8      H       0.693451     1.201373     2.397667
 ----------------------------------------------------
 Nuclear Repulsion Energy =    63.1402403651 hartrees
 There are       13 alpha and       13 beta electrons
 Applying Cartesian multipole field
    Component          Value
    ---------          -----
     (2,0,0)        1.00000E-11
     (0,2,0)        2.00000E-11
     (0,0,2)       -3.00000E-11
 Nucleus-field energy     =    -0.0000000067 hartrees
 Requested basis set is G3large
 There are 65 shells and 168 basis functions
 A cutoff of  1.0D-11 yielded   2106 shell pairs
 There are  14143 function pairs ( 17593 Cartesian)
Evaluating contribution to one-electron hamiltonian from nuclear
 Smallest overlap matrix eigenvalue = 1.35E-04
 Multipole matrices computed through 2nd order
 Guess MOs from SCF MO coefficient file
Reading MOs from coefficient file
Reading MOs from coefficient file
 Long-range K will be added via erf
 Coulomb attenuation parameter = 0.43 bohr**(-1)
 A restricted Kohn-Sham SCF calculation will be
 performed using Pulay DIIS extrapolation
 Exchange:  wPBE + LR-HF      Correlation:  PBE
 Using SG-1 standard quadrature grid
 SCF converges when DIIS error is below 1.0E-08
 Requested basis set is G3large
 There are 65 shells and 168 basis functions
 A cutoff of  1.0D-11 yielded   2106 shell pairs
 There are  14143 function pairs ( 17593 Cartesian)
 ---------------------------------------
  Cycle       Energy         DIIS Error
 ---------------------------------------
    1    -331.1011199889      1.92E-04
    2    -331.1068744625      3.11E-05
    3    -331.1068777605      1.36E-05
    4    -331.1068782409      3.15E-06
    5    -331.1068782779      7.91E-07
    6    -331.1068782806      1.09E-07
    7    -331.1068782810      3.17E-08
    8    -331.1068782811      8.00E-09 Convergence criterion met
 ---------------------------------------
 One-Electron    Energy =  -581.4797318285
 Total Coulomb   Energy =   215.7028811987
 Alpha Exchange  Energy =    -2.7670450432
 Beta  Exchange  Energy =    -2.7670450432
 DFT   Exchange  Energy =   -22.0569889305
 DFT Correlation Energy =    -0.8791889927
 Nuclear Repu.   Energy =    63.1402403584
 Nuclear Attr.   Energy =  -911.8026210694
 Kinetic         Energy =   330.3228892409
 SCF time:  CPU 75.75 s  wall 77.12 s
 Final Alpha MO Eigenvalues
            1           2           3           4           5           6
    1 -65.6207122 -10.1033188  -5.2830892  -3.6829809  -3.6829701  -3.6823447
            7           8           9          10          11          12
    1  -0.8658499  -0.6693818  -0.5454525  -0.5454188  -0.4540139  -0.4540133
           13          14          15          16          17          18
    1  -0.4494414   0.0388597   0.0616947   0.0679693   0.0679823   0.0865219
 Analysis of SCF Wavefunction
 
 --------------------------------------------------------------
                    Orbital Energies (a.u.)
 --------------------------------------------------------------
 
 Alpha MOs
 -- Occupied --
-65.621 -10.103  -5.283  -3.683  -3.683  -3.682  -0.866  -0.669
 -0.545  -0.545  -0.454  -0.454  -0.449
 -- Virtual --
  0.039   0.062   0.068   0.068   0.087   0.095   0.095   0.104
  0.104   0.157   0.157   0.158   0.162   0.188   0.188   0.191
  0.206   0.238   0.240   0.240   0.305   0.305   0.360   0.365
  0.365   0.369   0.414   0.414   0.500   0.506   0.506   0.521
  0.547   0.590   0.590   0.610   0.642   0.642   0.651   0.686
  0.686   0.752   0.786   0.799   0.799   0.846   0.846   0.914
  0.928   0.928   0.953   0.958   1.014   1.084   1.084   1.147
  1.147   1.188   1.215   1.215   1.302   1.302   1.341   1.387
  1.412   1.412   1.431   1.435   1.436   1.511   1.511   1.582
  1.582   1.595   1.653   1.653   1.689   1.731   2.236   2.277
  2.282   2.282   2.347   2.347   2.461   2.620   2.620   2.723
  2.953   2.953   3.055   3.084   3.224   3.224   3.231   3.336
  3.336   3.438   3.438   3.488   3.654   3.654   3.778   3.780
  3.793   3.914   3.915   4.007   4.044   4.044   4.187   4.189
  4.189   4.234   4.250   4.251   4.349   4.349   4.369   4.475
  4.490   4.490   4.550   4.617   4.763   4.763   5.162   5.777
  5.777   6.347  11.487  11.487  11.824  17.612  17.694  17.792
 17.874  17.930  22.225  22.240  22.247  22.248  22.254  22.255
 22.281  24.160  27.859  28.116  28.117  40.991  41.006  41.224
 41.266  41.311 141.149
 --------------------------------------------------------------
 
          Ground-State Mulliken Net Atomic Charges

     Atom                 Charge (a.u.)
  ----------------------------------------
      1 C                    -0.287869
      2 Si                    0.210856
      3 H                     0.098439
      4 H                     0.098387
      5 H                     0.098387
      6 H                    -0.072643
      7 H                    -0.072779
      8 H                    -0.072779
  ----------------------------------------
  Sum of atomic charges =     0.000000

 -----------------------------------------------------------------
                    Cartesian Multipole Moments
 -----------------------------------------------------------------
    Charge (ESU x 10^10)
                 0.0000
    Dipole Moment (Debye)
         X      -0.0011      Y       0.0000      Z      -0.8113
       Tot       0.8113
    Quadrupole Moments (Debye-Ang)
        XX     -22.8252     XY       0.0000     YY     -22.8259
        XZ      -0.0022     YZ       0.0000     ZZ     -25.0517
    Octapole Moments (Debye-Ang^2)
       XXX       1.6494    XXY       0.0000    XYY      -1.6306
       YYY       0.0000    XXZ     -31.5023    XYZ       0.0000
       YYZ     -31.5056    XZZ       0.0004    YZZ       0.0000
       ZZZ     -92.5990
    Hexadecapole Moments (Debye-Ang^3)
      XXXX     -55.7292   XXXY       0.0000   XXYY     -18.5774
      XYYY       0.0000   YYYY     -55.7367   XXXZ       1.2041
      XXYZ       0.0000   XYYZ      -1.1622   YYYZ       0.0000
      XXZZ     -80.4503   XYZZ       0.0000   YYZZ     -80.4555
      XZZZ       0.0312   YZZZ       0.0000   ZZZZ    -406.2239
 -----------------------------------------------------------------
 Calculating analytic gradient of the SCF energy
 Gradient of AOints
            1           2           3           4           5           6
    1   0.0018406   0.0041335  -2.9406333   1.4685195   1.4685198   3.1727884
    2   0.0000002   0.0000000   0.0000001   2.5462903  -2.5462905   0.0000001
    3   4.0321738  -5.2334557   1.7859796   1.7897693   1.7897687  -1.3916780
            7           8
    1  -1.5875842  -1.5875844
    2   2.7491057  -2.7491058
    3  -1.3862792  -1.3862786
 Gradient of XC Energy
            1           2           3           4           5           6
    1  -0.0001242  -0.0000665   0.1510200  -0.0754309  -0.0754309  -0.0820258
    2  -0.0000000  -0.0000000  -0.0000000  -0.1307711   0.1307711  -0.0000000
    3   0.0971125   0.0069237  -0.0656883  -0.0658858  -0.0658858   0.0311810
            7           8
    1   0.0410291   0.0410291
    2  -0.0710469   0.0710469
    3   0.0311214   0.0311214
 Gradient of SCF Energy
            1           2           3           4           5           6
    1   0.0000197  -0.0000119   0.0000682  -0.0000206  -0.0000206  -0.0001853
    2   0.0000000   0.0000000  -0.0000000  -0.0000524   0.0000524  -0.0000000
    3   0.0000704  -0.0002315  -0.0000301  -0.0000354  -0.0000354   0.0000692
            7           8
    1   0.0000754   0.0000754
    2  -0.0001497   0.0001497
    3   0.0000964   0.0000964
 Max gradient component =       2.315E-04
 RMS gradient           =       8.838E-05
 Gradient time:  CPU 34.13 s  wall 34.31 s
 Geometry Optimization Parameters
   NAtoms,    NIC,     NZ,  NCons,   NDum,   NFix, NCnnct, MaxDiis
        8      44       0       0       0       0       0       0

 Cartesian Hessian Update
 Hessian Updated using BFGS Update


** GEOMETRY OPTIMIZATION IN DELOCALIZED INTERNAL COORDINATES **
   Searching for a Minimum

   Optimization Cycle:   2

                       Coordinates (Angstroms)
     ATOM              X           Y           Z
    1  C          -0.000126    0.000000    0.014875
    2  Si         -0.000431    0.000000    1.874617
    3  H           1.017818    0.000000   -0.372084
    4  H          -0.508535   -0.881342   -0.373243
    5  H          -0.508535    0.881342   -0.373243
    6  H          -1.387124    0.000000    2.399624
    7  H           0.693451   -1.201373    2.397667
    8  H           0.693451    1.201373    2.397667
   Point Group: c1    Number of degrees of freedom:  18


   Energy is   -331.106878281

 Hessian Updated using BFGS Update

 10 Hessian modes will be used to form the next step
  Hessian Eigenvalues:
     0.057924    0.058305    0.159972    0.160087    0.179613    0.188720
     0.222749    0.354640    0.354879    0.354885

 Minimum Search - Taking Simple RFO Step
 Searching for Lamda that Minimizes Along All modes
 Value Taken    Lamda =   0.00000000
 Step Taken.  Stepsize is  0.001844

                             Maximum     Tolerance    Cnvgd?
         Gradient           0.000207      0.000300     YES
         Displacement       0.001056      0.001200     YES
         Energy change     -0.000098      0.000001      NO


                       Distance Matrix (Angstroms)
             C (  1)   Si(  2)   H (  3)   H (  4)   H (  5)   H (  6)
   Si(  2)  1.859741
   H (  3)  1.089013  2.466676
   H (  4)  1.088981  2.467348  1.762532
   H (  5)  1.088980  2.467348  1.762532  1.762684
   H (  6)  2.758767  1.482752  3.669621  3.039322  3.039322
   H (  7)  2.757180  1.482683  3.036450  3.037291  3.668844  2.402518
   H (  8)  2.757180  1.482683  3.036450  3.668844  3.037290  2.402519
             H (  7)
   H (  8)  2.402745
 


 ******************************
 **  OPTIMIZATION CONVERGED  **
 ******************************
 Analysis of SCF Wavefunction
 
 --------------------------------------------------------------
                    Orbital Energies (a.u.)
 --------------------------------------------------------------
 
 Alpha MOs
 -- Occupied --
-65.621 -10.103  -5.283  -3.683  -3.683  -3.682  -0.866  -0.669
 -0.545  -0.545  -0.454  -0.454  -0.449
 -- Virtual --
  0.039   0.062   0.068   0.068   0.087   0.095   0.095   0.104
  0.104   0.157   0.157   0.158   0.162   0.188   0.188   0.191
  0.206   0.238   0.240   0.240   0.305   0.305   0.360   0.365
  0.365   0.369   0.414   0.414   0.500   0.506   0.506   0.521
  0.547   0.590   0.590   0.610   0.642   0.642   0.651   0.686
  0.686   0.752   0.786   0.799   0.799   0.846   0.846   0.914
  0.928   0.928   0.953   0.958   1.014   1.084   1.084   1.147
  1.147   1.188   1.215   1.215   1.302   1.302   1.341   1.387
  1.412   1.412   1.431   1.435   1.436   1.511   1.511   1.582
  1.582   1.595   1.653   1.653   1.689   1.731   2.236   2.277
  2.282   2.282   2.347   2.347   2.461   2.620   2.620   2.723
  2.953   2.953   3.055   3.084   3.224   3.224   3.231   3.336
  3.336   3.438   3.438   3.488   3.654   3.654   3.778   3.780
  3.793   3.914   3.915   4.007   4.044   4.044   4.187   4.189
  4.189   4.234   4.250   4.251   4.349   4.349   4.369   4.475
  4.490   4.490   4.550   4.617   4.763   4.763   5.162   5.777
  5.777   6.347  11.487  11.487  11.824  17.612  17.694  17.792
 17.874  17.930  22.225  22.240  22.247  22.248  22.254  22.255
 22.281  24.160  27.859  28.116  28.117  40.991  41.006  41.224
 41.266  41.311 141.149
 --------------------------------------------------------------
 
          Ground-State Mulliken Net Atomic Charges

     Atom                 Charge (a.u.)
  ----------------------------------------
      1 C                    -0.287869
      2 Si                    0.210856
      3 H                     0.098439
      4 H                     0.098387
      5 H                     0.098387
      6 H                    -0.072643
      7 H                    -0.072779
      8 H                    -0.072779
  ----------------------------------------
  Sum of atomic charges =     0.000000

 -----------------------------------------------------------------
                    Cartesian Multipole Moments
 -----------------------------------------------------------------
    Charge (ESU x 10^10)
                 0.0000
    Dipole Moment (Debye)
         X      -0.0011      Y       0.0000      Z      -0.8113
       Tot       0.8113
    Quadrupole Moments (Debye-Ang)
        XX     -22.8252     XY       0.0000     YY     -22.8259
        XZ      -0.0022     YZ       0.0000     ZZ     -25.0517
    Octapole Moments (Debye-Ang^2)
       XXX       1.6494    XXY       0.0000    XYY      -1.6306
       YYY       0.0000    XXZ     -31.5023    XYZ       0.0000
       YYZ     -31.5056    XZZ       0.0004    YZZ       0.0000
       ZZZ     -92.5990
    Hexadecapole Moments (Debye-Ang^3)
      XXXX     -55.7292   XXXY       0.0000   XXYY     -18.5774
      XYYY       0.0000   YYYY     -55.7367   XXXZ       1.2041
      XXYZ       0.0000   XYYZ      -1.1622   YYYZ       0.0000
      XXZZ     -80.4503   XYZZ       0.0000   YYZZ     -80.4555
      XZZZ       0.0312   YZZZ       0.0000   ZZZZ    -406.2239
 -----------------------------------------------------------------
 Total job time:  251.42s(wall), 247.82s(cpu) 
 Thu Mar 20 15:11:46 2014

        *************************************************************
        *                                                           *
        *  Thank you very much for using Q-Chem.  Have a nice day.  *
        *                                                           *
        *************************************************************


0 sent ACK to 0 
now end server 0 ... 
 
**********************************************************************
Job 2 of 2 
**********************************************************************
 
Process 0 of 1 is on cl122 - thread support 1
initial socket setup ...start
initial socket setup ...done 
now start server 0 ... 

cmd = /usr/bin/ssh clhead /usr/local/qchem/bin/get_hostid 68842319 > /tmp/1602009.1.medium.q/qchem24787/lic.dat

cmd = /usr/bin/ssh clhead /usr/local/qchem/bin/get_hostid 68842319 > /tmp/1602009.1.medium.q/qchem24787/lic.dat

cmd = /usr/bin/ssh clhead /usr/local/qchem/bin/get_hostid 68842319 > /tmp/1602009.1.medium.q/qchem24787/lic.dat

cmd = /usr/bin/ssh clhead /usr/local/qchem/bin/get_hostid 68842319 > /tmp/1602009.1.medium.q/qchem24787/lic.dat

cmd = /usr/bin/ssh clhead /usr/local/qchem/bin/get_hostid 68842319 > /tmp/1602009.1.medium.q/qchem24787/lic.dat
                  Welcome to Q-Chem
     A Quantum Leap Into The Future Of Chemistry

 Y. Shao, L. Fusti-Molnar, Y. Jung, J. Kussmann, C. Ochsenfeld,
 S. T. Brown, A. T. B. Gilbert, L. V. Slipchenko,S. V. Levchenko,
 D. P. O'Neill, R. A. DiStasio Jr., R. C. Lochan, T. Wang,
 G. J. O. Beran, N. A. Besley, J. M. Herbert, C. Y. Lin,
 T. Van Voorhis, S. H. Chien, A. Sodt, R. P. Steele, 
 V. A. Rassolov, P. E. Maslen, P. P. Korambath, R. D. Adamson,
 B. Austin, J. Baker, E. F. C. Byrd, H. Dachsel, R. J. Doerksen,
 A. Dreuw, B. D. Dunietz, A. D. Dutoi, T. R. Furlani,
 S. R. Gwaltney, A. Heyden, S. Hirata, C.-P. Hsu, G. Kedziora,
 R. Z. Khaliullin, P. Klunzinger, A. M. Lee, M. S. Lee, W. Liang,
 I. Lotan, N. Nair, B. Peters, E. I. Proynov, P. A. Pieniazek, 
 Y. M. Rhee, J. Ritchie, E. Rosta, C. D. Sherrill, 
 A. C. Simmonett, J. E. Subotnik, H. L. Woodcock III,
 W. Zhang, A. T. Bell, A. K. Chakraborty, D. M. Chipman,
 F. J. Keil, A. Warshel, W. J. Hehre, H. F. Schaefer III,
 J. Kong, A. I. Krylov, P. M. W. Gill, M. Head-Gordon,
 Q-Chem, Version 3.1, Q-Chem, Inc., Pittsburgh, PA (2007).

 Additional authors for Version 3.1: 
 Z. Gan, Y. Zhao, N. E. Schultz, D. Truhlar, E. Epifanovsky and M. Oana.

 Additional authors for Version 3.2: 
 R. Baer, B. R. Brooks, D. Casanova, J.-D. Chai, C.-L. Cheng, 
 C. Cramer, D. Crittenden, A. Ghysels, G. Hawkins, E. G. Hohenstein, 
 C. Kelley, W. Kurlancheek, D. Liotard, E. Livshits, P. Manohar, 
 A. Marenich, D. Neuhauser, R. Olson, M. A. Rohrdanz, K. S. Thanthiriwatte, 
 A. J. W. Thom, V. Vanovschi, C. F. Williams, Q. Wu and Z.-Q. You. 


 Intel X86 Linux Version

 Q-chem begins on Thu Mar 20 15:11:58 2014  

 Parallel job on  1  processors
Processing $rem in /usr/local/qchem/config/preferences.

theFileMan(): MAXOPENFILES=974 MAX_SUB_FILE_NUM=16
Maximum size of a physical file is 2.0 GB, maximum size of a tmp-file is 32.0 GB


--------------------------------------------------------------
User input:
--------------------------------------------------------------

$molecule 
READ 
$end 

$xc_functional
C PBE   1.00
X wPBE  1.00
$end


$rem
SYMMETRY_DECOMPOSITION	0
LRC_DFT                 true
exchange 		general
BASIS                   g3large
omega			430 
JOBTYPE                 freq
IDERIV 1
SCF_GUESS READ
mem_static              760
max_scf_cycles          200
scf_final_print         1
sym_ignore              true
$end

--------------------------------------------------------------
 Writing REM_CC_EA            8
 ----------------------------------------------------
       Standard Nuclear Orientation (Angstroms)
    I     Atom         X            Y            Z
 ----------------------------------------------------
    1      C      -0.000126     0.000000     0.014875
    2      Si     -0.000431     0.000000     1.874617
    3      H       1.017818     0.000000    -0.372084
    4      H      -0.508535    -0.881342    -0.373243
    5      H      -0.508535     0.881342    -0.373243
    6      H      -1.387124     0.000000     2.399624
    7      H       0.693451    -1.201373     2.397667
    8      H       0.693451     1.201373     2.397667
 ----------------------------------------------------
 Nuclear Repulsion Energy =    63.1402403651 hartrees
 There are       13 alpha and       13 beta electrons
 Requested basis set is G3large
 There are 65 shells and 168 basis functions

Total QAlloc Memory Limit   2000 MB
Mega-Array Size       759 MB
MEM_STATIC part       760 MB

                       Distance Matrix (Angstroms)
             C (  1)   Si(  2)   H (  3)   H (  4)   H (  5)   H (  6)
   Si(  2)  1.859741
   H (  3)  1.089013  2.466676
   H (  4)  1.088981  2.467348  1.762532
   H (  5)  1.088980  2.467348  1.762532  1.762684
   H (  6)  2.758767  1.482752  3.669621  3.039322  3.039322
   H (  7)  2.757180  1.482683  3.036450  3.037291  3.668844  2.402518
   H (  8)  2.757180  1.482683  3.036450  3.668844  3.037290  2.402519
             H (  7)
   H (  8)  2.402745
 
 A cutoff of  1.0D-11 yielded   2106 shell pairs
 There are  14143 function pairs ( 17593 Cartesian)
Evaluating contribution to one-electron hamiltonian from nuclear
 Smallest overlap matrix eigenvalue = 1.35E-04
 Multipole matrices computed through 2nd order
 Guess MOs from SCF MO coefficient file
Reading MOs from coefficient file
Reading MOs from coefficient file
 Long-range K will be added via erf
 Coulomb attenuation parameter = 0.43 bohr**(-1)
 A restricted Kohn-Sham SCF calculation will be
 performed using Pulay DIIS extrapolation
 Exchange:  wPBE + LR-HF      Correlation:  PBE
 Using SG-1 standard quadrature grid
 SCF converges when DIIS error is below 1.0E-08
 ---------------------------------------
  Cycle       Energy         DIIS Error
 ---------------------------------------
    1    -331.1068782815      2.26E-09
    2    -331.1068782834      1.01E-09 Convergence criterion met
 ---------------------------------------
 One-Electron    Energy =  -581.4797343141
 Total Coulomb   Energy =   215.7028838838
 Alpha Exchange  Energy =    -2.7670450481
 Beta  Exchange  Energy =    -2.7670450481
 DFT   Exchange  Energy =   -22.0569891253
 DFT Correlation Energy =    -0.8791889966
 Nuclear Repu.   Energy =    63.1402403651
 Nuclear Attr.   Energy =  -911.8026259934
 Kinetic         Energy =   330.3228916793
 SCF time:  CPU 20.57 s  wall 21.05 s
 Final Alpha MO Eigenvalues
            1           2           3           4           5           6
    1 -65.6207120 -10.1033187  -5.2830890  -3.6829807  -3.6829699  -3.6823445
            7           8           9          10          11          12
    1  -0.8658499  -0.6693818  -0.5454525  -0.5454188  -0.4540139  -0.4540133
           13          14          15          16          17          18
    1  -0.4494413   0.0388597   0.0616946   0.0679693   0.0679822   0.0865219
 Analysis of SCF Wavefunction
 
 --------------------------------------------------------------
                    Orbital Energies (a.u.)
 --------------------------------------------------------------
 
 Alpha MOs
 -- Occupied --
-65.621 -10.103  -5.283  -3.683  -3.683  -3.682  -0.866  -0.669
 -0.545  -0.545  -0.454  -0.454  -0.449
 -- Virtual --
  0.039   0.062   0.068   0.068   0.087   0.095   0.095   0.104
  0.104   0.157   0.157   0.158   0.162   0.188   0.188   0.191
  0.206   0.238   0.240   0.240   0.305   0.305   0.360   0.365
  0.365   0.369   0.414   0.414   0.500   0.506   0.506   0.521
  0.547   0.590   0.590   0.610   0.642   0.642   0.651   0.686
  0.686   0.752   0.786   0.799   0.799   0.846   0.846   0.914
  0.928   0.928   0.953   0.958   1.014   1.084   1.084   1.147
  1.147   1.188   1.215   1.215   1.302   1.302   1.341   1.387
  1.412   1.412   1.431   1.435   1.436   1.511   1.511   1.582
  1.582   1.595   1.653   1.653   1.689   1.731   2.236   2.277
  2.282   2.282   2.347   2.347   2.461   2.620   2.620   2.723
  2.953   2.953   3.055   3.084   3.224   3.224   3.231   3.336
  3.336   3.438   3.438   3.488   3.654   3.654   3.778   3.780
  3.793   3.914   3.915   4.007   4.044   4.044   4.187   4.189
  4.189   4.234   4.250   4.251   4.349   4.349   4.369   4.475
  4.490   4.490   4.550   4.617   4.763   4.763   5.162   5.777
  5.777   6.347  11.487  11.487  11.824  17.612  17.694  17.792
 17.874  17.930  22.225  22.240  22.247  22.248  22.254  22.255
 22.281  24.160  27.859  28.116  28.117  40.991  41.006  41.224
 41.266  41.311 141.149
 --------------------------------------------------------------
 
          Ground-State Mulliken Net Atomic Charges

     Atom                 Charge (a.u.)
  ----------------------------------------
      1 C                    -0.287868
      2 Si                    0.210856
      3 H                     0.098439
      4 H                     0.098387
      5 H                     0.098387
      6 H                    -0.072643
      7 H                    -0.072779
      8 H                    -0.072779
  ----------------------------------------
  Sum of atomic charges =     0.000000

 -----------------------------------------------------------------
                    Cartesian Multipole Moments
 -----------------------------------------------------------------
    Charge (ESU x 10^10)
                 0.0000
    Dipole Moment (Debye)
         X      -0.0011      Y       0.0000      Z      -0.8113
       Tot       0.8113
    Quadrupole Moments (Debye-Ang)
        XX     -22.8252     XY       0.0000     YY     -22.8259
        XZ      -0.0022     YZ       0.0000     ZZ     -25.0517
    Octapole Moments (Debye-Ang^2)
       XXX       1.6494    XXY       0.0000    XYY      -1.6306
       YYY       0.0000    XXZ     -31.5023    XYZ       0.0000
       YYZ     -31.5056    XZZ       0.0004    YZZ       0.0000
       ZZZ     -92.5990
    Hexadecapole Moments (Debye-Ang^3)
      XXXX     -55.7292   XXXY       0.0000   XXYY     -18.5774
      XYYY       0.0000   YYYY     -55.7367   XXXZ       1.2041
      XXYZ       0.0000   XYYZ      -1.1622   YYYZ       0.0000
      XXZZ     -80.4503   XYZZ       0.0000   YYZZ     -80.4555
      XZZZ       0.0312   YZZZ       0.0000   ZZZZ    -406.2239
 -----------------------------------------------------------------
 Calculating analytic gradient of the SCF energy
 Gradient of AOints
            1           2           3           4           5           6
    1   0.0018406   0.0041334  -2.9406334   1.4685196   1.4685198   3.1727883
    2   0.0000001   0.0000001   0.0000001   2.5462904  -2.5462906   0.0000001
    3   4.0321725  -5.2334543   1.7859796   1.7897692   1.7897686  -1.3916777
            7           8
    1  -1.5875841  -1.5875843
    2   2.7491056  -2.7491057
    3  -1.3862792  -1.3862786
 Gradient of XC Energy
            1           2           3           4           5           6
    1  -0.0001242  -0.0000665   0.1510200  -0.0754309  -0.0754309  -0.0820258
    2  -0.0000000  -0.0000000  -0.0000000  -0.1307711   0.1307711  -0.0000000
    3   0.0971125   0.0069237  -0.0656883  -0.0658858  -0.0658858   0.0311810
            7           8
    1   0.0410291   0.0410291
    2  -0.0710469   0.0710469
    3   0.0311214   0.0311214
 Gradient of SCF Energy
            1           2           3           4           5           6
    1   0.0000197  -0.0000119   0.0000682  -0.0000207  -0.0000207  -0.0001853
    2   0.0000000   0.0000000  -0.0000000  -0.0000525   0.0000524  -0.0000000
    3   0.0000704  -0.0002315  -0.0000301  -0.0000355  -0.0000354   0.0000692
            7           8
    1   0.0000754   0.0000754
    2  -0.0001497   0.0001497
    3   0.0000964   0.0000964
 Max gradient component =       2.315E-04
 RMS gradient           =       8.838E-05
 Gradient time:  CPU 34.62 s  wall 35.01 s
 ######################################################
 ######################################################
 # Starting finite difference calculation for IDERIV  #
 Finite diff step size: 1.89e-03 a.u.
 Writing REM_CC_EA            8
 ----------------------------------------------------
       Standard Nuclear Orientation (Angstroms)
    I     Atom         X            Y            Z
 ----------------------------------------------------
    1      C       0.000874     0.000000     0.014875
    2      Si     -0.000431     0.000000     1.874617
    3      H       1.017818     0.000000    -0.372084
    4      H      -0.508535    -0.881342    -0.373243
    5      H      -0.508535     0.881342    -0.373243
    6      H      -1.387124     0.000000     2.399624
    7      H       0.693451    -1.201373     2.397667
    8      H       0.693451     1.201373     2.397667
 ----------------------------------------------------
 Nuclear Repulsion Energy =    63.1402387508 hartrees
 There are       13 alpha and       13 beta electrons

                       Distance Matrix (Angstroms)
             C (  1)   Si(  2)   H (  3)   H (  4)   H (  5)   H (  6)
   Si(  2)  1.859742
   H (  3)  1.088078  2.466676
   H (  4)  1.089448  2.467348  1.762532
   H (  5)  1.089448  2.467348  1.762532  1.762684
   H (  6)  2.759269  1.482752  3.669621  3.039322  3.039322
   H (  7)  2.756929  1.482683  3.036450  3.037291  3.668844  2.402518
   H (  8)  2.756929  1.482683  3.036450  3.668844  3.037290  2.402519
             H (  7)
   H (  8)  2.402745
 
 Requested basis set is G3large
 There are 65 shells and 168 basis functions
 A cutoff of  1.0D-11 yielded   2106 shell pairs
 There are  14143 function pairs ( 17593 Cartesian)
Evaluating contribution to one-electron hamiltonian from nuclear
 Smallest overlap matrix eigenvalue = 1.35E-04
 Multipole matrices computed through 2nd order
 Guess MOs from SCF MO coefficient file
Reading MOs from coefficient file
Reading MOs from coefficient file
 Long-range K will be added via erf
 Coulomb attenuation parameter = 0.43 bohr**(-1)
 A restricted Kohn-Sham SCF calculation will be
 performed using Pulay DIIS extrapolation
 Exchange:  wPBE + LR-HF      Correlation:  PBE
 Using SG-1 standard quadrature grid
 SCF converges when DIIS error is below 1.0E-08
 ---------------------------------------
  Cycle       Energy         DIIS Error
 ---------------------------------------
    1    -331.1068769778      2.50E-05
    2    -331.1068772343      2.99E-06
    3    -331.1068772781      1.01E-06
    4    -331.1068772820      2.13E-07
    5    -331.1068772824      5.26E-08
    6    -331.1068772820      1.04E-08
    7    -331.1068772824      2.54E-09 Convergence criterion met
 ---------------------------------------
 One-Electron    Energy =  -581.4797284666
 Total Coulomb   Energy =   215.7028808666
 Alpha Exchange  Energy =    -2.7670450277
 Beta  Exchange  Energy =    -2.7670450277
 DFT   Exchange  Energy =   -22.0569893714
 DFT Correlation Energy =    -0.8791890064
 Nuclear Repu.   Energy =    63.1402387508
 Nuclear Attr.   Energy =  -911.8026225500
 Kinetic         Energy =   330.3228940834
 SCF time:  CPU 64.49 s  wall 65.46 s
 Final Alpha MO Eigenvalues
            1           2           3           4           5           6
    1 -65.6207121 -10.1033187  -5.2830890  -3.6829811  -3.6829696  -3.6823446
            7           8           9          10          11          12
    1  -0.8658500  -0.6693818  -0.5456011  -0.5452704  -0.4540591  -0.4539706
           13          14          15          16          17          18
    1  -0.4494386   0.0388597   0.0616947   0.0679721   0.0679794   0.0865219
 Analysis of SCF Wavefunction
 
 --------------------------------------------------------------
                    Orbital Energies (a.u.)
 --------------------------------------------------------------
 
 Alpha MOs
 -- Occupied --
-65.621 -10.103  -5.283  -3.683  -3.683  -3.682  -0.866  -0.669
 -0.546  -0.545  -0.454  -0.454  -0.449
 -- Virtual --
  0.039   0.062   0.068   0.068   0.087   0.095   0.095   0.104
  0.104   0.157   0.157   0.158   0.162   0.188   0.188   0.191
  0.206   0.238   0.240   0.240   0.305   0.305   0.360   0.365
  0.365   0.369   0.414   0.414   0.500   0.506   0.506   0.521
  0.547   0.590   0.590   0.610   0.642   0.642   0.651   0.686
  0.686   0.752   0.786   0.799   0.799   0.846   0.846   0.914
  0.928   0.928   0.953   0.958   1.014   1.084   1.084   1.147
  1.147   1.188   1.215   1.215   1.302   1.302   1.341   1.387
  1.412   1.413   1.431   1.435   1.436   1.511   1.511   1.582
  1.582   1.595   1.653   1.653   1.689   1.731   2.236   2.277
  2.282   2.282   2.347   2.347   2.461   2.620   2.620   2.723
  2.953   2.953   3.055   3.084   3.224   3.224   3.231   3.336
  3.337   3.438   3.438   3.488   3.654   3.654   3.778   3.780
  3.793   3.914   3.915   4.007   4.044   4.044   4.187   4.189
  4.189   4.234   4.250   4.251   4.349   4.349   4.369   4.475
  4.490   4.491   4.550   4.617   4.763   4.763   5.162   5.776
  5.778   6.347  11.487  11.487  11.824  17.612  17.694  17.792
 17.874  17.930  22.225  22.240  22.247  22.248  22.254  22.255
 22.281  24.160  27.859  28.116  28.117  40.991  41.006  41.224
 41.266  41.311 141.149
 --------------------------------------------------------------
 
          Ground-State Mulliken Net Atomic Charges

     Atom                 Charge (a.u.)
  ----------------------------------------
      1 C                    -0.287870
      2 Si                    0.210855
      3 H                     0.098595
      4 H                     0.098310
      5 H                     0.098310
      6 H                    -0.072601
      7 H                    -0.072799
      8 H                    -0.072799
  ----------------------------------------
  Sum of atomic charges =     0.000000

 -----------------------------------------------------------------
                    Cartesian Multipole Moments
 -----------------------------------------------------------------
    Charge (ESU x 10^10)
                 0.0000
    Dipole Moment (Debye)
         X      -0.0024      Y       0.0000      Z      -0.8113
       Tot       0.8113
    Quadrupole Moments (Debye-Ang)
        XX     -22.8231     XY       0.0000     YY     -22.8280
        XZ      -0.0050     YZ       0.0000     ZZ     -25.0517
    Octapole Moments (Debye-Ang^2)
       XXX       1.6348    XXY       0.0000    XYY      -1.6355
       YYY       0.0000    XXZ     -31.5010    XYZ       0.0000
       YYZ     -31.5069    XZZ      -0.0111    YZZ       0.0000
       ZZZ     -92.5989
    Hexadecapole Moments (Debye-Ang^3)
      XXXX     -55.7205   XXXY       0.0000   XXYY     -18.5765
      XYYY       0.0000   YYYY     -55.7472   XXXZ       1.1978
      XXYZ       0.0000   XYYZ      -1.1643   YYYZ       0.0000
      XXZZ     -80.4439   XYZZ       0.0000   YYZZ     -80.4619
      XZZZ       0.0061   YZZZ       0.0000   ZZZZ    -406.2239
 -----------------------------------------------------------------
 Calculating analytic gradient of the SCF energy
 Gradient of AOints
            1           2           3           4           5           6
    1  -0.0094892   0.0108303  -2.9415412   1.4714051   1.4714054   3.1727049
    2   0.0000001   0.0000001   0.0000001   2.5441018  -2.5441020   0.0000001
    3   4.0321772  -5.2334520   1.7877667   1.7888711   1.7888705  -1.3923441
            7           8
    1  -1.5876576  -1.5876578
    2   2.7491102  -2.7491104
    3  -1.3859450  -1.3859444
 Gradient of XC Energy
            1           2           3           4           5           6
    1   0.0001016  -0.0001765   0.1511183  -0.0755438  -0.0755438  -0.0820225
    2  -0.0000000  -0.0000000  -0.0000000  -0.1306493   0.1306493  -0.0000000
    3   0.0971120   0.0069236  -0.0657931  -0.0658331  -0.0658331   0.0311999
            7           8
    1   0.0410334   0.0410334
    2  -0.0710463   0.0710463
    3   0.0311119   0.0311119
 Gradient of SCF Energy
            1           2           3           4           5           6
    1   0.0010380  -0.0000912  -0.0004838  -0.0002205  -0.0002205  -0.0001816
    2   0.0000000   0.0000000  -0.0000000  -0.0002544   0.0002544  -0.0000000
    3   0.0000695  -0.0002315   0.0001783  -0.0001392  -0.0001392   0.0001013
            7           8
    1   0.0000798   0.0000798
    2  -0.0001493   0.0001493
    3   0.0000804   0.0000804
 Max gradient component =       1.038E-03
 RMS gradient           =       2.730E-04
 Gradient time:  CPU 35.20 s  wall 35.37 s
 Writing REM_CC_EA            8
 ----------------------------------------------------
       Standard Nuclear Orientation (Angstroms)
    I     Atom         X            Y            Z
 ----------------------------------------------------
    1      C      -0.001126     0.000000     0.014875
    2      Si     -0.000431     0.000000     1.874617
    3      H       1.017818     0.000000    -0.372084
    4      H      -0.508535    -0.881342    -0.373243
    5      H      -0.508535     0.881342    -0.373243
    6      H      -1.387124     0.000000     2.399624
    7      H       0.693451    -1.201373     2.397667
    8      H       0.693451     1.201373     2.397667
 ----------------------------------------------------
 Nuclear Repulsion Energy =    63.1402370704 hartrees
 There are       13 alpha and       13 beta electrons

                       Distance Matrix (Angstroms)
             C (  1)   Si(  2)   H (  3)   H (  4)   H (  5)   H (  6)
   Si(  2)  1.859742
   H (  3)  1.089948  2.466676
   H (  4)  1.088514  2.467348  1.762532
   H (  5)  1.088514  2.467348  1.762532  1.762684
   H (  6)  2.758264  1.482752  3.669621  3.039322  3.039322
   H (  7)  2.757432  1.482683  3.036450  3.037291  3.668844  2.402518
   H (  8)  2.757432  1.482683  3.036450  3.668844  3.037290  2.402519
             H (  7)
   H (  8)  2.402745
 
 Requested basis set is G3large
 There are 65 shells and 168 basis functions
 A cutoff of  1.0D-11 yielded   2106 shell pairs
 There are  14143 function pairs ( 17593 Cartesian)
Evaluating contribution to one-electron hamiltonian from nuclear
 Smallest overlap matrix eigenvalue = 1.35E-04
 Multipole matrices computed through 2nd order
 Guess MOs from SCF MO coefficient file
Reading MOs from coefficient file
Reading MOs from coefficient file
 Long-range K will be added via erf
 Coulomb attenuation parameter = 0.43 bohr**(-1)
 A restricted Kohn-Sham SCF calculation will be
 performed using Pulay DIIS extrapolation
 Exchange:  wPBE + LR-HF      Correlation:  PBE
 Using SG-1 standard quadrature grid
 SCF converges when DIIS error is below 1.0E-08
 ---------------------------------------
  Cycle       Energy         DIIS Error
 ---------------------------------------
    1    -331.1068781472      5.00E-05
    2    -331.1068771654      5.97E-06
    3    -331.1068773418      2.02E-06
    4    -331.1068773571      4.26E-07
    5    -331.1068773598      1.05E-07
    6    -331.1068773593      2.09E-08
    7    -331.1068773585      5.26E-09 Convergence criterion met
 ---------------------------------------
 One-Electron    Energy =  -581.4797247918
 Total Coulomb   Energy =   215.7028782192
 Alpha Exchange  Energy =    -2.7670449809
 Beta  Exchange  Energy =    -2.7670449809
 DFT   Exchange  Energy =   -22.0569889478
 DFT Correlation Energy =    -0.8791889466
 Nuclear Repu.   Energy =    63.1402370704
 Nuclear Attr.   Energy =  -911.8026168732
 Kinetic         Energy =   330.3228920814
 SCF time:  CPU 65.80 s  wall 68.45 s
 Final Alpha MO Eigenvalues
            1           2           3           4           5           6
    1 -65.6207121 -10.1033191  -5.2830890  -3.6829805  -3.6829703  -3.6823445
            7           8           9          10          11          12
    1  -0.8658500  -0.6693819  -0.5456348  -0.5452365  -0.4540571  -0.4539699
           13          14          15          16          17          18
    1  -0.4494415   0.0388597   0.0616946   0.0679591   0.0679924   0.0865219
 Analysis of SCF Wavefunction
 
 --------------------------------------------------------------
                    Orbital Energies (a.u.)
 --------------------------------------------------------------
 
 Alpha MOs
 -- Occupied --
-65.621 -10.103  -5.283  -3.683  -3.683  -3.682  -0.866  -0.669
 -0.546  -0.545  -0.454  -0.454  -0.449
 -- Virtual --
  0.039   0.062   0.068   0.068   0.087   0.095   0.095   0.104
  0.104   0.157   0.157   0.158   0.162   0.188   0.188   0.191
  0.206   0.238   0.240   0.240   0.305   0.305   0.360   0.365
  0.365   0.369   0.414   0.414   0.500   0.506   0.506   0.521
  0.547   0.590   0.590   0.610   0.642   0.642   0.651   0.686
  0.686   0.752   0.786   0.799   0.799   0.846   0.846   0.914
  0.928   0.928   0.953   0.958   1.014   1.084   1.084   1.147
  1.147   1.188   1.215   1.215   1.302   1.302   1.341   1.387
  1.412   1.413   1.431   1.435   1.436   1.511   1.511   1.582
  1.582   1.595   1.653   1.653   1.689   1.731   2.236   2.277
  2.282   2.283   2.347   2.347   2.461   2.619   2.620   2.723
  2.953   2.953   3.055   3.084   3.224   3.224   3.231   3.336
  3.337   3.438   3.438   3.488   3.654   3.654   3.778   3.780
  3.793   3.914   3.915   4.007   4.043   4.044   4.187   4.189
  4.189   4.234   4.250   4.251   4.349   4.349   4.369   4.475
  4.489   4.491   4.550   4.617   4.762   4.763   5.162   5.776
  5.779   6.347  11.487  11.487  11.824  17.612  17.694  17.792
 17.874  17.930  22.225  22.240  22.247  22.248  22.254  22.255
 22.281  24.160  27.859  28.116  28.118  40.991  41.006  41.224
 41.266  41.312 141.149
 --------------------------------------------------------------
 
          Ground-State Mulliken Net Atomic Charges

     Atom                 Charge (a.u.)
  ----------------------------------------
      1 C                    -0.287869
      2 Si                    0.210857
      3 H                     0.098285
      4 H                     0.098465
      5 H                     0.098465
      6 H                    -0.072684
      7 H                    -0.072759
      8 H                    -0.072759
  ----------------------------------------
  Sum of atomic charges =     0.000000

 -----------------------------------------------------------------
                    Cartesian Multipole Moments
 -----------------------------------------------------------------
    Charge (ESU x 10^10)
                 0.0000
    Dipole Moment (Debye)
         X       0.0002      Y       0.0000      Z      -0.8113
       Tot       0.8113
    Quadrupole Moments (Debye-Ang)
        XX     -22.8273     XY       0.0000     YY     -22.8237
        XZ       0.0007     YZ       0.0000     ZZ     -25.0517
    Octapole Moments (Debye-Ang^2)
       XXX       1.6641    XXY       0.0000    XYY      -1.6257
       YYY       0.0000    XXZ     -31.5035    XYZ       0.0000
       YYZ     -31.5044    XZZ       0.0120    YZZ       0.0000
       ZZZ     -92.5990
    Hexadecapole Moments (Debye-Ang^3)
      XXXX     -55.7380   XXXY       0.0000   XXYY     -18.5783
      XYYY       0.0000   YYYY     -55.7262   XXXZ       1.2104
      XXYZ       0.0000   XYYZ      -1.1601   YYYZ       0.0000
      XXZZ     -80.4567   XYZZ       0.0000   YYZZ     -80.4490
      XZZZ       0.0563   YZZZ       0.0000   ZZZZ    -406.2240
 -----------------------------------------------------------------
 Calculating analytic gradient of the SCF energy
 Gradient of AOints
            1           2           3           4           5           6
    1   0.0131708  -0.0025581  -2.9397220   1.4656298   1.4656300   3.1728712
    2   0.0000001   0.0000001   0.0000001   2.5484764  -2.5484766   0.0000001
    3   4.0321677  -5.2334519   1.7841941   1.7906639   1.7906633  -1.3910113
            7           8
    1  -1.5875108  -1.5875110
    2   2.7491007  -2.7491009
    3  -1.3866132  -1.3866127
 Gradient of XC Energy
            1           2           3           4           5           6
    1  -0.0003501   0.0000434   0.1509215  -0.0753176  -0.0753176  -0.0820291
    2  -0.0000000  -0.0000000  -0.0000000  -0.1308927   0.1308927  -0.0000000
    3   0.0971130   0.0069237  -0.0655835  -0.0659384  -0.0659384   0.0311620
            7           8
    1   0.0410248   0.0410248
    2  -0.0710474   0.0710474
    3   0.0311308   0.0311308
 Gradient of SCF Energy
            1           2           3           4           5           6
    1  -0.0009953   0.0000673   0.0006171   0.0001790   0.0001790  -0.0001890
    2   0.0000000   0.0000000  -0.0000000   0.0001500  -0.0001500  -0.0000000
    3   0.0000690  -0.0002313  -0.0002370   0.0000686   0.0000686   0.0000372
            7           8
    1   0.0000709   0.0000709
    2  -0.0001502   0.0001502
    3   0.0001125   0.0001125
 Max gradient component =       9.953E-04
 RMS gradient           =       2.682E-04
 Gradient time:  CPU 35.50 s  wall 35.77 s
 Writing REM_CC_EA            8
 ----------------------------------------------------
       Standard Nuclear Orientation (Angstroms)
    I     Atom         X            Y            Z
 ----------------------------------------------------
    1      C      -0.000126     0.001000     0.014875
    2      Si     -0.000431     0.000000     1.874617
    3      H       1.017818     0.000000    -0.372084
    4      H      -0.508535    -0.881342    -0.373243
    5      H      -0.508535     0.881342    -0.373243
    6      H      -1.387124     0.000000     2.399624
    7      H       0.693451    -1.201373     2.397667
    8      H       0.693451     1.201373     2.397667
 ----------------------------------------------------
 Nuclear Repulsion Energy =    63.1402379125 hartrees
 There are       13 alpha and       13 beta electrons

                       Distance Matrix (Angstroms)
             C (  1)   Si(  2)   H (  3)   H (  4)   H (  5)   H (  6)
   Si(  2)  1.859742
   H (  3)  1.089013  2.466676
   H (  4)  1.089790  2.467348  1.762532
   H (  5)  1.088171  2.467348  1.762532  1.762684
   H (  6)  2.758767  1.482752  3.669621  3.039322  3.039322
   H (  7)  2.757616  1.482683  3.036450  3.037291  3.668844  2.402518
   H (  8)  2.756745  1.482683  3.036450  3.668844  3.037290  2.402519
             H (  7)
   H (  8)  2.402745
 
 Requested basis set is G3large
 There are 65 shells and 168 basis functions
 A cutoff of  1.0D-11 yielded   2106 shell pairs
 There are  14143 function pairs ( 17593 Cartesian)
Evaluating contribution to one-electron hamiltonian from nuclear
 Smallest overlap matrix eigenvalue = 1.35E-04
 Multipole matrices computed through 2nd order
 Guess MOs from SCF MO coefficient file
Reading MOs from coefficient file
Reading MOs from coefficient file
 Long-range K will be added via erf
 Coulomb attenuation parameter = 0.43 bohr**(-1)
 A restricted Kohn-Sham SCF calculation will be
 performed using Pulay DIIS extrapolation
 Exchange:  wPBE + LR-HF      Correlation:  PBE
 Using SG-1 standard quadrature grid
 SCF converges when DIIS error is below 1.0E-08
 ---------------------------------------
  Cycle       Energy         DIIS Error
 ---------------------------------------
    1    -331.1068781529      3.54E-05
    2    -331.1068772233      4.22E-06
    3    -331.1068773116      1.43E-06
    4    -331.1068773193      3.01E-07
    5    -331.1068773201      7.44E-08
    6    -331.1068773206      1.47E-08
    7    -331.1068773206      3.55E-09 Convergence criterion met
 ---------------------------------------
 One-Electron    Energy =  -581.4797268089
 Total Coulomb   Energy =   215.7028797394
 Alpha Exchange  Energy =    -2.7670450056
 Beta  Exchange  Energy =    -2.7670450056
 DFT   Exchange  Energy =   -22.0569891750
 DFT Correlation Energy =    -0.8791889773
 Nuclear Repu.   Energy =    63.1402379125
 Nuclear Attr.   Energy =  -911.8026199831
 Kinetic         Energy =   330.3228931743
 SCF time:  CPU 65.22 s  wall 66.38 s
 Final Alpha MO Eigenvalues
            1           2           3           4           5           6
    1 -65.6207121 -10.1033189  -5.2830890  -3.6829808  -3.6829699  -3.6823445
            7           8           9          10          11          12
    1  -0.8658500  -0.6693818  -0.5456188  -0.5452526  -0.4540568  -0.4539716
           13          14          15          16          17          18
    1  -0.4494400   0.0388597   0.0616946   0.0679637   0.0679878   0.0865219
 Analysis of SCF Wavefunction
 
 --------------------------------------------------------------
                    Orbital Energies (a.u.)
 --------------------------------------------------------------
 
 Alpha MOs
 -- Occupied --
-65.621 -10.103  -5.283  -3.683  -3.683  -3.682  -0.866  -0.669
 -0.546  -0.545  -0.454  -0.454  -0.449
 -- Virtual --
  0.039   0.062   0.068   0.068   0.087   0.095   0.095   0.104
  0.104   0.157   0.157   0.158   0.162   0.188   0.188   0.191
  0.206   0.238   0.240   0.240   0.305   0.305   0.360   0.365
  0.365   0.369   0.414   0.414   0.500   0.506   0.506   0.521
  0.547   0.590   0.590   0.610   0.642   0.642   0.651   0.686
  0.686   0.752   0.786   0.799   0.799   0.846   0.846   0.914
  0.928   0.928   0.953   0.958   1.014   1.084   1.084   1.147
  1.147   1.188   1.215   1.215   1.302   1.302   1.341   1.387
  1.412   1.413   1.431   1.435   1.436   1.511   1.511   1.582
  1.582   1.595   1.653   1.653   1.689   1.731   2.236   2.277
  2.282   2.282   2.347   2.347   2.461   2.619   2.620   2.723
  2.953   2.953   3.055   3.084   3.224   3.224   3.231   3.336
  3.337   3.438   3.438   3.488   3.654   3.654   3.778   3.780
  3.793   3.914   3.915   4.007   4.044   4.044   4.187   4.189
  4.189   4.234   4.250   4.251   4.349   4.349   4.369   4.475
  4.489   4.491   4.550   4.617   4.763   4.763   5.162   5.776
  5.779   6.347  11.487  11.487  11.824  17.612  17.694  17.792
 17.874  17.930  22.225  22.240  22.247  22.248  22.254  22.255
 22.281  24.160  27.859  28.116  28.117  40.991  41.006  41.224
 41.266  41.311 141.149
 --------------------------------------------------------------
 
          Ground-State Mulliken Net Atomic Charges

     Atom                 Charge (a.u.)
  ----------------------------------------
      1 C                    -0.287870
      2 Si                    0.210856
      3 H                     0.098440
      4 H                     0.098253
      5 H                     0.098521
      6 H                    -0.072643
      7 H                    -0.072744
      8 H                    -0.072815
  ----------------------------------------
  Sum of atomic charges =     0.000000

 -----------------------------------------------------------------
                    Cartesian Multipole Moments
 -----------------------------------------------------------------
    Charge (ESU x 10^10)
                 0.0000
    Dipole Moment (Debye)
         X      -0.0011      Y      -0.0013      Z      -0.8113
       Tot       0.8113
    Quadrupole Moments (Debye-Ang)
        XX     -22.8252     XY      -0.0021     YY     -22.8259
        XZ      -0.0022     YZ      -0.0029     ZZ     -25.0517
    Octapole Moments (Debye-Ang^2)
       XXX       1.6494    XXY      -0.0049    XYY      -1.6306
       YYY      -0.0147    XXZ     -31.5023    XYZ      -0.0013
       YYZ     -31.5056    XZZ       0.0004    YZZ      -0.0116
       ZZZ     -92.5990
    Hexadecapole Moments (Debye-Ang^3)
      XXXX     -55.7292   XXXY      -0.0057   XXYY     -18.5774
      XYYY      -0.0039   YYYY     -55.7367   XXXZ       1.2041
      XXYZ      -0.0021   XYYZ      -1.1622   YYYZ      -0.0063
      XXZZ     -80.4503   XYZZ      -0.0064   YYZZ     -80.4555
      XZZZ       0.0312   YZZZ      -0.0251   ZZZZ    -406.2239
 -----------------------------------------------------------------
 Calculating analytic gradient of the SCF energy
 Gradient of AOints
            1           2           3           4           5           6
    1   0.0018401   0.0041306  -2.9406311   1.4663316   1.4707079   3.1727886
    2  -0.0113294   0.0066960   0.0041492   2.5466446  -2.5459321  -0.0000706
    3   4.0321736  -5.2334530   1.7859772   1.7882150   1.7913226  -1.3916774
            7           8
    1  -1.5875794  -1.5875884
    2   2.7490269  -2.7491846
    3  -1.3868589  -1.3856990
 Gradient of XC Energy
            1           2           3           4           5           6
    1  -0.0001240  -0.0000664   0.1510199  -0.0753092  -0.0755526  -0.0820258
    2   0.0002259  -0.0001102  -0.0001832  -0.1307431   0.1307987   0.0000046
    3   0.0971125   0.0069237  -0.0656882  -0.0657945  -0.0659772   0.0311809
            7           8
    1   0.0410297   0.0410285
    2  -0.0710432   0.0710505
    3   0.0311378   0.0311049
 Gradient of SCF Energy
            1           2           3           4           5           6
    1   0.0000180  -0.0000119   0.0000684  -0.0002222   0.0001823  -0.0001853
    2   0.0010172  -0.0000794  -0.0000831  -0.0004853  -0.0003820   0.0000047
    3   0.0000693  -0.0002314  -0.0000302  -0.0002150   0.0001452   0.0000692
            7           8
    1   0.0000758   0.0000749
    2  -0.0001458   0.0001537
    3   0.0001242   0.0000687
 Max gradient component =       1.017E-03
 RMS gradient           =       2.707E-04
 Gradient time:  CPU 34.47 s  wall 34.92 s
 Writing REM_CC_EA            8
 ----------------------------------------------------
       Standard Nuclear Orientation (Angstroms)
    I     Atom         X            Y            Z
 ----------------------------------------------------
    1      C      -0.000126    -0.001000     0.014875
    2      Si     -0.000431     0.000000     1.874617
    3      H       1.017818     0.000000    -0.372084
    4      H      -0.508535    -0.881342    -0.373243
    5      H      -0.508535     0.881342    -0.373243
    6      H      -1.387124     0.000000     2.399624
    7      H       0.693451    -1.201373     2.397667
    8      H       0.693451     1.201373     2.397667
 ----------------------------------------------------
 Nuclear Repulsion Energy =    63.1402379122 hartrees
 There are       13 alpha and       13 beta electrons

                       Distance Matrix (Angstroms)
             C (  1)   Si(  2)   H (  3)   H (  4)   H (  5)   H (  6)
   Si(  2)  1.859742
   H (  3)  1.089013  2.466676
   H (  4)  1.088171  2.467348  1.762532
   H (  5)  1.089790  2.467348  1.762532  1.762684
   H (  6)  2.758767  1.482752  3.669621  3.039322  3.039322
   H (  7)  2.756745  1.482683  3.036450  3.037291  3.668844  2.402518
   H (  8)  2.757616  1.482683  3.036450  3.668844  3.037290  2.402519
             H (  7)
   H (  8)  2.402745
 
 Requested basis set is G3large
 There are 65 shells and 168 basis functions
 A cutoff of  1.0D-11 yielded   2106 shell pairs
 There are  14143 function pairs ( 17593 Cartesian)
Evaluating contribution to one-electron hamiltonian from nuclear
 Smallest overlap matrix eigenvalue = 1.35E-04
 Multipole matrices computed through 2nd order
 Guess MOs from SCF MO coefficient file
Reading MOs from coefficient file
Reading MOs from coefficient file
 Long-range K will be added via erf
 Coulomb attenuation parameter = 0.43 bohr**(-1)
 A restricted Kohn-Sham SCF calculation will be
 performed using Pulay DIIS extrapolation
 Exchange:  wPBE + LR-HF      Correlation:  PBE
 Using SG-1 standard quadrature grid
 SCF converges when DIIS error is below 1.0E-08
 ---------------------------------------
  Cycle       Energy         DIIS Error
 ---------------------------------------
    1    -331.1068785492      5.00E-05
    2    -331.1068771268      5.97E-06
    3    -331.1068773031      2.02E-06
    4    -331.1068773184      4.26E-07
    5    -331.1068773202      1.05E-07
    6    -331.1068773198      2.08E-08
    7    -331.1068773206      5.17E-09 Convergence criterion met
 ---------------------------------------
 One-Electron    Energy =  -581.4797265187
 Total Coulomb   Energy =   215.7028794196
 Alpha Exchange  Energy =    -2.7670450035
 Beta  Exchange  Energy =    -2.7670450035
 DFT   Exchange  Energy =   -22.0569891504
 DFT Correlation Energy =    -0.8791889763
 Nuclear Repu.   Energy =    63.1402379122
 Nuclear Attr.   Energy =  -911.8026195298
 Kinetic         Energy =   330.3228930111
 SCF time:  CPU 65.46 s  wall 66.82 s
 Final Alpha MO Eigenvalues
            1           2           3           4           5           6
    1 -65.6207121 -10.1033190  -5.2830890  -3.6829808  -3.6829699  -3.6823445
            7           8           9          10          11          12
    1  -0.8658500  -0.6693819  -0.5456188  -0.5452526  -0.4540568  -0.4539716
           13          14          15          16          17          18
    1  -0.4494400   0.0388597   0.0616946   0.0679637   0.0679878   0.0865219
 Analysis of SCF Wavefunction
 
 --------------------------------------------------------------
                    Orbital Energies (a.u.)
 --------------------------------------------------------------
 
 Alpha MOs
 -- Occupied --
-65.621 -10.103  -5.283  -3.683  -3.683  -3.682  -0.866  -0.669
 -0.546  -0.545  -0.454  -0.454  -0.449
 -- Virtual --
  0.039   0.062   0.068   0.068   0.087   0.095   0.095   0.104
  0.104   0.157   0.157   0.158   0.162   0.188   0.188   0.191
  0.206   0.238   0.240   0.240   0.305   0.305   0.360   0.365
  0.365   0.369   0.414   0.414   0.500   0.506   0.506   0.521
  0.547   0.590   0.590   0.610   0.642   0.642   0.651   0.686
  0.686   0.752   0.786   0.799   0.799   0.846   0.846   0.914
  0.928   0.928   0.953   0.958   1.014   1.084   1.084   1.147
  1.147   1.188   1.215   1.215   1.302   1.302   1.341   1.387
  1.412   1.413   1.431   1.435   1.436   1.511   1.511   1.582
  1.582   1.595   1.653   1.653   1.689   1.731   2.236   2.277
  2.282   2.282   2.347   2.347   2.461   2.619   2.620   2.723
  2.953   2.953   3.055   3.084   3.224   3.224   3.231   3.336
  3.337   3.438   3.438   3.488   3.654   3.654   3.778   3.780
  3.793   3.914   3.915   4.007   4.044   4.044   4.187   4.189
  4.189   4.234   4.250   4.251   4.349   4.349   4.369   4.475
  4.489   4.491   4.550   4.617   4.763   4.763   5.162   5.776
  5.779   6.347  11.487  11.487  11.824  17.612  17.694  17.792
 17.874  17.930  22.225  22.240  22.247  22.248  22.254  22.255
 22.281  24.160  27.859  28.116  28.117  40.991  41.006  41.224
 41.266  41.311 141.149
 --------------------------------------------------------------
 
          Ground-State Mulliken Net Atomic Charges

     Atom                 Charge (a.u.)
  ----------------------------------------
      1 C                    -0.287870
      2 Si                    0.210856
      3 H                     0.098440
      4 H                     0.098521
      5 H                     0.098253
      6 H                    -0.072643
      7 H                    -0.072815
      8 H                    -0.072744
  ----------------------------------------
  Sum of atomic charges =     0.000000

 -----------------------------------------------------------------
                    Cartesian Multipole Moments
 -----------------------------------------------------------------
    Charge (ESU x 10^10)
                 0.0000
    Dipole Moment (Debye)
         X      -0.0011      Y       0.0013      Z      -0.8113
       Tot       0.8113
    Quadrupole Moments (Debye-Ang)
        XX     -22.8252     XY       0.0021     YY     -22.8259
        XZ      -0.0022     YZ       0.0029     ZZ     -25.0517
    Octapole Moments (Debye-Ang^2)
       XXX       1.6494    XXY       0.0049    XYY      -1.6306
       YYY       0.0147    XXZ     -31.5023    XYZ       0.0013
       YYZ     -31.5056    XZZ       0.0004    YZZ       0.0116
       ZZZ     -92.5990
    Hexadecapole Moments (Debye-Ang^3)
      XXXX     -55.7292   XXXY       0.0057   XXYY     -18.5774
      XYYY       0.0039   YYYY     -55.7367   XXXZ       1.2041
      XXYZ       0.0021   XYYZ      -1.1622   YYYZ       0.0063
      XXZZ     -80.4503   XYZZ       0.0064   YYZZ     -80.4555
      XZZZ       0.0312   YZZZ       0.0251   ZZZZ    -406.2239
 -----------------------------------------------------------------
 Calculating analytic gradient of the SCF energy
 Gradient of AOints
            1           2           3           4           5           6
    1   0.0018400   0.0041310  -2.9406311   1.4707077   1.4663319   3.1727884
    2   0.0113289  -0.0066951  -0.0041488   2.5459319  -2.5466447   0.0000705
    3   4.0321734  -5.2334526   1.7859771   1.7913227   1.7882149  -1.3916777
            7           8
    1  -1.5875884  -1.5875796
    2   2.7491842  -2.7490270
    3  -1.3856999  -1.3868578
 Gradient of XC Energy
            1           2           3           4           5           6
    1  -0.0001240  -0.0000664   0.1510199  -0.0755526  -0.0753092  -0.0820258
    2  -0.0002259   0.0001101   0.0001832  -0.1307987   0.1307431  -0.0000046
    3   0.0971125   0.0069236  -0.0656882  -0.0659772  -0.0657945   0.0311810
            7           8
    1   0.0410285   0.0410297
    2  -0.0710505   0.0710432
    3   0.0311050   0.0311378
 Gradient of SCF Energy
            1           2           3           4           5           6
    1   0.0000180  -0.0000119   0.0000684   0.0001823  -0.0002222  -0.0001853
    2  -0.0010172   0.0000794   0.0000831   0.0003820   0.0004853  -0.0000047
    3   0.0000693  -0.0002314  -0.0000301   0.0001452  -0.0002150   0.0000692
            7           8
    1   0.0000749   0.0000758
    2  -0.0001537   0.0001458
    3   0.0000687   0.0001242
 Max gradient component =       1.017E-03
 RMS gradient           =       2.707E-04
 Gradient time:  CPU 35.09 s  wall 35.24 s
 Writing REM_CC_EA            8
 ----------------------------------------------------
       Standard Nuclear Orientation (Angstroms)
    I     Atom         X            Y            Z
 ----------------------------------------------------
    1      C      -0.000126     0.000000     0.015875
    2      Si     -0.000431     0.000000     1.874617
    3      H       1.017818     0.000000    -0.372084
    4      H      -0.508535    -0.881342    -0.373243
    5      H      -0.508535     0.881342    -0.373243
    6      H      -1.387124     0.000000     2.399624
    7      H       0.693451    -1.201373     2.397667
    8      H       0.693451     1.201373     2.397667
 ----------------------------------------------------
 Nuclear Repulsion Energy =    63.1513201524 hartrees
 There are       13 alpha and       13 beta electrons

                       Distance Matrix (Angstroms)
             C (  1)   Si(  2)   H (  3)   H (  4)   H (  5)   H (  6)
   Si(  2)  1.858741
   H (  3)  1.089369  2.466676
   H (  4)  1.089337  2.467348  1.762532
   H (  5)  1.089337  2.467348  1.762532  1.762684
   H (  6)  2.757902  1.482752  3.669621  3.039322  3.039322
   H (  7)  2.756316  1.482683  3.036450  3.037291  3.668844  2.402518
   H (  8)  2.756316  1.482683  3.036450  3.668844  3.037290  2.402519
             H (  7)
   H (  8)  2.402745
 
 Requested basis set is G3large
 There are 65 shells and 168 basis functions
 A cutoff of  1.0D-11 yielded   2106 shell pairs
 There are  14143 function pairs ( 17593 Cartesian)
Evaluating contribution to one-electron hamiltonian from nuclear
 Smallest overlap matrix eigenvalue = 1.35E-04
 Multipole matrices computed through 2nd order
 Guess MOs from SCF MO coefficient file
Reading MOs from coefficient file
Reading MOs from coefficient file
 Long-range K will be added via erf
 Coulomb attenuation parameter = 0.43 bohr**(-1)
 A restricted Kohn-Sham SCF calculation will be
 performed using Pulay DIIS extrapolation
 Exchange:  wPBE + LR-HF      Correlation:  PBE
 Using SG-1 standard quadrature grid
 SCF converges when DIIS error is below 1.0E-08
 ---------------------------------------
  Cycle       Energy         DIIS Error
 ---------------------------------------
    1    -331.1066589076      3.68E-05
    2    -331.1068773179      4.03E-06
    3    -331.1068773910      1.79E-06
    4    -331.1068774017      4.74E-07
    5    -331.1068774025      1.60E-07
    6    -331.1068774023      3.12E-08
    7    -331.1068774027      6.48E-09 Convergence criterion met
 ---------------------------------------
 One-Electron    Energy =  -581.5024402991
 Total Coulomb   Energy =   215.7144435851
 Alpha Exchange  Energy =    -2.7670400391
 Beta  Exchange  Energy =    -2.7670400391
 DFT   Exchange  Energy =   -22.0569228859
 DFT Correlation Energy =    -0.8791978769
 Nuclear Repu.   Energy =    63.1513201524
 Nuclear Attr.   Energy =  -911.8252638445
 Kinetic         Energy =   330.3228235454
 SCF time:  CPU 65.90 s  wall 66.83 s
 Final Alpha MO Eigenvalues
            1           2           3           4           5           6
    1 -65.6206480 -10.1033694  -5.2830413  -3.6829325  -3.6829216  -3.6822954
            7           8           9          10          11          12
    1  -0.8658696  -0.6693818  -0.5453679  -0.5453345  -0.4539603  -0.4539598
           13          14          15          16          17          18
    1  -0.4496504   0.0388511   0.0617092   0.0679648   0.0679778   0.0865156
 Analysis of SCF Wavefunction
 
 --------------------------------------------------------------
                    Orbital Energies (a.u.)
 --------------------------------------------------------------
 
 Alpha MOs
 -- Occupied --
-65.621 -10.103  -5.283  -3.683  -3.683  -3.682  -0.866  -0.669
 -0.545  -0.545  -0.454  -0.454  -0.450
 -- Virtual --
  0.039   0.062   0.068   0.068   0.087   0.095   0.095   0.104
  0.104   0.157   0.157   0.158   0.162   0.188   0.188   0.192
  0.206   0.238   0.240   0.240   0.305   0.305   0.360   0.365
  0.365   0.369   0.414   0.414   0.500   0.506   0.506   0.521
  0.548   0.590   0.590   0.610   0.642   0.642   0.651   0.686
  0.686   0.752   0.786   0.799   0.799   0.846   0.846   0.914
  0.928   0.928   0.953   0.958   1.014   1.084   1.084   1.147
  1.147   1.188   1.215   1.215   1.302   1.302   1.341   1.388
  1.412   1.412   1.431   1.435   1.436   1.511   1.511   1.582
  1.582   1.595   1.653   1.653   1.689   1.731   2.236   2.277
  2.282   2.283   2.347   2.347   2.461   2.620   2.620   2.723
  2.953   2.953   3.055   3.084   3.225   3.225   3.231   3.336
  3.336   3.438   3.438   3.489   3.655   3.655   3.778   3.780
  3.794   3.914   3.915   4.006   4.043   4.043   4.187   4.189
  4.189   4.234   4.250   4.250   4.350   4.350   4.369   4.475
  4.490   4.490   4.548   4.617   4.763   4.764   5.160   5.776
  5.776   6.348  11.487  11.487  11.825  17.612  17.695  17.793
 17.875  17.930  22.225  22.240  22.247  22.248  22.254  22.255
 22.281  24.158  27.861  28.116  28.116  40.990  41.006  41.224
 41.266  41.311 141.150
 --------------------------------------------------------------
 
          Ground-State Mulliken Net Atomic Charges

     Atom                 Charge (a.u.)
  ----------------------------------------
      1 C                    -0.287551
      2 Si                    0.210662
      3 H                     0.098399
      4 H                     0.098346
      5 H                     0.098346
      6 H                    -0.072643
      7 H                    -0.072779
      8 H                    -0.072779
  ----------------------------------------
  Sum of atomic charges =     0.000000

 -----------------------------------------------------------------
                    Cartesian Multipole Moments
 -----------------------------------------------------------------
    Charge (ESU x 10^10)
                 0.0000
    Dipole Moment (Debye)
         X      -0.0011      Y       0.0000      Z      -0.8139
       Tot       0.8139
    Quadrupole Moments (Debye-Ang)
        XX     -22.8267     XY       0.0000     YY     -22.8273
        XZ      -0.0022     YZ       0.0000     ZZ     -25.0529
    Octapole Moments (Debye-Ang^2)
       XXX       1.6496    XXY       0.0000    XYY      -1.6307
       YYY       0.0000    XXZ     -31.5097    XYZ       0.0000
       YYZ     -31.5130    XZZ       0.0004    YZZ       0.0000
       ZZZ     -92.6228
    Hexadecapole Moments (Debye-Ang^3)
      XXXX     -55.7364   XXXY       0.0000   XXYY     -18.5798
      XYYY       0.0000   YYYY     -55.7439   XXXZ       1.2047
      XXYZ       0.0000   XYYZ      -1.1628   YYYZ       0.0000
      XXZZ     -80.4543   XYZZ       0.0000   YYZZ     -80.4595
[...]
            7           8           9          10          11          12
    1  -0.0387478  -0.0000140   0.0864105   0.0563094  -0.0546927  -0.0432419
    2   0.0000012   0.0877280  -0.0000024  -0.0546560  -0.0069433  -0.0749192
    3   0.0539935  -0.0000103   0.0286282  -0.0270873  -0.0469046   0.0285526
           13          14          15          16          17          18
    1   0.0563039   0.0546918  -0.0432328  -0.3007202  -0.0000055   0.0192354
    2   0.0546525  -0.0069597   0.0748978  -0.0000005  -0.2132654  -0.0000034
    3  -0.0270870   0.0469104   0.0285197   0.0411953   0.0000088  -0.2720574
           19          20          21          22          23          24
    1  -0.2349456   0.0375963  -0.0092316  -0.2349381  -0.0375806  -0.0092337
    2   0.0375202  -0.2781846   0.0159702  -0.0375204  -0.2781311  -0.0159740
    3  -0.0205578   0.0356514  -0.2718994  -0.0205577  -0.0356782  -0.2719014
 New transposed dipole drv.
            1           2           3
    1  -0.2655385  -0.0000013   0.0004628
    2   0.0000101  -0.2654064  -0.0000130
    3   0.0000207   0.0000180  -0.5313015
    4   0.9622625  -0.0000001  -0.0004667
    5  -0.0000496   0.9610260  -0.0000137
    6  -0.0007234  -0.0000368   1.2613662
    7  -0.0387478   0.0000012   0.0539935
    8  -0.0000140   0.0877280  -0.0000103
    9   0.0864105  -0.0000024   0.0286282
   10   0.0563094  -0.0546560  -0.0270873
   11  -0.0546927  -0.0069433  -0.0469046
   12  -0.0432419  -0.0749192   0.0285526
   13   0.0563039   0.0546525  -0.0270870
   14   0.0546918  -0.0069597   0.0469104
   15  -0.0432328   0.0748978   0.0285197
   16  -0.3007202  -0.0000005   0.0411953
   17  -0.0000055  -0.2132654   0.0000088
   18   0.0192354  -0.0000034  -0.2720574
   19  -0.2349456   0.0375202  -0.0205578
   20   0.0375963  -0.2781846   0.0356514
   21  -0.0092316   0.0159702  -0.2718994
   22  -0.2349381  -0.0375204  -0.0205577
   23  -0.0375806  -0.2781311  -0.0356782
   24  -0.0092337  -0.0159740  -0.2719014
FINAL TENSOR RESULT:
Order 2, Length 24
Order 1, Length 24
   0.5379781  -0.0000004   0.0001292  -0.0419431  -0.0000012  -0.0000526  -0.2912840  -0.0000004   0.1098913  -0.1057166  -0.1070132  -0.0549893  -0.1057139   0.1070132  -0.0549899   0.0019541  -0.0000005   0.0169693   0.0023584   0.0002286  -0.0084787   0.0023583  -0.0002299  -0.0084782
Order 1, Length 24
  -0.0000004   0.5382829   0.0000022   0.0000002  -0.0420283  -0.0000002   0.0000012  -0.0439595  -0.0000008  -0.1070103  -0.2294846  -0.0952814   0.1070115  -0.2294840   0.0952827  -0.0000019   0.0024879  -0.0000009   0.0002393   0.0020887   0.0147018  -0.0002399   0.0020876  -0.0147014
Order 1, Length 24
   0.0001292   0.0000022   0.4159225  -0.0000190   0.0000005  -0.1711222   0.0947160  -0.0000005  -0.0781455  -0.0474374  -0.0822323  -0.0781888  -0.0474374   0.0822327  -0.0781908   0.0005568  -0.0000006  -0.0034176  -0.0002529   0.0004578  -0.0034312  -0.0002526  -0.0004553  -0.0034283
Order 1, Length 24
  -0.0419431   0.0000002  -0.0000190   0.3229742   0.0000007  -0.0005614  -0.0001215   0.0000007   0.0225512  -0.0014108   0.0007652  -0.0112986  -0.0014117  -0.0007662  -0.0112987  -0.1572527   0.0000003   0.0463440  -0.0604148   0.0561777  -0.0228585  -0.0604153  -0.0561769  -0.0228588
Order 1, Length 24
  -0.0000012  -0.0420283   0.0000005   0.0000007   0.3240366   0.0000020   0.0000008  -0.0018625   0.0000010   0.0007737  -0.0005197  -0.0195657  -0.0007748  -0.0005179   0.0195637   0.0000005  -0.0278817   0.0000011   0.0561925  -0.1256077   0.0397238  -0.0561917  -0.1256094  -0.0397254
Order 1, Length 24
  -0.0000526  -0.0000002  -0.1711222  -0.0005614   0.0000020   0.3226498  -0.0016227  -0.0000007  -0.0058799   0.0008258   0.0014374  -0.0058958   0.0008259  -0.0014372  -0.0058941   0.0486709  -0.0000005  -0.0441994  -0.0240414   0.0417607  -0.0448268  -0.0240419  -0.0417593  -0.0448277
Order 1, Length 24
  -0.2912840   0.0000012   0.0947160  -0.0001215   0.0000008  -0.0016227   0.3153820  -0.0000006  -0.1042254  -0.0124963   0.0015501   0.0055380  -0.0124966  -0.0015502   0.0055386   0.0007077   0.0000002  -0.0007218   0.0001566  -0.0000676   0.0003883   0.0001571   0.0000697   0.0003882
Order 1, Length 24
  -0.0000004  -0.0439595  -0.0000005   0.0000007  -0.0018625  -0.0000007  -0.0000006   0.0440212   0.0000003  -0.0243618   0.0006590   0.0113551   0.0243624   0.0006574  -0.0113545  -0.0000002   0.0007345   0.0000003   0.0000707  -0.0001247  -0.0001109  -0.0000709  -0.0001254   0.0001108
Order 1, Length 24
   0.1098913  -0.0000008  -0.0781455   0.0225512   0.0000010  -0.0058799  -0.1042254   0.0000003   0.0790026  -0.0126342   0.0008738   0.0036284  -0.0126345  -0.0008736   0.0036283  -0.0004548  -0.0000000  -0.0049136  -0.0012465   0.0000494   0.0013399  -0.0012474  -0.0000502   0.0013394
Order 1, Length 24
  -0.1057166  -0.1070103  -0.0474374  -0.0014108   0.0007737   0.0008258  -0.0124963  -0.0243618  -0.0126342   0.1117557   0.1174231   0.0521917   0.0072362   0.0129493   0.0070854  -0.0000473   0.0000508  -0.0002847  -0.0000523   0.0001875  -0.0001085   0.0007316  -0.0000124   0.0003623
Order 1, Length 24
  -0.1070132  -0.2294846  -0.0822323   0.0007652  -0.0005197   0.0014374   0.0015501   0.0006590   0.0008738   0.1174231   0.2475129   0.0904637  -0.0129501  -0.0190570  -0.0104903   0.0001887   0.0000840  -0.0002847   0.0000482   0.0000887  -0.0003946  -0.0000118   0.0007171   0.0006277
Order 1, Length 24
  -0.0549893  -0.0952814  -0.0781888  -0.0112986  -0.0195657  -0.0058958   0.0055380   0.0113551   0.0036284   0.0521917   0.0904637   0.0791114   0.0070861   0.0104896   0.0036212   0.0006648   0.0010460   0.0013238   0.0005784   0.0010962   0.0013220   0.0002265   0.0003917  -0.0049204
Order 1, Length 24
  -0.1057139   0.1070115  -0.0474374  -0.0014117  -0.0007748   0.0008259  -0.0124966   0.0243624  -0.0126345   0.0072362  -0.0129501   0.0070861   0.1117555  -0.1174217   0.0521917  -0.0000477  -0.0000509  -0.0002862   0.0007312   0.0000113   0.0003619  -0.0000524  -0.0001886  -0.0001073
Order 1, Length 24
   0.1070132  -0.2294840   0.0822327  -0.0007662  -0.0005179  -0.0014372  -0.0015502   0.0006574  -0.0008736   0.0129493  -0.0190570   0.0104896  -0.1174217   0.2475143  -0.0904640  -0.0001880   0.0000840   0.0002849   0.0000114   0.0007175  -0.0006272  -0.0000483   0.0000902   0.0003943
Order 1, Length 24
  -0.0549899   0.0952827  -0.0781908  -0.0112987   0.0195637  -0.0058941   0.0055386  -0.0113545   0.0036283   0.0070854  -0.0104903   0.0036212   0.0521917  -0.0904640   0.0791106   0.0006663  -0.0010458   0.0013238   0.0002265  -0.0003931  -0.0049217   0.0005792  -0.0010984   0.0013218
Order 1, Length 24
   0.0019541  -0.0000019   0.0005568  -0.1572527   0.0000005   0.0486709   0.0007077  -0.0000002  -0.0004548  -0.0000473   0.0001887   0.0006648  -0.0000477  -0.0001880   0.0006663   0.1646338   0.0000001  -0.0540681  -0.0049746   0.0008611   0.0019828  -0.0049745  -0.0008603   0.0019809
Order 1, Length 24
  -0.0000005   0.0024879  -0.0000006   0.0000003  -0.0278817  -0.0000005   0.0000002   0.0007345  -0.0000000   0.0000508   0.0000840   0.0010460  -0.0000509   0.0000840  -0.0010458   0.0000001   0.0208345   0.0000004   0.0108966   0.0018261  -0.0034467  -0.0108961   0.0018286   0.0034457
Order 1, Length 24
   0.0169693  -0.0000009  -0.0034176   0.0463440   0.0000011  -0.0441994  -0.0007218   0.0000003  -0.0049136  -0.0002847  -0.0002847   0.0013238  -0.0002862   0.0002849   0.0013238  -0.0540681   0.0000004   0.0425541  -0.0039751   0.0000216   0.0036640  -0.0039753  -0.0000215   0.0036633
Order 1, Length 24
   0.0023584   0.0002393  -0.0002529  -0.0604148   0.0561925  -0.0240414   0.0001566   0.0000707  -0.0012465  -0.0000523   0.0000482   0.0005784   0.0007312   0.0000114   0.0002265  -0.0049746   0.0108966  -0.0039751   0.0569817  -0.0624263   0.0267284   0.0052137  -0.0050295   0.0019829
Order 1, Length 24
   0.0002286   0.0020887   0.0004578   0.0561777  -0.1256077   0.0417607  -0.0000676  -0.0001247   0.0000494   0.0001875   0.0000887   0.0010962   0.0000113   0.0007175  -0.0003931   0.0008611   0.0018261   0.0000216  -0.0624263   0.1293441  -0.0464182   0.0050275  -0.0083337   0.0034250
Order 1, Length 24
  -0.0084787   0.0147018  -0.0034312  -0.0228585   0.0397238  -0.0448268   0.0003883  -0.0001109   0.0013399  -0.0001085  -0.0003946   0.0013220   0.0003619  -0.0006272  -0.0049217   0.0019828  -0.0034467   0.0036640   0.0267284  -0.0464182   0.0431684   0.0019830  -0.0034254   0.0036835
Order 1, Length 24
   0.0023583  -0.0002399  -0.0002526  -0.0604153  -0.0561917  -0.0240419   0.0001571  -0.0000709  -0.0012474   0.0007316  -0.0000118   0.0002265  -0.0000524  -0.0000483   0.0005792  -0.0049745  -0.0108961  -0.0039753   0.0052137   0.0050275   0.0019830   0.0569817   0.0624279   0.0267274
Order 1, Length 24
  -0.0002299   0.0020876  -0.0004553  -0.0561769  -0.1256094  -0.0417593   0.0000697  -0.0001254  -0.0000502  -0.0000124   0.0007171   0.0003917  -0.0001886   0.0000902  -0.0010984  -0.0008603   0.0018286  -0.0000215  -0.0050295  -0.0083337  -0.0034254   0.0624279   0.1293432   0.0464173
Order 1, Length 24
  -0.0084782  -0.0147014  -0.0034283  -0.0228588  -0.0397254  -0.0448277   0.0003882   0.0001108   0.0013394   0.0003623   0.0006277  -0.0049204  -0.0001073   0.0003943   0.0013218   0.0019809   0.0034457   0.0036633   0.0019829   0.0034250   0.0036835   0.0267274   0.0464173   0.0431697


 # Finishing finite difference calculation for IDERIV #
 ######################################################
 ######################################################
 Requested basis set is G3large
 There are 65 shells and 168 basis functions
 **********************************************************************
 **                                                                  **
 **                       VIBRATIONAL ANALYSIS                       **
 **                       --------------------                       **
 **                                                                  **
 **        VIBRATIONAL FREQUENCIES (CM**-1) AND NORMAL MODES         **
 **     FORCE CONSTANTS (mDYN/ANGSTROM) AND REDUCED MASSES (AMU)     **
 **                  INFRARED INTENSITIES (KM/MOL)                   **
 **                                                                  **
 **********************************************************************
 

 Mode:                 1                      2                      3
 Frequency:       201.83                 523.43                 531.90
 Force Cnst:      0.0242                 0.1683                 0.1737
 Red. Mass:       1.0078                 1.0423                 1.0421
 IR Active:          YES                    YES                    YES
 IR Intens:        0.001                  8.147                  7.883
 Raman Active:       YES                    YES                    YES
               X      Y      Z        X      Y      Z        X      Y      Z
 C          0.000  0.000  0.000   -0.015  0.000  0.000    0.000  0.016  0.000
 Si         0.000  0.000  0.000   -0.034  0.000 -0.001    0.000  0.034  0.000
 H          0.000  0.466  0.000    0.157 -0.001  0.429   -0.001 -0.200 -0.002
 H          0.403 -0.233  0.000    0.188 -0.018 -0.213    0.018 -0.169  0.378
 H         -0.403 -0.232  0.000    0.188  0.017 -0.216   -0.019 -0.170 -0.376
 H          0.000  0.343  0.000    0.194 -0.001  0.588   -0.001 -0.214 -0.002
 H         -0.295 -0.170  0.000    0.203  0.010 -0.285   -0.013 -0.194 -0.496
 H          0.295 -0.170  0.000    0.204 -0.012 -0.281    0.011 -0.194  0.498
 TransDip   0.000 -0.001  0.000   -0.091  0.000 -0.006    0.000  0.090  0.000

 Mode:                 4                      5                      6
 Frequency:       728.96                 893.01                 895.17
 Force Cnst:      1.1360                 0.6225                 0.6272
 Red. Mass:       3.6283                 1.3248                 1.3284
 IR Active:          YES                    YES                    YES
 IR Intens:       11.748                 66.161                 69.299
 Raman Active:       YES                    YES                    YES
               X      Y      Z        X      Y      Z        X      Y      Z
 C         -0.001  0.000  0.387   -0.142  0.000 -0.001    0.000 -0.141  0.000
 Si         0.000  0.000 -0.190    0.060  0.000  0.004    0.000  0.061  0.000
 H          0.020  0.000  0.465    0.104  0.000  0.603    0.000  0.226  0.000
 H         -0.009 -0.017  0.459    0.197 -0.052 -0.306   -0.052  0.134 -0.519
 H         -0.009  0.017  0.459    0.198  0.052 -0.305    0.052  0.134  0.519
 H         -0.023  0.000 -0.241   -0.118  0.000 -0.437    0.000 -0.233  0.000
 H          0.012 -0.019 -0.240   -0.173 -0.052  0.176   -0.057 -0.136 -0.352
 H          0.012  0.019 -0.240   -0.173  0.052  0.176    0.057 -0.136  0.352
 TransDip   0.000  0.000 -0.110    0.259  0.000  0.023    0.000  0.267  0.000

 Mode:                 7                      8                      9
 Frequency:       960.25                 969.83                 970.01
 Force Cnst:      0.6039                 0.5706                 0.5737
 Red. Mass:       1.1116                 1.0297                 1.0349
 IR Active:          YES                    YES                    YES
 IR Intens:      197.705                 36.746                 47.811
 Raman Active:       YES                    YES                    YES
               X      Y      Z        X      Y      Z        X      Y      Z
 C         -0.003  0.000  0.004    0.000 -0.015  0.000   -0.013  0.000  0.001
 Si         0.010  0.000 -0.061    0.000 -0.027  0.000   -0.027  0.000 -0.014
 H          0.010  0.000  0.042    0.000  0.004  0.001    0.010  0.000  0.064
 H          0.001 -0.011  0.030    0.001  0.009 -0.057    0.003  0.001 -0.020
 H          0.001  0.011  0.030   -0.001  0.008  0.057    0.003 -0.001 -0.021
 H          0.235  0.000  0.562   -0.001  0.736 -0.002   -0.080 -0.006 -0.183
 H         -0.241  0.089  0.494    0.382  0.087 -0.273    0.484  0.409  0.271
 H         -0.241 -0.089  0.494   -0.373  0.080  0.278    0.490 -0.410  0.266
 TransDip   0.060  0.000 -0.446   -0.002 -0.194 -0.001   -0.195  0.002 -0.105

 Mode:                10                     11                     12
 Frequency:      1310.30                1472.45                1472.60
 Force Cnst:      1.2710                 1.3388                 1.3390
 Red. Mass:       1.2565                 1.0480                 1.0480
 IR Active:          YES                    YES                    YES
 IR Intens:       27.140                  4.176                  4.167
 Raman Active:       YES                    YES                    YES
               X      Y      Z        X      Y      Z        X      Y      Z
 C          0.000  0.000 -0.150   -0.060  0.001  0.000   -0.001 -0.060  0.000
 Si         0.000  0.000  0.010   -0.005  0.000  0.000    0.000 -0.005  0.000
 H          0.240  0.000  0.517   -0.171 -0.009 -0.329   -0.002  0.726 -0.004
 H         -0.119 -0.209  0.517    0.507 -0.389  0.160   -0.382  0.049  0.286
 H         -0.119  0.209  0.517    0.497  0.387  0.167    0.394  0.058 -0.282
 H         -0.017  0.000 -0.016    0.002  0.000  0.014    0.000  0.020  0.000
 H          0.008 -0.015 -0.017    0.015  0.008 -0.008    0.008  0.006  0.012
 H          0.008  0.015 -0.017    0.015 -0.008 -0.007   -0.008  0.006 -0.013
 TransDip   0.000  0.000  0.167    0.065 -0.001  0.000    0.001  0.065  0.000

 Mode:                13                     14                     15
 Frequency:      2239.50                2241.62                2241.62
 Force Cnst:      3.0833                 3.1117                 3.0401
 Red. Mass:       1.0434                 1.0511                 1.0269
 IR Active:          YES                    YES                    YES
 IR Intens:      120.034                136.777                 79.914
 Raman Active:       YES                    YES                    YES
               X      Y      Z        X      Y      Z        X      Y      Z
 C          0.000  0.000  0.000    0.000  0.000  0.000    0.000  0.000 -0.001
 Si        -0.035  0.000  0.010   -0.001 -0.040 -0.001    0.019 -0.001  0.018
 H         -0.003  0.000  0.007    0.000 -0.001  0.000    0.005  0.000  0.002
 H         -0.002 -0.003  0.001   -0.002 -0.003 -0.004   -0.001 -0.001  0.006
 H         -0.002  0.003  0.001    0.002 -0.003  0.004    0.000  0.001  0.006
 H          0.929  0.000 -0.352   -0.003 -0.014  0.001    0.111  0.000 -0.034
 H          0.024 -0.063  0.030   -0.327  0.552 -0.244   -0.333  0.589 -0.249
 H          0.024  0.063  0.030    0.345  0.584  0.258   -0.315 -0.558 -0.236
 TransDip  -0.328  0.000  0.123   -0.005 -0.374 -0.006    0.181 -0.010  0.221

 Mode:                16                     17                     18
 Frequency:      3103.38                3195.20                3195.48
 Force Cnst:      5.8785                 6.6259                 6.6274
 Red. Mass:       1.0360                 1.1015                 1.1016
 IR Active:          YES                    YES                    YES
 IR Intens:        1.717                  3.527                  3.514
 Raman Active:       YES                    YES                    YES
               X      Y      Z        X      Y      Z        X      Y      Z
 C          0.000  0.000  0.051   -0.092  0.000  0.000    0.000 -0.092  0.000
 Si         0.000  0.000 -0.001   -0.001  0.000  0.000    0.000 -0.001  0.000
 H          0.544  0.000 -0.194    0.757  0.000 -0.296   -0.002 -0.016  0.001
 H         -0.271 -0.470 -0.194    0.178  0.337  0.149    0.334  0.563  0.256
 H         -0.271  0.470 -0.194    0.176 -0.334  0.148   -0.335  0.564 -0.257
 H          0.000  0.000  0.001    0.005  0.000 -0.002    0.000  0.001  0.000
 H          0.000  0.000  0.001    0.002 -0.001  0.001   -0.001  0.004 -0.002
 H          0.000  0.000  0.001    0.002  0.001  0.001    0.001  0.004  0.002
 TransDip   0.000  0.000  0.042   -0.060  0.000  0.000    0.000 -0.060  0.000

 STANDARD THERMODYNAMIC QUANTITIES AT   298.18 K  AND     1.00 ATM

   This Molecule has  0 Imaginary Frequencies
   Zero point vibrational energy:       38.808 kcal/mol

   Atom    1 Element C  Has Mass   12.00000
   Atom    2 Element Si Has Mass   27.97693
   Atom    3 Element H  Has Mass    1.00783
   Atom    4 Element H  Has Mass    1.00783
   Atom    5 Element H  Has Mass    1.00783
   Atom    6 Element H  Has Mass    1.00783
   Atom    7 Element H  Has Mass    1.00783
   Atom    8 Element H  Has Mass    1.00783
   Molecular Mass:    46.023910 amu
   Principal axes and moments of inertia in atomic units:
                             1           2           3
    Eigenvalues --       31.95630   162.88611   162.89003
          X              -0.00023     0.00006     1.00000
          Y               0.00000     1.00000    -0.00006
          Z               1.00000     0.00000     0.00023
   Rotational Symmetry Number is   1
   The Molecule is an Asymmetric Top
   Translational Enthalpy:        0.889 kcal/mol
   Rotational Enthalpy:           0.889 kcal/mol
   Vibrational Enthalpy:         39.641 kcal/mol
   gas constant (RT):             0.593 kcal/mol
   Translational Entropy:        37.405  cal/mol.K
   Rotational Entropy:           21.366  cal/mol.K
   Vibrational Entropy:           4.236  cal/mol.K

   Total Enthalpy:               42.011 kcal/mol
   Total Entropy:                63.008  cal/mol.K
 Total job time:  4907.80s(wall), 4826.91s(cpu) 
 Thu Mar 20 16:33:46 2014

        *************************************************************
        *                                                           *
        *  Thank you very much for using Q-Chem.  Have a nice day.  *
        *                                                           *
        *************************************************************


0 sent ACK to 0 
now end server 0 ... 
