Process 0 of 1 is on cl227.stfx.acenet.ca - thread support 1
initial socket setup ...start
initial socket setup ...done 
now start server 0 ... 

cmd = /usr/bin/ssh clhead /usr/local/qchem/bin/get_hostid 573517048 > /scratch/tmp/5955270.1.long.q/qchem9428/lic.dat
                  Welcome to Q-Chem
     A Quantum Leap Into The Future Of Chemistry

 Y. Shao, L. Fusti-Molnar, Y. Jung, J. Kussmann, C. Ochsenfeld,
 S. T. Brown, A. T. B. Gilbert, L. V. Slipchenko,S. V. Levchenko,
 D. P. O'Neill, R. A. DiStasio Jr., R. C. Lochan, T. Wang,
 G. J. O. Beran, N. A. Besley, J. M. Herbert, C. Y. Lin,
 T. Van Voorhis, S. H. Chien, A. Sodt, R. P. Steele, 
 V. A. Rassolov, P. E. Maslen, P. P. Korambath, R. D. Adamson,
 B. Austin, J. Baker, E. F. C. Byrd, H. Dachsel, R. J. Doerksen,
 A. Dreuw, B. D. Dunietz, A. D. Dutoi, T. R. Furlani,
 S. R. Gwaltney, A. Heyden, S. Hirata, C.-P. Hsu, G. Kedziora,
 R. Z. Khaliullin, P. Klunzinger, A. M. Lee, M. S. Lee, W. Liang,
 I. Lotan, N. Nair, B. Peters, E. I. Proynov, P. A. Pieniazek, 
 Y. M. Rhee, J. Ritchie, E. Rosta, C. D. Sherrill, 
 A. C. Simmonett, J. E. Subotnik, H. L. Woodcock III,
 W. Zhang, A. T. Bell, A. K. Chakraborty, D. M. Chipman,
 F. J. Keil, A. Warshel, W. J. Hehre, H. F. Schaefer III,
 J. Kong, A. I. Krylov, P. M. W. Gill, M. Head-Gordon,
 Q-Chem, Version 3.1, Q-Chem, Inc., Pittsburgh, PA (2007).

 Additional authors for Version 3.1: 
 Z. Gan, Y. Zhao, N. E. Schultz, D. Truhlar, E. Epifanovsky and M. Oana.

 Additional authors for Version 3.2: 
 R. Baer, B. R. Brooks, D. Casanova, J.-D. Chai, C.-L. Cheng, 
 C. Cramer, D. Crittenden, A. Ghysels, G. Hawkins, E. G. Hohenstein, 
 C. Kelley, W. Kurlancheek, D. Liotard, E. Livshits, P. Manohar, 
 A. Marenich, D. Neuhauser, R. Olson, M. A. Rohrdanz, K. S. Thanthiriwatte, 
 A. J. W. Thom, V. Vanovschi, C. F. Williams, Q. Wu and Z.-Q. You. 


 Intel X86 Linux Version

 Q-chem begins on Wed Apr 24 16:26:49 2013  

 Parallel job on  1  processors
Processing $rem in /usr/local/qchem/config/preferences.

theFileMan(): MAXOPENFILES=974 MAX_SUB_FILE_NUM=16
Maximum size of a physical file is 2.0 GB, maximum size of a tmp-file is 32.0 GB


--------------------------------------------------------------
User input:
--------------------------------------------------------------

$molecule
-1,2
X
X,1,1.
N,2,NXC,1,90.
C,2,NXC,1,90.,3,180.,0
C,2,RC2,1,90.,3,DC2,0
C,2,RC2,1,90.,3,-DC2,0
C,2,RC3,1,90.,4,DC3,0
C,2,RC3,1,90.,4,-DC3,0
X,4,1.,2,90.,1,0.,0
H,4,RH1,9,90.,2,180.,0
H,5,RH2,3,AH2,2,180.,0
H,6,RH2,3,AH2,2,180.,0
H,7,RH3,4,AH3,2,180.,0
H,8,RH3,4,AH3,2,180.,0

NXC=1.40331232
RC2=1.34182681
RC3=1.38343024
RH1=1.08687965
RH2=1.08912453
RH3=1.08616833
AH2=115.93585371
AH3=121.29965942
DC2=58.3424315
DC3=60.04559113

$end

$comment
negative
$end

$xc_functional
C PBE   1.00
X wPBE  1.00
$end

$rem
SYMMETRY_DECOMPOSITION	0
exchange 		general
LRC_DFT                 true
BASIS                   g3large
omega			100
mem_static              760
max_scf_cycles          200
scf_final_print         1
sym_ignore              true
$end

--------------------------------------------------------------
 Writing REM_CC_EA           11
 ----------------------------------------------------
       Standard Nuclear Orientation (Angstroms)
    I     Atom         X            Y            Z
 ----------------------------------------------------
    1      N       1.403312     0.000000     1.000000
    2      C      -1.403312     0.000000     1.000000
    3      C       0.704246     1.142163     1.000000
    4      C       0.704246    -1.142163     1.000000
    5      C      -0.690762    -1.198636     1.000000
    6      C      -0.690762     1.198636     1.000000
    7      H      -2.490192     0.000000     1.000000
    8      H       1.290959     2.059747     1.000000
    9      H       1.290959    -2.059747     1.000000
   10      H      -1.200188    -2.157931     1.000000
   11      H      -1.200188     2.157931     1.000000
 ----------------------------------------------------
 Nuclear Repulsion Energy =   205.8465956149 hartrees
 There are       22 alpha and       21 beta electrons
 Requested basis set is G3large
 There are 90 shells and 302 basis functions

Total QAlloc Memory Limit   2000 MB
Mega-Array Size       743 MB
MEM_STATIC part       760 MB

                       Distance Matrix (Angstroms)
             N (  1)   C (  2)   C (  3)   C (  4)   C (  5)   C (  6)
   C (  2)  2.806625
   C (  3)  1.339115  2.397152
   C (  4)  1.339115  2.397152  2.284326
   C (  5)  2.412856  1.394438  2.724956  1.396150
   C (  6)  2.412856  1.394438  1.396150  2.724956  2.397272
   H (  7)  3.893504  1.086880  3.392488  3.392488  2.162100  2.162100
   H (  8)  2.062809  3.391409  1.089125  3.255221  3.813696  2.160724
   H (  9)  2.062809  3.391409  3.255221  1.089125  2.160724  3.813696
   H ( 10)  3.381550  2.167469  3.810182  2.158391  1.086168  3.395004
   H ( 11)  3.381550  2.167469  2.158391  3.810182  3.395004  1.086168
             H (  7)   H (  8)   H (  9)   H ( 10)
   H (  8)  4.305770
   H (  9)  4.305770  4.119495
   H ( 10)  2.514115  4.898430  2.493081
   H ( 11)  2.514115  2.493081  4.898430  4.315861
 
 A cutoff of  1.0D-08 yielded   3653 shell pairs
 There are  42032 function pairs ( 52958 Cartesian)
Evaluating contribution to one-electron hamiltonian from nuclear
 Smallest overlap matrix eigenvalue = 6.68E-06

 Q-Chem warning in module mkSTV.C, line 194:

 Overlap eigenvalue is smaller than square root of threshold

 Multipole matrices computed through 2nd order

  Scale SEOQF with 1.000000e-01/1.000000e-01/1.000000e-01

 Standard Electronic Orientation quadrupole field applied
 Nucleus-field energy     =     0.0000000009 hartrees
 Guess from superposition of atomic densities
 Warning:  Energy on first SCF cycle will be non-variational
 Long-range K will be added via erf
 Coulomb attenuation parameter = 0.1 bohr**(-1)
 An unrestricted Kohn-Sham SCF calculation will be
 performed using Pulay DIIS extrapolation
 Exchange:  wPBE + LR-HF      Correlation:  PBE
 Using SG-1 standard quadrature grid
 SCF converges when DIIS error is below 1.0E-05
 Requested basis set is G3large
 There are 90 shells and 302 basis functions
 A cutoff of  1.0D-08 yielded   3653 shell pairs
 There are  42032 function pairs ( 52958 Cartesian)
 Warning!  Inaccurate integrated density:
   Number of electrons =    43
   Numerical integral  =    42.000558105021
   Relative error      =    -2.3242834767 %
 ---------------------------------------
  Cycle       Energy         DIIS Error
 ---------------------------------------
    1    -249.3566026141      2.81E-02
    2    -247.7746497538      4.31E-03
    3    -247.2920812797      7.63E-03
    4    -248.0060351187      1.44E-03
    5    -248.0238965446      8.02E-04
    6    -248.0321352636      1.79E-04
    7    -248.0327006308      9.26E-05
    8    -248.0328419788      3.88E-05
    9    -248.0329069974      1.64E-05
   10    -248.0329449903      9.89E-06 Convergence criterion met
 ---------------------------------------
 One-Electron    Energy =  -750.1744671539
 Total Coulomb   Energy =   332.1614592779
 Alpha Exchange  Energy =    -1.2246299104
 Beta  Exchange  Energy =    -1.1702911449
 DFT   Exchange  Energy =   -32.0596563195
 DFT Correlation Energy =    -1.4119553555
 Nuclear Repu.   Energy =   205.8465956158
 Nuclear Attr.   Energy =  -997.5950993333
 Kinetic         Energy =   247.4206321795
 <S^2> = 0.7540
 SCF time:  CPU 518.17 s  wall 520.22 s
 Final Alpha MO Eigenvalues
            1           2           3           4           5           6
    1 -13.8036109  -9.7664550  -9.7606058  -9.7470382  -9.7428226  -9.7292330
            7           8           9          10          11          12
    1  -0.7080223  -0.5809940  -0.5444840  -0.4239623  -0.4209056  -0.3340042
           13          14          15          16          17          18
    1  -0.2829633  -0.2789754  -0.2400057  -0.2157471  -0.2077848  -0.1758389
           19          20          21          22          23          24
    1  -0.1182515  -0.0987850  -0.0670064   0.0746783   0.1370754   0.1417440
           25          26          27
    1   0.1477419   0.1587820   0.1701035
 Final Beta MO Eigenvalues
            1           2           3           4           5           6
    1 -13.7974343  -9.7662231  -9.7590769  -9.7473081  -9.7419742  -9.7241144
            7           8           9          10          11          12
    1  -0.7007189  -0.5736602  -0.5406790  -0.4222991  -0.4122672  -0.3314590
           13          14          15          16          17          18
    1  -0.2800633  -0.2757227  -0.2390493  -0.2042875  -0.2019685  -0.1737126
           19          20          21          22          23          24
    1  -0.0968125  -0.0888927  -0.0607377   0.1390348   0.1432284   0.1495150
           25          26
    1   0.1595252   0.1710983
 Analysis of SCF Wavefunction
 
 --------------------------------------------------------------
                    Orbital Energies (a.u.)
 --------------------------------------------------------------
 
 Alpha MOs
 -- Occupied --
-13.804  -9.766  -9.761  -9.747  -9.743  -9.729  -0.708  -0.581
 -0.544  -0.424  -0.421  -0.334  -0.283  -0.279  -0.240  -0.216
 -0.208  -0.176  -0.118  -0.099  -0.067   0.075
 -- Virtual --
  0.137   0.142   0.148   0.159   0.170   0.191   0.223   0.228
  0.244   0.249   0.250   0.251   0.265   0.269   0.270   0.273
  0.286   0.299   0.299   0.300   0.307   0.317   0.319   0.347
  0.350   0.374   0.377   0.403   0.419   0.423   0.439   0.450
  0.465   0.467   0.471   0.480   0.511   0.533   0.544   0.545
  0.647   0.648   0.671   0.698   0.712   0.718   0.720   0.721
  0.741   0.751   0.769   0.788   0.797   0.800   0.802   0.805
  0.841   0.853   0.877   0.881   0.902   0.906   0.914   0.942
  0.945   0.968   0.976   0.980   0.994   0.997   1.006   1.028
  1.081   1.108   1.124   1.142   1.146   1.202   1.226   1.240
  1.247   1.293   1.301   1.319   1.351   1.363   1.388   1.461
  1.462   1.471   1.497   1.508   1.515   1.544   1.545   1.579
  1.587   1.594   1.598   1.628   1.630   1.668   1.770   1.841
  1.849   1.898   1.927   1.935   1.984   2.043   2.055   2.162
  2.172   2.231   2.258   2.410   2.677   2.681   2.742   2.750
  2.766   2.786   2.834   2.850   2.864   2.878   2.924   2.939
  2.969   2.977   2.980   3.008   3.011   3.016   3.037   3.049
  3.055   3.100   3.177   3.184   3.240   3.275   3.286   3.298
  3.303   3.346   3.351   3.355   3.368   3.387   3.410   3.411
  3.434   3.454   3.477   3.507   3.514   3.538   3.558   3.580
  3.604   3.609   3.628   3.663   3.717   3.736   3.744   3.769
  3.780   3.793   3.841   3.879   3.920   3.975   3.980   3.982
  4.000   4.043   4.064   4.097   4.146   4.159   4.193   4.231
  4.261   4.271   4.288   4.318   4.424   4.433   4.445   4.538
  4.541   4.544   4.599   4.651   4.651   4.682   4.687   4.737
  4.751   4.762   4.885   4.970   5.031   5.113   5.187   5.197
  5.226   5.264   5.288   5.414   5.420   5.421   5.503   5.611
  5.656   5.834   5.858   5.919   5.983   6.096   6.116   6.232
  6.331   6.907  23.947  24.294  24.506  24.675  24.950  27.277
 27.349  27.405  27.466  27.639  27.982  28.101  28.134  28.272
 28.313  28.322  28.516  28.534  28.562  28.876  35.981  37.539
 37.958  38.566  40.629  40.705  40.726  40.763  40.864  40.879
 40.918  40.943  41.003  41.013  41.086  41.095  41.112  41.153
 41.172  41.197  41.202  41.206  41.220  41.230  41.239  41.239
 41.243  41.253  41.269  41.307  41.395  41.433  41.470  41.556
 
 Beta MOs
 -- Occupied --
-13.797  -9.766  -9.759  -9.747  -9.742  -9.724  -0.701  -0.574
 -0.541  -0.422  -0.412  -0.331  -0.280  -0.276  -0.239  -0.204
 -0.202  -0.174  -0.097  -0.089  -0.061
 -- Virtual --
  0.139   0.143   0.150   0.160   0.171   0.195   0.201   0.228
  0.230   0.247   0.253   0.254   0.255   0.266   0.271   0.272
  0.274   0.297   0.301   0.301   0.302   0.309   0.322   0.323
  0.352   0.364   0.377   0.384   0.406   0.425   0.427   0.441
  0.451   0.467   0.473   0.474   0.482   0.515   0.535   0.547
  0.548   0.650   0.653   0.677   0.703   0.714   0.726   0.728
  0.732   0.744   0.761   0.772   0.792   0.801   0.804   0.807
  0.813   0.843   0.864   0.881   0.886   0.910   0.911   0.917
  0.944   0.959   0.971   0.979   0.985   0.998   1.001   1.016
  1.032   1.095   1.110   1.130   1.146   1.151   1.206   1.236
  1.249   1.252   1.299   1.306   1.324   1.354   1.365   1.391
  1.463   1.471   1.477   1.499   1.511   1.517   1.548   1.557
  1.581   1.590   1.603   1.607   1.630   1.633   1.673   1.772
  1.851   1.852   1.908   1.928   1.948   1.986   2.048   2.064
  2.167   2.175   2.238   2.261   2.414   2.683   2.687   2.748
  2.757   2.769   2.789   2.853   2.855   2.871   2.885   2.932
  2.940   2.977   2.983   2.985   3.015   3.021   3.022   3.045
  3.058   3.067   3.109   3.184   3.188   3.250   3.278   3.292
  3.303   3.313   3.348   3.355   3.363   3.376   3.393   3.412
  3.416   3.438   3.468   3.480   3.514   3.520   3.542   3.562
  3.591   3.610   3.614   3.633   3.675   3.719   3.742   3.751
  3.773   3.795   3.800   3.848   3.880   3.930   3.978   3.985
  3.993   4.005   4.064   4.065   4.100   4.158   4.162   4.204
  4.237   4.263   4.275   4.290   4.322   4.430   4.435   4.451
  4.544   4.546   4.546   4.608   4.657   4.658   4.687   4.699
  4.747   4.752   4.768   4.897   4.973   5.034   5.115   5.203
  5.207   5.229   5.266   5.313   5.419   5.434   5.440   5.510
  5.622   5.658   5.836   5.861   5.922   5.984   6.098   6.122
  6.234   6.332   6.909  23.950  24.295  24.509  24.676  24.952
 27.281  27.352  27.414  27.468  27.645  27.983  28.102  28.134
 28.273  28.314  28.322  28.517  28.535  28.563  28.877  35.989
 37.557  37.962  38.570  40.645  40.719  40.741  40.766  40.866
 40.882  40.919  40.949  41.005  41.013  41.090  41.097  41.116
 41.156  41.174  41.200  41.205  41.209  41.223  41.230  41.239
 41.241  41.244  41.260  41.276  41.307  41.396  41.433  41.470
 41.557
 --------------------------------------------------------------
 
          Ground-State Mulliken Net Atomic Charges

     Atom                 Charge (a.u.)    Spin (a.u.)
  --------------------------------------------------------
      1 N                    -0.255006       0.251231
      2 C                    -0.296712       0.368996
      3 C                    -0.320501       0.077744
      4 C                    -0.370202       0.191753
      5 C                    -0.148835       0.042731
      6 C                    -0.192530       0.139973
      7 H                     0.124070      -0.037018
      8 H                     0.126296      -0.009027
      9 H                     0.126494      -0.016975
     10 H                     0.103338      -0.001271
     11 H                     0.103587      -0.008138
  --------------------------------------------------------
  Sum of atomic charges =    -1.000000
  Sum of spin   charges =     1.000000

 -----------------------------------------------------------------
                    Cartesian Multipole Moments
 -----------------------------------------------------------------
    Charge (ESU x 10^10)
                -4.8032
    Dipole Moment (Debye)
         X      -1.4749      Y       0.0427      Z      -4.8035
       Tot       5.0251
    Quadrupole Moments (Debye-Ang)
        XX     -51.1686     XY       0.3302     YY     -44.4814
        XZ      -1.4765     YZ       0.0502     ZZ     -50.8112
    Octapole Moments (Debye-Ang^2)
       XXX      -5.1086    XXY       0.3688    XYY       2.0040
       YYY      -0.0785    XXZ     -51.1670    XYZ       0.3340
       YYZ     -44.4860    XZZ       2.3855    YZZ       0.2049
       ZZZ    -142.8292
    Hexadecapole Moments (Debye-Ang^3)
      XXXX    -395.1665   XXXY       0.1588   XXYY    -111.4984
      XYYY       2.8263   YYYY    -367.4490   XXXZ      -5.1253
      XXYZ       0.3797   XYYZ       1.9952   YYYZ       0.0268
      XXZZ    -132.9190   XYZZ       1.2501   YYZZ    -132.0635
      XZZZ      10.0999   YZZZ       0.5621   ZZZZ    -365.7317
 -----------------------------------------------------------------
 Total job time:  520.76s(wall), 518.67s(cpu) 
 Wed Apr 24 16:35:30 2013

        *************************************************************
        *                                                           *
        *  Thank you very much for using Q-Chem.  Have a nice day.  *
        *                                                           *
        *************************************************************


0 sent ACK to 0 
now end server 0 ... 
 
**********************************************************************
Job 2 of 3 
**********************************************************************
 
Process 0 of 1 is on cl227.stfx.acenet.ca - thread support 1
initial socket setup ...start
initial socket setup ...done 
now start server 0 ... 

cmd = /usr/bin/ssh clhead /usr/local/qchem/bin/get_hostid 1202531397 > /scratch/tmp/5955270.1.long.q/qchem9428/lic.dat
                  Welcome to Q-Chem
     A Quantum Leap Into The Future Of Chemistry

 Y. Shao, L. Fusti-Molnar, Y. Jung, J. Kussmann, C. Ochsenfeld,
 S. T. Brown, A. T. B. Gilbert, L. V. Slipchenko,S. V. Levchenko,
 D. P. O'Neill, R. A. DiStasio Jr., R. C. Lochan, T. Wang,
 G. J. O. Beran, N. A. Besley, J. M. Herbert, C. Y. Lin,
 T. Van Voorhis, S. H. Chien, A. Sodt, R. P. Steele, 
 V. A. Rassolov, P. E. Maslen, P. P. Korambath, R. D. Adamson,
 B. Austin, J. Baker, E. F. C. Byrd, H. Dachsel, R. J. Doerksen,
 A. Dreuw, B. D. Dunietz, A. D. Dutoi, T. R. Furlani,
 S. R. Gwaltney, A. Heyden, S. Hirata, C.-P. Hsu, G. Kedziora,
 R. Z. Khaliullin, P. Klunzinger, A. M. Lee, M. S. Lee, W. Liang,
 I. Lotan, N. Nair, B. Peters, E. I. Proynov, P. A. Pieniazek, 
 Y. M. Rhee, J. Ritchie, E. Rosta, C. D. Sherrill, 
 A. C. Simmonett, J. E. Subotnik, H. L. Woodcock III,
 W. Zhang, A. T. Bell, A. K. Chakraborty, D. M. Chipman,
 F. J. Keil, A. Warshel, W. J. Hehre, H. F. Schaefer III,
 J. Kong, A. I. Krylov, P. M. W. Gill, M. Head-Gordon,
 Q-Chem, Version 3.1, Q-Chem, Inc., Pittsburgh, PA (2007).

 Additional authors for Version 3.1: 
 Z. Gan, Y. Zhao, N. E. Schultz, D. Truhlar, E. Epifanovsky and M. Oana.

 Additional authors for Version 3.2: 
 R. Baer, B. R. Brooks, D. Casanova, J.-D. Chai, C.-L. Cheng, 
 C. Cramer, D. Crittenden, A. Ghysels, G. Hawkins, E. G. Hohenstein, 
 C. Kelley, W. Kurlancheek, D. Liotard, E. Livshits, P. Manohar, 
 A. Marenich, D. Neuhauser, R. Olson, M. A. Rohrdanz, K. S. Thanthiriwatte, 
 A. J. W. Thom, V. Vanovschi, C. F. Williams, Q. Wu and Z.-Q. You. 


 Intel X86 Linux Version

 Q-chem begins on Wed Apr 24 16:35:33 2013  

 Parallel job on  1  processors
Processing $rem in /usr/local/qchem/config/preferences.

theFileMan(): MAXOPENFILES=974 MAX_SUB_FILE_NUM=16
Maximum size of a physical file is 2.0 GB, maximum size of a tmp-file is 32.0 GB


--------------------------------------------------------------
User input:
--------------------------------------------------------------

$molecule
0,1
X
X,1,1.
N,2,NXC,1,90.
C,2,NXC,1,90.,3,180.,0
C,2,RC2,1,90.,3,DC2,0
C,2,RC2,1,90.,3,-DC2,0
C,2,RC3,1,90.,4,DC3,0
C,2,RC3,1,90.,4,-DC3,0
X,4,1.,2,90.,1,0.,0
H,4,RH1,9,90.,2,180.,0
H,5,RH2,3,AH2,2,180.,0
H,6,RH2,3,AH2,2,180.,0
H,7,RH3,4,AH3,2,180.,0
H,8,RH3,4,AH3,2,180.,0

NXC=1.40331232
RC2=1.34182681
RC3=1.38343024
RH1=1.08687965
RH2=1.08912453
RH3=1.08616833
AH2=115.93585371
AH3=121.29965942
DC2=58.3424315
DC3=60.04559113

$end

$comment
neutral
$end

$xc_functional
C PBE   1.00
X wPBE  1.00
$end


$rem
SYMMETRY_DECOMPOSITION	0
LRC_DFT                 true
exchange 		general
BASIS                   g3large
omega			100
mem_static              760
max_scf_cycles          200
scf_final_print         1
sym_ignore              true
$end

--------------------------------------------------------------
 Writing REM_CC_EA           11
 ----------------------------------------------------
       Standard Nuclear Orientation (Angstroms)
    I     Atom         X            Y            Z
 ----------------------------------------------------
    1      N       1.403312     0.000000     1.000000
    2      C      -1.403312     0.000000     1.000000
    3      C       0.704246     1.142163     1.000000
    4      C       0.704246    -1.142163     1.000000
    5      C      -0.690762    -1.198636     1.000000
    6      C      -0.690762     1.198636     1.000000
    7      H      -2.490192     0.000000     1.000000
    8      H       1.290959     2.059747     1.000000
    9      H       1.290959    -2.059747     1.000000
   10      H      -1.200188    -2.157931     1.000000
   11      H      -1.200188     2.157931     1.000000
 ----------------------------------------------------
 Nuclear Repulsion Energy =   205.8465956149 hartrees
 There are       21 alpha and       21 beta electrons
 Requested basis set is G3large
 There are 90 shells and 302 basis functions

Total QAlloc Memory Limit   2000 MB
Mega-Array Size       743 MB
MEM_STATIC part       760 MB

                       Distance Matrix (Angstroms)
             N (  1)   C (  2)   C (  3)   C (  4)   C (  5)   C (  6)
   C (  2)  2.806625
   C (  3)  1.339115  2.397152
   C (  4)  1.339115  2.397152  2.284326
   C (  5)  2.412856  1.394438  2.724956  1.396150
   C (  6)  2.412856  1.394438  1.396150  2.724956  2.397272
   H (  7)  3.893504  1.086880  3.392488  3.392488  2.162100  2.162100
   H (  8)  2.062809  3.391409  1.089125  3.255221  3.813696  2.160724
   H (  9)  2.062809  3.391409  3.255221  1.089125  2.160724  3.813696
   H ( 10)  3.381550  2.167469  3.810182  2.158391  1.086168  3.395004
   H ( 11)  3.381550  2.167469  2.158391  3.810182  3.395004  1.086168
             H (  7)   H (  8)   H (  9)   H ( 10)
   H (  8)  4.305770
   H (  9)  4.305770  4.119495
   H ( 10)  2.514115  4.898430  2.493081
   H ( 11)  2.514115  2.493081  4.898430  4.315861
 
 A cutoff of  1.0D-08 yielded   3653 shell pairs
 There are  42032 function pairs ( 52958 Cartesian)
Evaluating contribution to one-electron hamiltonian from nuclear
 Smallest overlap matrix eigenvalue = 6.68E-06

 Q-Chem warning in module mkSTV.C, line 194:

 Overlap eigenvalue is smaller than square root of threshold

 Multipole matrices computed through 2nd order

  Scale SEOQF with 1.000000e-01/1.000000e-01/1.000000e-01

 Standard Electronic Orientation quadrupole field applied
 Nucleus-field energy     =     0.0000000009 hartrees
 Guess from superposition of atomic densities
 Warning:  Energy on first SCF cycle will be non-variational
 Long-range K will be added via erf
 Coulomb attenuation parameter = 0.1 bohr**(-1)
 A restricted Kohn-Sham SCF calculation will be
 performed using Pulay DIIS extrapolation
 Exchange:  wPBE + LR-HF      Correlation:  PBE
 Using SG-1 standard quadrature grid
 SCF converges when DIIS error is below 1.0E-05
 Requested basis set is G3large
 There are 90 shells and 302 basis functions
 A cutoff of  1.0D-08 yielded   3653 shell pairs
 There are  42032 function pairs ( 52958 Cartesian)
 ---------------------------------------
  Cycle       Energy         DIIS Error
 ---------------------------------------
    1    -249.3566026141      2.81E-02
    2    -247.9550446759      3.02E-03
    3    -247.9470910142      3.23E-03
    4    -248.0591781174      6.60E-04
    5    -248.0626142639      2.87E-04
    6    -248.0635460934      5.73E-05
    7    -248.0635704946      3.35E-05
    8    -248.0635824422      5.04E-06 Convergence criterion met
 ---------------------------------------
 One-Electron    Energy =  -741.3775133494
 Total Coulomb   Energy =   323.0757508207
 Alpha Exchange  Energy =    -1.1711339995
 Beta  Exchange  Energy =    -1.1711339995
 DFT   Exchange  Energy =   -31.8831611232
 DFT Correlation Energy =    -1.3829864070
 Nuclear Repu.   Energy =   205.8465956158
 Nuclear Attr.   Energy =  -988.5399465783
 Kinetic         Energy =   247.1624332289
 SCF time:  CPU 309.45 s  wall 311.34 s
 Final Alpha MO Eigenvalues
            1           2           3           4           5           6
    1 -14.0371446  -9.9753231  -9.9751302  -9.9637611  -9.9546278  -9.9545311
            7           8           9          10          11          12
    1  -0.9227524  -0.7937318  -0.7527175  -0.6308792  -0.6283740  -0.5376435
           13          14          15          16          17          18
    1  -0.4915015  -0.4793711  -0.4405585  -0.4219962  -0.4162137  -0.3786954
           19          20          21          22          23          24
    1  -0.3227958  -0.2999419  -0.2725632  -0.0177143  -0.0049727   0.0186431
           25          26
    1   0.0332106   0.0400839
 Analysis of SCF Wavefunction
 
 --------------------------------------------------------------
                    Orbital Energies (a.u.)
 --------------------------------------------------------------
 
 Alpha MOs
 -- Occupied --
-14.037  -9.975  -9.975  -9.964  -9.955  -9.955  -0.923  -0.794
 -0.753  -0.631  -0.628  -0.538  -0.492  -0.479  -0.441  -0.422
 -0.416  -0.379  -0.323  -0.300  -0.273
 -- Virtual --
 -0.018  -0.005   0.019   0.033   0.040   0.057   0.066   0.085
  0.091   0.112   0.113   0.117   0.123   0.131   0.136   0.137
  0.141   0.148   0.166   0.170   0.170   0.176   0.177   0.180
  0.182   0.231   0.241   0.241   0.251   0.262   0.273   0.290
  0.290   0.300   0.312   0.314   0.326   0.346   0.368   0.371
  0.373   0.450   0.477   0.494   0.521   0.530   0.538   0.541
  0.542   0.555   0.574   0.581   0.610   0.622   0.623   0.628
  0.639   0.652   0.667   0.693   0.700   0.710   0.731   0.732
  0.773   0.777   0.784   0.790   0.805   0.808   0.813   0.815
  0.842   0.901   0.929   0.942   0.960   0.966   1.019   1.044
  1.050   1.065   1.110   1.112   1.129   1.174   1.182   1.204
  1.266   1.278   1.278   1.310   1.318   1.325   1.349   1.357
  1.386   1.395   1.401   1.407   1.448   1.450   1.484   1.584
  1.647   1.658   1.708   1.737   1.739   1.794   1.853   1.864
  1.969   1.976   2.037   2.057   2.211   2.470   2.481   2.539
  2.543   2.570   2.591   2.627   2.647   2.659   2.674   2.721
  2.736   2.762   2.774   2.777   2.804   2.804   2.812   2.830
  2.843   2.849   2.896   2.974   2.979   3.031   3.071   3.081
  3.091   3.096   3.140   3.145   3.151   3.163   3.181   3.204
  3.207   3.230   3.252   3.274   3.303   3.307   3.336   3.358
  3.374   3.400   3.402   3.425   3.461   3.515   3.530   3.538
  3.569   3.573   3.588   3.634   3.674   3.713   3.773   3.775
  3.778   3.795   3.837   3.862   3.897   3.943   3.956   3.991
  4.030   4.059   4.068   4.095   4.116   4.218   4.230   4.241
  4.330   4.336   4.343   4.394   4.443   4.445   4.475   4.479
  4.527   4.548   4.553   4.678   4.766   4.822   4.904   4.974
  4.990   5.020   5.061   5.079   5.210   5.211   5.211   5.295
  5.403   5.446   5.630   5.650   5.712   5.774   5.889   5.902
  6.020   6.126   6.694  23.731  24.084  24.286  24.464  24.734
 27.062  27.139  27.186  27.256  27.423  27.766  27.887  27.919
 28.055  28.101  28.110  28.301  28.314  28.349  28.661  35.750
 37.310  37.726  38.334  40.400  40.475  40.495  40.531  40.636
 40.665  40.706  40.724  40.789  40.800  40.855  40.882  40.893
 40.940  40.958  40.981  40.982  40.995  41.007  41.020  41.025
 41.027  41.031  41.033  41.050  41.089  41.183  41.221  41.256
 41.333
 --------------------------------------------------------------
 
          Ground-State Mulliken Net Atomic Charges

     Atom                 Charge (a.u.)
  ----------------------------------------
      1 N                    -0.175105
      2 C                    -0.210345
      3 C                    -0.232587
      4 C                    -0.233052
      5 C                    -0.005929
      6 C                    -0.005864
      7 H                     0.178843
      8 H                     0.177481
      9 H                     0.177574
     10 H                     0.164475
     11 H                     0.164508
  ----------------------------------------
  Sum of atomic charges =     0.000000

 -----------------------------------------------------------------
                    Cartesian Multipole Moments
 -----------------------------------------------------------------
    Charge (ESU x 10^10)
                 0.0000
    Dipole Moment (Debye)
         X      -2.2583      Y       0.0026      Z       0.0000
       Tot       2.2583
    Quadrupole Moments (Debye-Ang)
        XX     -36.6435     XY       0.0007     YY     -29.7273
        XZ      -2.2582     YZ       0.0027     ZZ     -37.9393
    Octapole Moments (Debye-Ang^2)
       XXX     -13.8763    XXY      -0.0001    XYY       2.3516
       YYY       0.0012    XXZ     -36.6434    XYZ       0.0007
       YYZ     -29.7273    XZZ      -0.3474    YZZ       0.0036
       ZZZ    -113.8180
    Hexadecapole Moments (Debye-Ang^3)
      XXXX    -291.9094   XXXY       0.0002   XXYY     -82.5588
      XYYY       0.0007   YYYY    -257.7559   XXXZ     -13.8763
      XXYZ      -0.0001   XYYZ       2.3515   YYYZ       0.0013
      XXZZ     -95.2413   XYZZ       0.0011   YYZZ     -89.6829
      XZZZ       3.4744   YZZZ       0.0056   ZZZZ    -271.3474
 -----------------------------------------------------------------
 Total job time:  311.83s(wall), 309.91s(cpu) 
 Wed Apr 24 16:40:45 2013

        *************************************************************
        *                                                           *
        *  Thank you very much for using Q-Chem.  Have a nice day.  *
        *                                                           *
        *************************************************************


0 sent ACK to 0 
now end server 0 ... 
 
**********************************************************************
Job 3 of 3 
**********************************************************************
 
Process 0 of 1 is on cl227.stfx.acenet.ca - thread support 1
initial socket setup ...start
initial socket setup ...done 
now start server 0 ... 

cmd = /usr/bin/ssh clhead /usr/local/qchem/bin/get_hostid 1265729541 > /scratch/tmp/5955270.1.long.q/qchem9428/lic.dat
                  Welcome to Q-Chem
     A Quantum Leap Into The Future Of Chemistry

 Y. Shao, L. Fusti-Molnar, Y. Jung, J. Kussmann, C. Ochsenfeld,
 S. T. Brown, A. T. B. Gilbert, L. V. Slipchenko,S. V. Levchenko,
 D. P. O'Neill, R. A. DiStasio Jr., R. C. Lochan, T. Wang,
 G. J. O. Beran, N. A. Besley, J. M. Herbert, C. Y. Lin,
 T. Van Voorhis, S. H. Chien, A. Sodt, R. P. Steele, 
 V. A. Rassolov, P. E. Maslen, P. P. Korambath, R. D. Adamson,
 B. Austin, J. Baker, E. F. C. Byrd, H. Dachsel, R. J. Doerksen,
 A. Dreuw, B. D. Dunietz, A. D. Dutoi, T. R. Furlani,
 S. R. Gwaltney, A. Heyden, S. Hirata, C.-P. Hsu, G. Kedziora,
 R. Z. Khaliullin, P. Klunzinger, A. M. Lee, M. S. Lee, W. Liang,
 I. Lotan, N. Nair, B. Peters, E. I. Proynov, P. A. Pieniazek, 
 Y. M. Rhee, J. Ritchie, E. Rosta, C. D. Sherrill, 
 A. C. Simmonett, J. E. Subotnik, H. L. Woodcock III,
 W. Zhang, A. T. Bell, A. K. Chakraborty, D. M. Chipman,
 F. J. Keil, A. Warshel, W. J. Hehre, H. F. Schaefer III,
 J. Kong, A. I. Krylov, P. M. W. Gill, M. Head-Gordon,
 Q-Chem, Version 3.1, Q-Chem, Inc., Pittsburgh, PA (2007).

 Additional authors for Version 3.1: 
 Z. Gan, Y. Zhao, N. E. Schultz, D. Truhlar, E. Epifanovsky and M. Oana.

 Additional authors for Version 3.2: 
 R. Baer, B. R. Brooks, D. Casanova, J.-D. Chai, C.-L. Cheng, 
 C. Cramer, D. Crittenden, A. Ghysels, G. Hawkins, E. G. Hohenstein, 
 C. Kelley, W. Kurlancheek, D. Liotard, E. Livshits, P. Manohar, 
 A. Marenich, D. Neuhauser, R. Olson, M. A. Rohrdanz, K. S. Thanthiriwatte, 
 A. J. W. Thom, V. Vanovschi, C. F. Williams, Q. Wu and Z.-Q. You. 


 Intel X86 Linux Version

 Q-chem begins on Wed Apr 24 16:40:47 2013  

 Parallel job on  1  processors
Processing $rem in /usr/local/qchem/config/preferences.

theFileMan(): MAXOPENFILES=974 MAX_SUB_FILE_NUM=16
Maximum size of a physical file is 2.0 GB, maximum size of a tmp-file is 32.0 GB


--------------------------------------------------------------
User input:
--------------------------------------------------------------

$molecule
1,2
X
X,1,1.
N,2,NXC,1,90.
C,2,NXC,1,90.,3,180.,0
C,2,RC2,1,90.,3,DC2,0
C,2,RC2,1,90.,3,-DC2,0
C,2,RC3,1,90.,4,DC3,0
C,2,RC3,1,90.,4,-DC3,0
X,4,1.,2,90.,1,0.,0
H,4,RH1,9,90.,2,180.,0
H,5,RH2,3,AH2,2,180.,0
H,6,RH2,3,AH2,2,180.,0
H,7,RH3,4,AH3,2,180.,0
H,8,RH3,4,AH3,2,180.,0

NXC=1.40331232
RC2=1.34182681
RC3=1.38343024
RH1=1.08687965
RH2=1.08912453
RH3=1.08616833
AH2=115.93585371
AH3=121.29965942
DC2=58.3424315
DC3=60.04559113

$end

$comment
positive
$end

$xc_functional
C PBE   1.00
X wPBE  1.00
$end

$rem
SYMMETRY_DECOMPOSITION	0
LRC_DFT                 true
exchange 		general
BASIS                   g3large
omega			100
mem_static              760
max_scf_cycles          200
scf_final_print         1
sym_ignore              true
$end

--------------------------------------------------------------
 Writing REM_CC_EA           11
 ----------------------------------------------------
       Standard Nuclear Orientation (Angstroms)
    I     Atom         X            Y            Z
 ----------------------------------------------------
    1      N       1.403312     0.000000     1.000000
    2      C      -1.403312     0.000000     1.000000
    3      C       0.704246     1.142163     1.000000
    4      C       0.704246    -1.142163     1.000000
    5      C      -0.690762    -1.198636     1.000000
    6      C      -0.690762     1.198636     1.000000
    7      H      -2.490192     0.000000     1.000000
    8      H       1.290959     2.059747     1.000000
    9      H       1.290959    -2.059747     1.000000
   10      H      -1.200188    -2.157931     1.000000
   11      H      -1.200188     2.157931     1.000000
 ----------------------------------------------------
 Nuclear Repulsion Energy =   205.8465956149 hartrees
 There are       21 alpha and       20 beta electrons
 Requested basis set is G3large
 There are 90 shells and 302 basis functions

Total QAlloc Memory Limit   2000 MB
Mega-Array Size       743 MB
MEM_STATIC part       760 MB

                       Distance Matrix (Angstroms)
             N (  1)   C (  2)   C (  3)   C (  4)   C (  5)   C (  6)
   C (  2)  2.806625
   C (  3)  1.339115  2.397152
   C (  4)  1.339115  2.397152  2.284326
   C (  5)  2.412856  1.394438  2.724956  1.396150
   C (  6)  2.412856  1.394438  1.396150  2.724956  2.397272
   H (  7)  3.893504  1.086880  3.392488  3.392488  2.162100  2.162100
   H (  8)  2.062809  3.391409  1.089125  3.255221  3.813696  2.160724
   H (  9)  2.062809  3.391409  3.255221  1.089125  2.160724  3.813696
   H ( 10)  3.381550  2.167469  3.810182  2.158391  1.086168  3.395004
   H ( 11)  3.381550  2.167469  2.158391  3.810182  3.395004  1.086168
             H (  7)   H (  8)   H (  9)   H ( 10)
   H (  8)  4.305770
   H (  9)  4.305770  4.119495
   H ( 10)  2.514115  4.898430  2.493081
   H ( 11)  2.514115  2.493081  4.898430  4.315861
 
 A cutoff of  1.0D-08 yielded   3653 shell pairs
 There are  42032 function pairs ( 52958 Cartesian)
Evaluating contribution to one-electron hamiltonian from nuclear
 Smallest overlap matrix eigenvalue = 6.68E-06

 Q-Chem warning in module mkSTV.C, line 194:

 Overlap eigenvalue is smaller than square root of threshold

 Multipole matrices computed through 2nd order

  Scale SEOQF with 1.000000e-01/1.000000e-01/1.000000e-01

 Standard Electronic Orientation quadrupole field applied
 Nucleus-field energy     =     0.0000000009 hartrees
 Guess from superposition of atomic densities
 Warning:  Energy on first SCF cycle will be non-variational
 Long-range K will be added via erf
 Coulomb attenuation parameter = 0.1 bohr**(-1)
 An unrestricted Kohn-Sham SCF calculation will be
 performed using Pulay DIIS extrapolation
 Exchange:  wPBE + LR-HF      Correlation:  PBE
 Using SG-1 standard quadrature grid
 SCF converges when DIIS error is below 1.0E-05
 Requested basis set is G3large
 There are 90 shells and 302 basis functions
 A cutoff of  1.0D-08 yielded   3653 shell pairs
 There are  42032 function pairs ( 52958 Cartesian)
 Warning!  Inaccurate integrated density:
   Number of electrons =    41
   Numerical integral  =    42.000558105021
   Relative error      =     2.4403856220 %
 ---------------------------------------
  Cycle       Energy         DIIS Error
 ---------------------------------------
    1    -249.3566026141      2.81E-02
    2    -247.6420384366      2.40E-03
    3    -247.5877035796      3.37E-03
    4    -247.6967255172      9.34E-04
    5    -247.7065842200      3.30E-04
    6    -247.7085052102      1.15E-04
    7    -247.7096123170      1.42E-04
    8    -247.7099580006      1.39E-04
    9    -247.7108763075      1.51E-04
   10    -247.7082472924      1.60E-04
   11    -247.7112330861      1.76E-04
   12    -247.7110167607      1.70E-04
   13    -247.7120315042      1.79E-04
   14    -247.7119828601      1.41E-04
   15    -247.7119849824      1.41E-04
   16    -247.7119891410      1.40E-04
   17    -247.7129147951      1.76E-04
   18    -247.7136938414      1.68E-04
   19    -247.7145857062      1.48E-04
   20    -247.7163233211      9.17E-05
   21    -247.7176740059      2.78E-05
   22    -247.7180086985      4.37E-05
   23    -247.7184400843      1.70E-05
   24    -247.7187357022      3.87E-05
   25    -247.7187543880      2.93E-05
   26    -247.7188082413      5.66E-05
   27    -247.7188250073      5.02E-05
   28    -247.7188866285      4.23E-05
   29    -247.7189476796      2.97E-05
   30    -247.7189830393      2.63E-05
   31    -247.7190157120      1.81E-05
   32    -247.7190201386      1.92E-05
   33    -247.7190280474      1.03E-05
   34    -247.7190473388      2.26E-05
   35    -247.7190504713      2.07E-05
   36    -247.7190589221      1.98E-05
   37    -247.7190689368      1.67E-05
   38    -247.7190711016      9.10E-06 Convergence criterion met
 ---------------------------------------
 One-Electron    Energy =  -731.3678630594
 Total Coulomb   Energy =   313.0717618018
 Alpha Exchange  Energy =    -1.1719512202
 Beta  Exchange  Energy =    -1.1148957462
 DFT   Exchange  Energy =   -31.6374662231
 DFT Correlation Energy =    -1.3452522703
 Nuclear Repu.   Energy =   205.8465956158
 Nuclear Attr.   Energy =  -978.1481361172
 Kinetic         Energy =   246.7802730577
 <S^2> = 0.7545
 SCF time:  CPU 1832.41 s  wall 1840.54 s
 Final Alpha MO Eigenvalues
            1           2           3           4           5           6
    1 -14.3656622 -10.2240032 -10.2239638 -10.1840473 -10.1840056 -10.1816948
            7           8           9          10          11          12
    1  -1.1974826  -1.0252639  -0.9920127  -0.8731547  -0.8596282  -0.7712075
           13          14          15          16          17          18
    1  -0.7328673  -0.6956879  -0.6698414  -0.6666956  -0.6606274  -0.6019624
           19          20          21          22          23          24
    1  -0.5744074  -0.5547783  -0.5231620  -0.2516109  -0.2234398  -0.1221498
           25          26
    1  -0.0952464  -0.0902210
 Final Beta MO Eigenvalues
            1           2           3           4           5           6
    1 -14.3508470 -10.2230846 -10.2230533 -10.1824502 -10.1823491 -10.1818565
            7           8           9          10          11          12
    1  -1.1795413  -1.0186509  -0.9858535  -0.8658892  -0.8509795  -0.7582245
           13          14          15          16          17          18
    1  -0.7252558  -0.6904369  -0.6612985  -0.6602989  -0.6332634  -0.5982120
           19          20          21          22          23          24
    1  -0.5496190  -0.5227606  -0.4120132  -0.2447744  -0.2227442  -0.1204576
           25
    1  -0.0941954
 Analysis of SCF Wavefunction
 
 --------------------------------------------------------------
                    Orbital Energies (a.u.)
 --------------------------------------------------------------
 
 Alpha MOs
 -- Occupied --
-14.366 -10.224 -10.224 -10.184 -10.184 -10.182  -1.197  -1.025
 -0.992  -0.873  -0.860  -0.771  -0.733  -0.696  -0.670  -0.667
 -0.661  -0.602  -0.574  -0.555  -0.523
 -- Virtual --
 -0.252  -0.223  -0.122  -0.095  -0.090  -0.089  -0.077  -0.069
 -0.064  -0.061  -0.030  -0.025  -0.022  -0.015  -0.004   0.002
  0.011   0.013   0.018   0.019   0.030   0.030   0.038   0.043
  0.047   0.065   0.068   0.094   0.094   0.106   0.110   0.119
  0.121   0.130   0.138   0.147   0.154   0.181   0.203   0.204
  0.210   0.237   0.297   0.307   0.322   0.327   0.353   0.353
  0.361   0.361   0.377   0.378   0.421   0.437   0.439   0.442
  0.442   0.460   0.485   0.494   0.508   0.512   0.533   0.550
  0.580   0.586   0.592   0.594   0.599   0.613   0.619   0.630
  0.634   0.671   0.714   0.725   0.757   0.763   0.823   0.847
  0.856   0.859   0.907   0.908   0.920   0.985   0.992   0.994
  1.046   1.067   1.076   1.112   1.114   1.126   1.135   1.160
  1.161   1.181   1.186   1.191   1.246   1.251   1.294   1.375
  1.413   1.449   1.499   1.510   1.532   1.584   1.638   1.640
  1.765   1.768   1.798   1.800   1.950   2.239   2.275   2.313
  2.317   2.357   2.369   2.410   2.424   2.431   2.460   2.500
  2.517   2.526   2.548   2.560   2.583   2.587   2.587   2.610
  2.617   2.627   2.665   2.741   2.744   2.778   2.839   2.841
  2.866   2.868   2.909   2.912   2.925   2.941   2.960   2.976
  2.977   3.003   3.033   3.053   3.064   3.075   3.113   3.132
  3.147   3.164   3.177   3.201   3.243   3.275   3.296   3.307
  3.330   3.340   3.351   3.407   3.435   3.490   3.547   3.550
  3.557   3.576   3.578   3.643   3.667   3.701   3.729   3.739
  3.822   3.828   3.833   3.880   3.889   3.972   4.009   4.011
  4.078   4.105   4.121   4.169   4.213   4.216   4.246   4.258
  4.300   4.319   4.330   4.430   4.529   4.579   4.663   4.699
  4.731   4.754   4.802   4.838   4.910   4.942   4.951   5.027
  5.140   5.209   5.375   5.395   5.451   5.524   5.618   5.628
  5.753   5.900   6.424  23.504  23.849  24.051  24.222  24.501
 26.831  26.899  26.952  27.020  27.194  27.533  27.652  27.682
 27.824  27.858  27.865  28.072  28.087  28.114  28.428  35.424
 36.989  37.384  38.014  40.068  40.138  40.178  40.205  40.312
 40.428  40.462  40.495  40.542  40.571  40.630  40.634  40.668
 40.700  40.718  40.748  40.749  40.755  40.765  40.780  40.785
 40.792  40.796  40.808  40.823  40.863  40.941  40.983  41.001
 41.108
 
 Beta MOs
 -- Occupied --
-14.351 -10.223 -10.223 -10.182 -10.182 -10.182  -1.180  -1.019
 -0.986  -0.866  -0.851  -0.758  -0.725  -0.690  -0.661  -0.660
 -0.633  -0.598  -0.550  -0.523
 -- Virtual --
 -0.412  -0.245  -0.223  -0.120  -0.094  -0.088  -0.085  -0.075
 -0.068  -0.062  -0.060  -0.027  -0.025  -0.021  -0.014  -0.003
  0.004   0.013   0.015   0.018   0.020   0.030   0.031   0.039
  0.045   0.050   0.072   0.072   0.095   0.097   0.107   0.113
  0.121   0.123   0.134   0.140   0.157   0.157   0.187   0.206
  0.206   0.212   0.239   0.302   0.311   0.329   0.331   0.353
  0.354   0.362   0.363   0.379   0.382   0.422   0.438   0.443
  0.443   0.445   0.464   0.487   0.495   0.510   0.515   0.537
  0.553   0.581   0.588   0.594   0.601   0.604   0.615   0.622
  0.632   0.640   0.685   0.732   0.741   0.766   0.768   0.825
  0.848   0.857   0.862   0.910   0.912   0.924   0.988   0.997
  0.999   1.052   1.075   1.081   1.115   1.120   1.129   1.138
  1.163   1.174   1.182   1.194   1.198   1.251   1.253   1.298
  1.380   1.429   1.456   1.507   1.514   1.535   1.587   1.649
  1.654   1.768   1.772   1.814   1.821   1.974   2.244   2.278
  2.317   2.321   2.361   2.376   2.410   2.426   2.433   2.462
  2.506   2.521   2.533   2.556   2.563   2.588   2.589   2.590
  2.612   2.622   2.628   2.671   2.745   2.750   2.785   2.848
  2.850   2.867   2.872   2.915   2.919   2.927   2.944   2.964
  2.982   2.987   3.007   3.037   3.059   3.077   3.083   3.117
  3.140   3.149   3.171   3.179   3.205   3.246   3.284   3.310
  3.312   3.337   3.346   3.361   3.412   3.447   3.496   3.551
  3.555   3.561   3.581   3.589   3.649   3.676   3.714   3.736
  3.753   3.828   3.839   3.843   3.885   3.895   3.988   4.018
  4.019   4.088   4.112   4.125   4.173   4.220   4.224   4.252
  4.261   4.304   4.327   4.334   4.445   4.537   4.595   4.673
  4.708   4.765   4.808   4.816   4.842   4.942   4.956   4.983
  5.054   5.160   5.221   5.400   5.419   5.470   5.542   5.643
  5.648   5.775   5.909   6.443  23.505  23.851  24.052  24.224
 24.503  26.832  26.899  26.952  27.021  27.194  27.536  27.655
 27.684  27.825  27.859  27.866  28.074  28.089  28.115  28.431
 35.440  37.000  37.422  38.023  40.094  40.169  40.184  40.224
 40.338  40.430  40.466  40.495  40.542  40.572  40.632  40.635
 40.668  40.700  40.720  40.749  40.750  40.755  40.765  40.784
 40.789  40.794  40.799  40.809  40.824  40.865  40.944  40.986
 41.005  41.110
 --------------------------------------------------------------
 
          Ground-State Mulliken Net Atomic Charges

     Atom                 Charge (a.u.)    Spin (a.u.)
  --------------------------------------------------------
      1 N                     0.139707       0.703995
      2 C                    -0.139506      -0.019717
      3 C                    -0.174357       0.020637
      4 C                    -0.174765       0.020249
      5 C                     0.085925       0.087102
      6 C                     0.085657       0.086653
      7 H                     0.235589       0.020305
      8 H                     0.244345       0.027817
      9 H                     0.244370       0.027856
     10 H                     0.226571       0.012544
     11 H                     0.226464       0.012559
  --------------------------------------------------------
  Sum of atomic charges =     1.000000
  Sum of spin   charges =     1.000000

 -----------------------------------------------------------------
                    Cartesian Multipole Moments
 -----------------------------------------------------------------
    Charge (ESU x 10^10)
                 4.8032
    Dipole Moment (Debye)
         X      -0.4692      Y       0.0000      Z       4.8025
       Tot       4.8253
    Quadrupole Moments (Debye-Ang)
        XX     -21.1035     XY      -0.0002     YY     -18.0849
        XZ      -0.4714     YZ       0.0283     ZZ     -29.9736
    Octapole Moments (Debye-Ang^2)
       XXX      -5.6652    XXY       0.0001    XYY       2.8566
       YYY       0.0001    XXZ     -21.1083    XYZ       0.0087
       YYZ     -18.0848    XZZ       1.5123    YZZ       0.0564
       ZZZ     -99.5258
    Hexadecapole Moments (Debye-Ang^3)
      XXXX    -203.5304   XXXY      -0.0002   XXYY     -58.2072
      XYYY       0.0006   YYYY    -187.1406   XXXZ      -5.6788
      XXYZ       0.1061   XYYZ       2.8589   YYYZ       0.2206
      XXZZ     -70.9523   XYZZ       0.0180   YYZZ     -70.5554
      XZZZ       5.4800   YZZZ       0.1187   ZZZZ    -239.2245
 -----------------------------------------------------------------
 Total job time:  1841.04s(wall), 1832.87s(cpu) 
 Wed Apr 24 17:11:28 2013

        *************************************************************
        *                                                           *
        *  Thank you very much for using Q-Chem.  Have a nice day.  *
        *                                                           *
        *************************************************************


0 sent ACK to 0 
now end server 0 ... 
