Process 0 of 1 is on cl148.stfx.acenet.ca - thread support 1
initial socket setup ...start
initial socket setup ...done 
now start server 0 ... 

cmd = /usr/bin/ssh clhead /usr/local/qchem/bin/get_hostid 622018964 > /globalscratch/itamblyn/bnl/g297_b3lyp_neut_g03Large_worked/g2g71069/omega420/qchem23153/lic.dat
                  Welcome to Q-Chem
     A Quantum Leap Into The Future Of Chemistry

 Y. Shao, L. Fusti-Molnar, Y. Jung, J. Kussmann, C. Ochsenfeld,
 S. T. Brown, A. T. B. Gilbert, L. V. Slipchenko,S. V. Levchenko,
 D. P. O'Neill, R. A. DiStasio Jr., R. C. Lochan, T. Wang,
 G. J. O. Beran, N. A. Besley, J. M. Herbert, C. Y. Lin,
 T. Van Voorhis, S. H. Chien, A. Sodt, R. P. Steele, 
 V. A. Rassolov, P. E. Maslen, P. P. Korambath, R. D. Adamson,
 B. Austin, J. Baker, E. F. C. Byrd, H. Dachsel, R. J. Doerksen,
 A. Dreuw, B. D. Dunietz, A. D. Dutoi, T. R. Furlani,
 S. R. Gwaltney, A. Heyden, S. Hirata, C.-P. Hsu, G. Kedziora,
 R. Z. Khaliullin, P. Klunzinger, A. M. Lee, M. S. Lee, W. Liang,
 I. Lotan, N. Nair, B. Peters, E. I. Proynov, P. A. Pieniazek, 
 Y. M. Rhee, J. Ritchie, E. Rosta, C. D. Sherrill, 
 A. C. Simmonett, J. E. Subotnik, H. L. Woodcock III,
 W. Zhang, A. T. Bell, A. K. Chakraborty, D. M. Chipman,
 F. J. Keil, A. Warshel, W. J. Hehre, H. F. Schaefer III,
 J. Kong, A. I. Krylov, P. M. W. Gill, M. Head-Gordon,
 Q-Chem, Version 3.1, Q-Chem, Inc., Pittsburgh, PA (2007).

 Additional authors for Version 3.1: 
 Z. Gan, Y. Zhao, N. E. Schultz, D. Truhlar, E. Epifanovsky and M. Oana.

 Additional authors for Version 3.2: 
 R. Baer, B. R. Brooks, D. Casanova, J.-D. Chai, C.-L. Cheng, 
 C. Cramer, D. Crittenden, A. Ghysels, G. Hawkins, E. G. Hohenstein, 
 C. Kelley, W. Kurlancheek, D. Liotard, E. Livshits, P. Manohar, 
 A. Marenich, D. Neuhauser, R. Olson, M. A. Rohrdanz, K. S. Thanthiriwatte, 
 A. J. W. Thom, V. Vanovschi, C. F. Williams, Q. Wu and Z.-Q. You. 


 Intel X86 Linux Version

 Q-chem begins on Fri Apr 15 15:40:19 2011  

 Parallel job on  1  processors
Processing $rem in /usr/local/qchem/config/preferences.

theFileMan(): MAXOPENFILES=974 MAX_SUB_FILE_NUM=16
Maximum size of a physical file is 2.0 GB, maximum size of a tmp-file is 32.0 GB


--------------------------------------------------------------
User input:
--------------------------------------------------------------

$molecule
-1,2
O
O,1,r
O,2,r,1,a

 r=1.26435929
 a=117.92287929

$end

$comment
negative
$end

$xc_functional
   X HF 1.0
   X BNL 1.0
   C LYP 1.0
$end

$rem
SYMMETRY_DECOMPOSITION	0
exchange 		general
BASIS                   g3large
omega			420
separate_jk		true
mem_static              760
max_scf_cycles          200
scf_final_print         1
sym_ignore              true
$end

--------------------------------------------------------------
 Writing REM_CC_EA            3
 ----------------------------------------------------
       Standard Nuclear Orientation (Angstroms)
    I     Atom         X            Y            Z
 ----------------------------------------------------
    1      O       0.000000     0.000000     0.000000
    2      O       0.000000     0.000000     1.264359
    3      O       1.117161     0.000000     1.856437
 ----------------------------------------------------
 Nuclear Repulsion Energy =    69.2034819064 hartrees
 There are       13 alpha and       12 beta electrons
 Requested basis set is G3large
 There are 30 shells and 126 basis functions

Total QAlloc Memory Limit   2000 MB
Mega-Array Size       743 MB
MEM_STATIC part       760 MB

                       Distance Matrix (Angstroms)
             O (  1)   O (  2)
   O (  2)  1.264359
   O (  3)  2.166658  1.264359
 
 A cutoff of  1.0D-08 yielded    433 shell pairs
 There are   7808 function pairs ( 10265 Cartesian)
Evaluating contribution to one-electron hamiltonian from nuclear
 Smallest overlap matrix eigenvalue = 6.16E-04
 Multipole matrices computed through 2nd order

  Scale SEOQF with 1.000000e-01/1.000000e+00/1.000000e-01

 Standard Electronic Orientation quadrupole field applied
 Nucleus-field energy     =    -0.0000000040 hartrees
 Guess from superposition of atomic densities
 Warning:  Energy on first SCF cycle will be non-variational
 An unrestricted hybrid HF-DFT SCF calculation will be
 performed using Pulay DIIS extrapolation
 Exchange:     1.0000 Hartree-Fock + 1.0000 BNL
 Correlation:  1.0000 LYP
 Using SG-1 standard quadrature grid
 SCF converges when DIIS error is below 1.0E-05
 Warning!  Inaccurate integrated density:
   Number of electrons =    25
   Numerical integral  =    23.999914857071
   Relative error      =    -4.0003405717 %
 ---------------------------------------
  Cycle       Energy         DIIS Error
 ---------------------------------------
    1    -223.6862277620      3.66E-02
    2    -223.4756323280      8.71E-03
    3    -223.4656581899      1.03E-02
    4    -223.5941757310      1.16E-03
    5    -223.5961668488      4.44E-04
    6    -223.5966651674      2.67E-04
    7    -223.5968939327      1.25E-04
    8    -223.5969993745      4.80E-05
    9    -223.5970758102      2.74E-05
   10    -223.5971226926      9.72E-06 Convergence criterion met
 ---------------------------------------
 One-Electron    Energy =  -454.0003404341
 Total Coulomb   Energy =   185.0201775925
 Alpha Exchange  Energy =    -2.7846655140
 Beta  Exchange  Energy =    -2.5403928194
 DFT   Exchange  Energy =   -17.5866312689
 DFT Correlation Energy =    -0.9087521512
 Nuclear Repu.   Energy =    69.2034819024
 Nuclear Attr.   Energy =  -677.2327643692
 Kinetic         Energy =   223.2324239351
 <S^2> = 0.7530
 SCF time:  CPU 29.68 s  wall 41.69 s
 Final Alpha MO Eigenvalues
            1           2           3           4           5           6
    1 -18.7349625 -18.5725714 -18.5725129  -1.1712525  -0.9081578  -0.5967092
            7           8           9          10          11          12
    1  -0.4440325  -0.4156776  -0.4069825  -0.2133592  -0.1653178  -0.1558592
           13          14          15          16          17          18
    1  -0.0941123   0.3463018   0.3484009   0.3496300   0.3960207   0.4288388
 Final Beta MO Eigenvalues
            1           2           3           4           5           6
    1 -18.7195327 -18.5641631 -18.5640791  -1.1519954  -0.8924943  -0.5667144
            7           8           9          10          11          12
    1  -0.4023584  -0.3913875  -0.3868006  -0.1556403  -0.1434990  -0.1404371
           13          14          15          16          17
    1   0.2538240   0.3473631   0.3505044   0.3513868   0.4019321
 Analysis of SCF Wavefunction
 
 --------------------------------------------------------------
                    Orbital Energies (a.u.)
 --------------------------------------------------------------
 
 Alpha MOs
 -- Occupied --
-18.735 -18.573 -18.573  -1.171  -0.908  -0.597  -0.444  -0.416
 -0.407  -0.213  -0.165  -0.156  -0.094
 -- Virtual --
  0.346   0.348   0.350   0.396   0.429   0.441   0.449   0.464
  0.499   0.515   0.550   0.581   0.620   0.628   1.191   1.278
  1.286   1.304   1.327   1.354   1.379   1.389   1.438   1.542
  1.577   1.594   1.658   1.774   1.839   1.895   1.905   1.936
  1.974   2.268   2.438   2.535   2.643   2.652   2.740   2.893
  2.942   4.637   4.750   4.752   4.871   4.895   4.905   4.927
  5.102   5.142   5.203   5.247   5.263   5.283   5.307   5.400
  5.402   5.407   5.433   5.458   5.524   5.529   5.800   5.857
  6.026   6.454   6.842   6.906   7.016   7.043   7.084   7.085
  7.143   7.176   7.191   7.224   7.290   7.413   7.553   7.591
  7.665   7.689   7.793   8.184   8.350   8.602  43.805  43.839
 43.882  43.888  43.892  43.930  43.968  43.973  43.985  43.999
 44.014  44.046  44.054  44.170  44.234  45.756  45.810  45.844
 45.965  46.008  46.012  46.019  47.002  47.762  50.265  50.359
 50.402
 
 Beta MOs
 -- Occupied --
-18.720 -18.564 -18.564  -1.152  -0.892  -0.567  -0.402  -0.391
 -0.387  -0.156  -0.143  -0.140
 -- Virtual --
  0.254   0.347   0.351   0.351   0.402   0.430   0.442   0.451
  0.474   0.501   0.516   0.566   0.583   0.623   0.641   1.196
  1.284   1.307   1.310   1.332   1.361   1.396   1.411   1.443
  1.549   1.593   1.614   1.669   1.784   1.850   1.903   1.920
  1.957   1.996   2.272   2.458   2.553   2.655   2.672   2.747
  2.901   2.950   4.662   4.759   4.768   4.884   4.917   4.919
  4.944   5.120   5.181   5.214   5.273   5.291   5.299   5.329
  5.414   5.420   5.427   5.453   5.479   5.539   5.547   5.813
  5.881   6.045   6.464   6.874   6.938   7.047   7.072   7.101
  7.113   7.167   7.210   7.228   7.258   7.304   7.423   7.576
  7.619   7.694   7.698   7.806   8.196   8.365   8.617  43.843
 43.876  43.907  43.912  43.929  43.946  43.991  43.997  43.997
 44.012  44.037  44.062  44.068  44.183  44.247  45.782  45.819
 45.851  45.982  46.014  46.026  46.034  47.010  47.771  50.278
 50.375  50.412
 --------------------------------------------------------------
 
          Ground-State Mulliken Net Atomic Charges

     Atom                 Charge (a.u.)    Spin (a.u.)
  --------------------------------------------------------
      1 O                    -0.547491       0.312648
      2 O                     0.094862       0.374659
      3 O                    -0.547370       0.312693
  --------------------------------------------------------
  Sum of atomic charges =    -1.000000
  Sum of spin   charges =     1.000000

 -----------------------------------------------------------------
                    Cartesian Multipole Moments
 -----------------------------------------------------------------
    Charge (ESU x 10^10)
                -4.8032
    Dipole Moment (Debye)
         X      -2.8104      Y      -0.0003      Z      -4.3816
       Tot       5.2055
    Quadrupole Moments (Debye-Ang)
        XX     -23.2215     XY      -0.0020     YY     -18.5774
        XZ      -5.4906     YZ       0.0003     ZZ     -28.6764
    Octapole Moments (Debye-Ang^2)
       XXX     -27.2279    XXY      -0.0023    XYY      -7.7329
       YYY      -0.0011    XXZ     -25.8904    XYZ      -0.0016
       YYZ     -18.8349    XZZ     -18.3234    YZZ       0.0008
       ZZZ     -79.1762
    Hexadecapole Moments (Debye-Ang^3)
      XXXX     -76.1663   XXXY      -0.0058   XXYY     -15.5315
      XYYY      -0.0027   YYYY     -18.3273   XXXZ     -48.4801
      XXYZ      -0.0028   XYYZ     -14.5178   YYYZ      -0.0005
      XXZZ     -58.8550   XYZZ      -0.0032   YYZZ     -38.4867
      XZZZ     -63.1509   YZZZ       0.0022   ZZZZ    -254.7426
 -----------------------------------------------------------------
 Total job time:  44.54s(wall), 29.82s(cpu) 
 Fri Apr 15 15:41:04 2011

        *************************************************************
        *                                                           *
        *  Thank you very much for using Q-Chem.  Have a nice day.  *
        *                                                           *
        *************************************************************


0 sent ACK to 0 
now end server 0 ... 
 
**********************************************************************
Job 2 of 3 
**********************************************************************
 
Process 0 of 1 is on cl148.stfx.acenet.ca - thread support 1
initial socket setup ...start
initial socket setup ...done 
now start server 0 ... 

cmd = /usr/bin/ssh clhead /usr/local/qchem/bin/get_hostid 1051575587 > /globalscratch/itamblyn/bnl/g297_b3lyp_neut_g03Large_worked/g2g71069/omega420/qchem23153/lic.dat
                  Welcome to Q-Chem
     A Quantum Leap Into The Future Of Chemistry

 Y. Shao, L. Fusti-Molnar, Y. Jung, J. Kussmann, C. Ochsenfeld,
 S. T. Brown, A. T. B. Gilbert, L. V. Slipchenko,S. V. Levchenko,
 D. P. O'Neill, R. A. DiStasio Jr., R. C. Lochan, T. Wang,
 G. J. O. Beran, N. A. Besley, J. M. Herbert, C. Y. Lin,
 T. Van Voorhis, S. H. Chien, A. Sodt, R. P. Steele, 
 V. A. Rassolov, P. E. Maslen, P. P. Korambath, R. D. Adamson,
 B. Austin, J. Baker, E. F. C. Byrd, H. Dachsel, R. J. Doerksen,
 A. Dreuw, B. D. Dunietz, A. D. Dutoi, T. R. Furlani,
 S. R. Gwaltney, A. Heyden, S. Hirata, C.-P. Hsu, G. Kedziora,
 R. Z. Khaliullin, P. Klunzinger, A. M. Lee, M. S. Lee, W. Liang,
 I. Lotan, N. Nair, B. Peters, E. I. Proynov, P. A. Pieniazek, 
 Y. M. Rhee, J. Ritchie, E. Rosta, C. D. Sherrill, 
 A. C. Simmonett, J. E. Subotnik, H. L. Woodcock III,
 W. Zhang, A. T. Bell, A. K. Chakraborty, D. M. Chipman,
 F. J. Keil, A. Warshel, W. J. Hehre, H. F. Schaefer III,
 J. Kong, A. I. Krylov, P. M. W. Gill, M. Head-Gordon,
 Q-Chem, Version 3.1, Q-Chem, Inc., Pittsburgh, PA (2007).

 Additional authors for Version 3.1: 
 Z. Gan, Y. Zhao, N. E. Schultz, D. Truhlar, E. Epifanovsky and M. Oana.

 Additional authors for Version 3.2: 
 R. Baer, B. R. Brooks, D. Casanova, J.-D. Chai, C.-L. Cheng, 
 C. Cramer, D. Crittenden, A. Ghysels, G. Hawkins, E. G. Hohenstein, 
 C. Kelley, W. Kurlancheek, D. Liotard, E. Livshits, P. Manohar, 
 A. Marenich, D. Neuhauser, R. Olson, M. A. Rohrdanz, K. S. Thanthiriwatte, 
 A. J. W. Thom, V. Vanovschi, C. F. Williams, Q. Wu and Z.-Q. You. 


 Intel X86 Linux Version

 Q-chem begins on Fri Apr 15 15:41:07 2011  

 Parallel job on  1  processors
Processing $rem in /usr/local/qchem/config/preferences.

theFileMan(): MAXOPENFILES=974 MAX_SUB_FILE_NUM=16
Maximum size of a physical file is 2.0 GB, maximum size of a tmp-file is 32.0 GB


--------------------------------------------------------------
User input:
--------------------------------------------------------------

$molecule
0,1
O
O,1,r
O,2,r,1,a

 r=1.26435929
 a=117.92287929

$end

$comment
neutral
$end

$xc_functional
   X HF 1.0
   X BNL 1.0
   C LYP 1.0
$end

$rem
SYMMETRY_DECOMPOSITION	0
exchange 		general
BASIS                   g3large
omega			420
separate_jk		true
mem_static              760
max_scf_cycles          200
scf_final_print         1
sym_ignore              true
$end

--------------------------------------------------------------
 Writing REM_CC_EA            3
 ----------------------------------------------------
       Standard Nuclear Orientation (Angstroms)
    I     Atom         X            Y            Z
 ----------------------------------------------------
    1      O       0.000000     0.000000     0.000000
    2      O       0.000000     0.000000     1.264359
    3      O       1.117161     0.000000     1.856437
 ----------------------------------------------------
 Nuclear Repulsion Energy =    69.2034819064 hartrees
 There are       12 alpha and       12 beta electrons
 Requested basis set is G3large
 There are 30 shells and 126 basis functions

Total QAlloc Memory Limit   2000 MB
Mega-Array Size       743 MB
MEM_STATIC part       760 MB

                       Distance Matrix (Angstroms)
             O (  1)   O (  2)
   O (  2)  1.264359
   O (  3)  2.166658  1.264359
 
 A cutoff of  1.0D-08 yielded    433 shell pairs
 There are   7808 function pairs ( 10265 Cartesian)
Evaluating contribution to one-electron hamiltonian from nuclear
 Smallest overlap matrix eigenvalue = 6.16E-04
 Multipole matrices computed through 2nd order

  Scale SEOQF with 1.000000e-01/1.000000e+00/1.000000e-01

 Standard Electronic Orientation quadrupole field applied
 Nucleus-field energy     =    -0.0000000040 hartrees
 Guess from superposition of atomic densities
 Warning:  Energy on first SCF cycle will be non-variational
 A restricted hybrid HF-DFT SCF calculation will be
 performed using Pulay DIIS extrapolation
 Exchange:     1.0000 Hartree-Fock + 1.0000 BNL
 Correlation:  1.0000 LYP
 Using SG-1 standard quadrature grid
 SCF converges when DIIS error is below 1.0E-05
 ---------------------------------------
  Cycle       Energy         DIIS Error
 ---------------------------------------
    1    -223.6862277620      3.66E-02
    2    -223.3392577773      1.07E-02
    3    -223.2064936516      1.60E-02
    4    -223.4930808718      1.70E-03
    5    -223.4935553721      1.73E-03
    6    -223.4977909070      2.91E-04
    7    -223.4982697033      1.28E-04
    8    -223.4985062240      7.72E-05
    9    -223.4986497168      3.92E-05
   10    -223.4986968923      9.95E-06 Convergence criterion met
 ---------------------------------------
 One-Electron    Energy =  -445.7329655026
 Total Coulomb   Energy =   176.4204068872
 Alpha Exchange  Energy =    -2.5612818992
 Beta  Exchange  Energy =    -2.5612818992
 DFT   Exchange  Energy =   -17.3897338090
 DFT Correlation Energy =    -0.8773225719
 Nuclear Repu.   Energy =    69.2034819024
 Nuclear Attr.   Energy =  -668.4403404004
 Kinetic         Energy =   222.7073748977
 SCF time:  CPU 25.32 s  wall 37.44 s
 Final Alpha MO Eigenvalues
            1           2           3           4           5           6
    1 -19.1249678 -18.9312853 -18.9311972  -1.5154278  -1.2459144  -0.9163759
            7           8           9          10          11          12
    1  -0.7622803  -0.7444413  -0.7331343  -0.4911861  -0.4874454  -0.4785762
           13          14          15          16          17
    1  -0.1067196   0.1339115   0.1365787   0.1515493   0.1778013
 Analysis of SCF Wavefunction
 
 --------------------------------------------------------------
                    Orbital Energies (a.u.)
 --------------------------------------------------------------
 
 Alpha MOs
 -- Occupied --
-19.125 -18.931 -18.931  -1.515  -1.246  -0.916  -0.762  -0.744
 -0.733  -0.491  -0.487  -0.479
 -- Virtual --
 -0.107   0.134   0.137   0.152   0.178   0.198   0.235   0.246
  0.263   0.266   0.275   0.285   0.334   0.366   0.409   0.922
  0.992   1.005   1.010   1.048   1.078   1.095   1.111   1.162
  1.245   1.262   1.277   1.346   1.475   1.541   1.592   1.594
  1.629   1.670   1.955   2.118   2.220   2.318   2.336   2.437
  2.590   2.632   4.299   4.414   4.419   4.534   4.562   4.568
  4.589   4.767   4.807   4.877   4.917   4.928   4.959   4.972
  5.073   5.074   5.080   5.107   5.129   5.195   5.198   5.470
  5.522   5.691   6.117   6.498   6.565   6.676   6.707   6.750
  6.751   6.805   6.842   6.853   6.883   6.956   7.079   7.218
  7.258   7.329   7.357   7.455   7.844   8.009   8.262  43.431
 43.464  43.517  43.528  43.532  43.559  43.614  43.619  43.622
 43.635  43.659  43.691  43.700  43.810  43.872  45.378  45.435
 45.474  45.607  45.645  45.652  45.662  46.637  47.390  49.896
 49.988  50.046
 --------------------------------------------------------------
 
          Ground-State Mulliken Net Atomic Charges

     Atom                 Charge (a.u.)
  ----------------------------------------
      1 O                    -0.147994
      2 O                     0.296033
      3 O                    -0.148039
  ----------------------------------------
  Sum of atomic charges =     0.000000

 -----------------------------------------------------------------
                    Cartesian Multipole Moments
 -----------------------------------------------------------------
    Charge (ESU x 10^10)
                 0.0000
    Dipole Moment (Debye)
         X      -0.6494      Y       0.0001      Z       0.3902
       Tot       0.7576
    Quadrupole Moments (Debye-Ang)
        XX     -17.2676     XY      -0.0006     YY     -14.9733
        XZ      -1.1516     YZ       0.0001     ZZ     -16.6304
    Octapole Moments (Debye-Ang^2)
       XXX     -19.5318    XXY      -0.0007    XYY      -5.8843
       YYY      -0.0001    XXZ     -17.5069    XYZ      -0.0005
       YYZ     -15.3909    XZZ      -8.4135    YZZ       0.0003
       ZZZ     -53.5899
    Hexadecapole Moments (Debye-Ang^3)
      XXXX     -54.9601   XXXY      -0.0016   XXYY     -10.6928
      XYYY      -0.0005   YYYY     -11.1545   XXXZ     -34.3713
      XXYZ      -0.0010   XYYZ     -10.9507   YYYZ      -0.0001
      XXZZ     -39.2106   XYZZ      -0.0009   YYZZ     -29.3963
      XZZZ     -38.6616   YZZZ       0.0007   ZZZZ    -185.1880
 -----------------------------------------------------------------
 Total job time:  39.91s(wall), 25.46s(cpu) 
 Fri Apr 15 15:41:47 2011

        *************************************************************
        *                                                           *
        *  Thank you very much for using Q-Chem.  Have a nice day.  *
        *                                                           *
        *************************************************************


0 sent ACK to 0 
now end server 0 ... 
 
**********************************************************************
Job 3 of 3 
**********************************************************************
 
Process 0 of 1 is on cl148.stfx.acenet.ca - thread support 1
initial socket setup ...start
initial socket setup ...done 
now start server 0 ... 

cmd = /usr/bin/ssh clhead /usr/local/qchem/bin/get_hostid 564107163 > /globalscratch/itamblyn/bnl/g297_b3lyp_neut_g03Large_worked/g2g71069/omega420/qchem23153/lic.dat
                  Welcome to Q-Chem
     A Quantum Leap Into The Future Of Chemistry

 Y. Shao, L. Fusti-Molnar, Y. Jung, J. Kussmann, C. Ochsenfeld,
 S. T. Brown, A. T. B. Gilbert, L. V. Slipchenko,S. V. Levchenko,
 D. P. O'Neill, R. A. DiStasio Jr., R. C. Lochan, T. Wang,
 G. J. O. Beran, N. A. Besley, J. M. Herbert, C. Y. Lin,
 T. Van Voorhis, S. H. Chien, A. Sodt, R. P. Steele, 
 V. A. Rassolov, P. E. Maslen, P. P. Korambath, R. D. Adamson,
 B. Austin, J. Baker, E. F. C. Byrd, H. Dachsel, R. J. Doerksen,
 A. Dreuw, B. D. Dunietz, A. D. Dutoi, T. R. Furlani,
 S. R. Gwaltney, A. Heyden, S. Hirata, C.-P. Hsu, G. Kedziora,
 R. Z. Khaliullin, P. Klunzinger, A. M. Lee, M. S. Lee, W. Liang,
 I. Lotan, N. Nair, B. Peters, E. I. Proynov, P. A. Pieniazek, 
 Y. M. Rhee, J. Ritchie, E. Rosta, C. D. Sherrill, 
 A. C. Simmonett, J. E. Subotnik, H. L. Woodcock III,
 W. Zhang, A. T. Bell, A. K. Chakraborty, D. M. Chipman,
 F. J. Keil, A. Warshel, W. J. Hehre, H. F. Schaefer III,
 J. Kong, A. I. Krylov, P. M. W. Gill, M. Head-Gordon,
 Q-Chem, Version 3.1, Q-Chem, Inc., Pittsburgh, PA (2007).

 Additional authors for Version 3.1: 
 Z. Gan, Y. Zhao, N. E. Schultz, D. Truhlar, E. Epifanovsky and M. Oana.

 Additional authors for Version 3.2: 
 R. Baer, B. R. Brooks, D. Casanova, J.-D. Chai, C.-L. Cheng, 
 C. Cramer, D. Crittenden, A. Ghysels, G. Hawkins, E. G. Hohenstein, 
 C. Kelley, W. Kurlancheek, D. Liotard, E. Livshits, P. Manohar, 
 A. Marenich, D. Neuhauser, R. Olson, M. A. Rohrdanz, K. S. Thanthiriwatte, 
 A. J. W. Thom, V. Vanovschi, C. F. Williams, Q. Wu and Z.-Q. You. 


 Intel X86 Linux Version

 Q-chem begins on Fri Apr 15 15:41:51 2011  

 Parallel job on  1  processors
Processing $rem in /usr/local/qchem/config/preferences.

theFileMan(): MAXOPENFILES=974 MAX_SUB_FILE_NUM=16
Maximum size of a physical file is 2.0 GB, maximum size of a tmp-file is 32.0 GB


--------------------------------------------------------------
User input:
--------------------------------------------------------------

$molecule
1,2
O
O,1,r
O,2,r,1,a

 r=1.26435929
 a=117.92287929

$end

$comment
positive
$end

$xc_functional
   X HF 1.0
   X BNL 1.0
   C LYP 1.0
$end

$rem
SYMMETRY_DECOMPOSITION	0
exchange 		general
BASIS                   g3large
omega			420
separate_jk		true
mem_static              760
max_scf_cycles          200
scf_final_print         1
sym_ignore              true
$end

--------------------------------------------------------------
 Writing REM_CC_EA            3
 ----------------------------------------------------
       Standard Nuclear Orientation (Angstroms)
    I     Atom         X            Y            Z
 ----------------------------------------------------
    1      O       0.000000     0.000000     0.000000
    2      O       0.000000     0.000000     1.264359
    3      O       1.117161     0.000000     1.856437
 ----------------------------------------------------
 Nuclear Repulsion Energy =    69.2034819064 hartrees
 There are       12 alpha and       11 beta electrons
 Requested basis set is G3large
 There are 30 shells and 126 basis functions

Total QAlloc Memory Limit   2000 MB
Mega-Array Size       743 MB
MEM_STATIC part       760 MB

                       Distance Matrix (Angstroms)
             O (  1)   O (  2)
   O (  2)  1.264359
   O (  3)  2.166658  1.264359
 
 A cutoff of  1.0D-08 yielded    433 shell pairs
 There are   7808 function pairs ( 10265 Cartesian)
Evaluating contribution to one-electron hamiltonian from nuclear
 Smallest overlap matrix eigenvalue = 6.16E-04
 Multipole matrices computed through 2nd order

  Scale SEOQF with 1.000000e-01/1.000000e+00/1.000000e-01

 Standard Electronic Orientation quadrupole field applied
 Nucleus-field energy     =    -0.0000000040 hartrees
 Guess from superposition of atomic densities
 Warning:  Energy on first SCF cycle will be non-variational
 An unrestricted hybrid HF-DFT SCF calculation will be
 performed using Pulay DIIS extrapolation
 Exchange:     1.0000 Hartree-Fock + 1.0000 BNL
 Correlation:  1.0000 LYP
 Using SG-1 standard quadrature grid
 SCF converges when DIIS error is below 1.0E-05
 Warning!  Inaccurate integrated density:
   Number of electrons =    23
   Numerical integral  =    23.999914857071
   Relative error      =     4.3474559003 %
 ---------------------------------------
  Cycle       Energy         DIIS Error
 ---------------------------------------
    1    -223.6862277620      3.66E-02
    2    -222.7405007594      1.23E-02
    3    -222.3797162513      2.14E-02
    4    -222.9698056483      4.88E-03
    5    -223.0001138082      2.06E-03
    6    -223.0079847437      7.35E-04
    7    -223.0107998808      2.56E-04
    8    -223.0131386662      1.41E-04
    9    -223.0145305030      9.37E-05
   10    -223.0158555711      6.71E-05
   11    -223.0173866575      6.67E-05
   12    -223.0187183830      7.03E-05
   13    -223.0204128953      8.09E-05
   14    -223.0214695288      8.10E-05
   15    -223.0217603532      3.83E-05
   16    -223.0225427370      5.59E-05
   17    -223.0225406887      1.15E-05
   18    -223.0225685784      1.52E-05
   19    -223.0225720482      4.98E-06 Convergence criterion met
 ---------------------------------------
 One-Electron    Energy =  -436.7599587690
 Total Coulomb   Energy =   167.5514341241
 Alpha Exchange  Energy =    -2.5942154770
 Beta  Exchange  Energy =    -2.3559103045
 DFT   Exchange  Energy =   -17.2344314145
 DFT Correlation Energy =    -0.8329721097
 Nuclear Repu.   Energy =    69.2034819024
 Nuclear Attr.   Energy =  -659.1119751458
 Kinetic         Energy =   222.3520163768
 <S^2> = 1.1619
 SCF time:  CPU 58.31 s  wall 75.73 s
 Final Alpha MO Eigenvalues
            1           2           3           4           5           6
    1 -19.4730517 -19.4125618 -19.3055902  -1.8926105  -1.6323428  -1.2926173
            7           8           9          10          11          12
    1  -1.1247936  -1.1235863  -1.0964080  -0.9365047  -0.8983484  -0.8208793
           13          14          15          16          17
    1  -0.4216961  -0.2028614  -0.1114162  -0.0936672  -0.0454067
 Final Beta MO Eigenvalues
            1           2           3           4           5           6
    1 -19.4641875 -19.3729948 -19.3212282  -1.8716684  -1.6087188  -1.2531543
            7           8           9          10          11          12
    1  -1.0962689  -1.0864078  -1.0681480  -0.8642972  -0.8308849  -0.4919731
           13          14          15          16
    1  -0.4411178  -0.1783653  -0.0972922  -0.0884709
 Analysis of SCF Wavefunction
 
 --------------------------------------------------------------
                    Orbital Energies (a.u.)
 --------------------------------------------------------------
 
 Alpha MOs
 -- Occupied --
-19.473 -19.413 -19.306  -1.893  -1.632  -1.293  -1.125  -1.124
 -1.096  -0.937  -0.898  -0.821
 -- Virtual --
 -0.422  -0.203  -0.111  -0.094  -0.045  -0.039  -0.020   0.032
  0.036   0.040   0.052   0.064   0.120   0.154   0.198   0.623
  0.677   0.684   0.718   0.747   0.783   0.787   0.829   0.852
  0.921   0.925   0.939   1.018   1.137   1.206   1.225   1.252
  1.299   1.347   1.594   1.764   1.885   1.966   2.004   2.101
  2.267   2.291   3.936   4.038   4.051   4.162   4.204   4.205
  4.222   4.410   4.429   4.430   4.538   4.575   4.575   4.600
  4.660   4.679   4.690   4.766   4.781   4.819   4.835   5.085
  5.163   5.324   5.726   6.125   6.170   6.252   6.275   6.355
  6.359   6.434   6.477   6.490   6.510   6.580   6.675   6.843
  6.888   6.979   6.980   7.087   7.474   7.635   7.895  43.011
 43.077  43.078  43.123  43.152  43.174  43.176  43.199  43.203
 43.259  43.262  43.268  43.315  43.376  43.505  45.000  45.046
 45.070  45.173  45.188  45.272  45.282  46.236  47.009  49.479
 49.599  49.653
 
 Beta MOs
 -- Occupied --
-19.464 -19.373 -19.321  -1.872  -1.609  -1.253  -1.096  -1.086
 -1.068  -0.864  -0.831
 -- Virtual --
 -0.492  -0.441  -0.178  -0.097  -0.088  -0.044  -0.037  -0.015
  0.033   0.040   0.040   0.052   0.064   0.121   0.155   0.198
  0.635   0.696   0.702   0.721   0.760   0.792   0.794   0.827
  0.866   0.933   0.935   0.946   1.031   1.164   1.221   1.255
  1.264   1.298   1.348   1.613   1.784   1.894   1.976   2.010
  2.116   2.275   2.304   3.951   4.061   4.062   4.188   4.212
  4.221   4.239   4.427   4.462   4.507   4.549   4.586   4.595
  4.626   4.711   4.712   4.717   4.751   4.775   4.836   4.839
  5.114   5.175   5.338   5.753   6.144   6.209   6.314   6.337
  6.377   6.381   6.441   6.495   6.502   6.521   6.604   6.712
  6.870   6.903   6.988   7.000   7.102   7.490   7.652   7.909
 43.084  43.122  43.126  43.136  43.170  43.186  43.213  43.221
 43.249  43.255  43.271  43.278  43.286  43.412  43.498  45.017
 45.063  45.090  45.192  45.228  45.261  45.274  46.247  47.016
 49.508  49.619  49.644
 --------------------------------------------------------------
 
          Ground-State Mulliken Net Atomic Charges

     Atom                 Charge (a.u.)    Spin (a.u.)
  --------------------------------------------------------
      1 O                     0.415467       1.298805
      2 O                     0.406310       0.244424
      3 O                     0.178222      -0.543229
  --------------------------------------------------------
  Sum of atomic charges =     1.000000
  Sum of spin   charges =     1.000000

 -----------------------------------------------------------------
                    Cartesian Multipole Moments
 -----------------------------------------------------------------
    Charge (ESU x 10^10)
                 4.8032
    Dipole Moment (Debye)
         X       1.2207      Y       0.0000      Z       4.2328
       Tot       4.4053
    Quadrupole Moments (Debye-Ang)
        XX     -11.9595     XY       0.0003     YY     -13.0651
        XZ       2.4118     YZ      -0.0001     ZZ      -7.1422
    Octapole Moments (Debye-Ang^2)
       XXX     -14.0485    XXY       0.0009    XYY      -4.8455
       YYY       0.0001    XXZ     -11.1794    XYZ       0.0010
       YYZ     -13.4242    XZZ      -0.4508    YZZ      -0.0002
       ZZZ     -33.6639
    Hexadecapole Moments (Debye-Ang^3)
      XXXX     -41.0884   XXXY       0.0017   XXYY      -8.2341
      XYYY       0.0003   YYYY      -8.2821   XXXZ     -24.3774
      XXYZ       0.0015   XYYZ      -8.9817   YYYZ       0.0002
      XXZZ     -24.9813   XYZZ       0.0014   YYZZ     -24.6364
      XZZZ     -20.1454   YZZZ      -0.0006   ZZZZ    -134.7251
 -----------------------------------------------------------------
 Total job time:  77.28s(wall), 58.45s(cpu) 
 Fri Apr 15 15:43:08 2011

        *************************************************************
        *                                                           *
        *  Thank you very much for using Q-Chem.  Have a nice day.  *
        *                                                           *
        *************************************************************


0 sent ACK to 0 
now end server 0 ... 
