Process 0 of 1 is on cl077.stfx.acenet.ca - thread support 1
initial socket setup ...start
initial socket setup ...done 
now start server 0 ... 

cmd = /usr/bin/ssh clhead /usr/local/qchem/bin/get_hostid 886189821 > /scratch/tmp/6027952.1.short.q/qchem23453/lic.dat
                  Welcome to Q-Chem
     A Quantum Leap Into The Future Of Chemistry

 Y. Shao, L. Fusti-Molnar, Y. Jung, J. Kussmann, C. Ochsenfeld,
 S. T. Brown, A. T. B. Gilbert, L. V. Slipchenko,S. V. Levchenko,
 D. P. O'Neill, R. A. DiStasio Jr., R. C. Lochan, T. Wang,
 G. J. O. Beran, N. A. Besley, J. M. Herbert, C. Y. Lin,
 T. Van Voorhis, S. H. Chien, A. Sodt, R. P. Steele, 
 V. A. Rassolov, P. E. Maslen, P. P. Korambath, R. D. Adamson,
 B. Austin, J. Baker, E. F. C. Byrd, H. Dachsel, R. J. Doerksen,
 A. Dreuw, B. D. Dunietz, A. D. Dutoi, T. R. Furlani,
 S. R. Gwaltney, A. Heyden, S. Hirata, C.-P. Hsu, G. Kedziora,
 R. Z. Khaliullin, P. Klunzinger, A. M. Lee, M. S. Lee, W. Liang,
 I. Lotan, N. Nair, B. Peters, E. I. Proynov, P. A. Pieniazek, 
 Y. M. Rhee, J. Ritchie, E. Rosta, C. D. Sherrill, 
 A. C. Simmonett, J. E. Subotnik, H. L. Woodcock III,
 W. Zhang, A. T. Bell, A. K. Chakraborty, D. M. Chipman,
 F. J. Keil, A. Warshel, W. J. Hehre, H. F. Schaefer III,
 J. Kong, A. I. Krylov, P. M. W. Gill, M. Head-Gordon,
 Q-Chem, Version 3.1, Q-Chem, Inc., Pittsburgh, PA (2007).

 Additional authors for Version 3.1: 
 Z. Gan, Y. Zhao, N. E. Schultz, D. Truhlar, E. Epifanovsky and M. Oana.

 Additional authors for Version 3.2: 
 R. Baer, B. R. Brooks, D. Casanova, J.-D. Chai, C.-L. Cheng, 
 C. Cramer, D. Crittenden, A. Ghysels, G. Hawkins, E. G. Hohenstein, 
 C. Kelley, W. Kurlancheek, D. Liotard, E. Livshits, P. Manohar, 
 A. Marenich, D. Neuhauser, R. Olson, M. A. Rohrdanz, K. S. Thanthiriwatte, 
 A. J. W. Thom, V. Vanovschi, C. F. Williams, Q. Wu and Z.-Q. You. 


 Intel X86 Linux Version

 Q-chem begins on Tue Jun  4 12:34:50 2013  

 Parallel job on  1  processors
Processing $rem in /usr/local/qchem/config/preferences.

theFileMan(): MAXOPENFILES=974 MAX_SUB_FILE_NUM=16
Maximum size of a physical file is 2.0 GB, maximum size of a tmp-file is 32.0 GB


--------------------------------------------------------------
User input:
--------------------------------------------------------------

$molecule
-1,1
Cl
O,1,R

R=1.61959205

$end

$comment
negative
$end

$xc_functional
C PBE   1.00
X wPBE  1.00
$end

$rem
SYMMETRY_DECOMPOSITION	0
exchange 		general
LRC_DFT                 true
BASIS                   g3large
omega			460
mem_static              760
max_scf_cycles          200
scf_final_print         1
sym_ignore              true
$end

--------------------------------------------------------------
 Writing REM_CC_EA            2
 ----------------------------------------------------
       Standard Nuclear Orientation (Angstroms)
    I     Atom         X            Y            Z
 ----------------------------------------------------
    1      Cl      0.000000     0.000000     0.000000
    2      O       0.000000     0.000000     1.619592
 ----------------------------------------------------
 Nuclear Repulsion Energy =    44.4359434024 hartrees
 There are       13 alpha and       13 beta electrons
 Requested basis set is G3large
 There are 29 shells and 108 basis functions

Total QAlloc Memory Limit   2000 MB
Mega-Array Size       743 MB
MEM_STATIC part       760 MB

                       Distance Matrix (Angstroms)
             Cl(  1)
   O (  2)  1.619592
 
 A cutoff of  1.0D-08 yielded    413 shell pairs
 There are   5908 function pairs (  8221 Cartesian)
Evaluating contribution to one-electron hamiltonian from nuclear
 Smallest overlap matrix eigenvalue = 3.44E-03
 Multipole matrices computed through 2nd order

  Scale SEOQF with 1.000000e-01/1.000000e-01/1.000000e-01

 Standard Electronic Orientation quadrupole field applied
 Nucleus-field energy     =    -0.0000000022 hartrees
 Guess from superposition of atomic densities
 Warning:  Energy on first SCF cycle will be non-variational
 Long-range K will be added via erf
 Coulomb attenuation parameter = 0.46 bohr**(-1)
 A restricted Kohn-Sham SCF calculation will be
 performed using Pulay DIIS extrapolation
 Exchange:  wPBE + LR-HF      Correlation:  PBE
 Using SG-1 standard quadrature grid
 SCF converges when DIIS error is below 1.0E-05
 Requested basis set is G3large
 There are 29 shells and 108 basis functions
 A cutoff of  1.0D-08 yielded    413 shell pairs
 There are   5908 function pairs (  8221 Cartesian)
 Warning!  Inaccurate integrated density:
   Number of electrons =    26
   Numerical integral  =    25.000136978023
   Relative error      =    -3.8456270076 %
 ---------------------------------------
  Cycle       Energy         DIIS Error
 ---------------------------------------
    1    -535.1783301128      2.92E-02
    2    -535.1335210791      8.76E-03
    3    -535.1448489001      9.37E-03
    4    -535.2334962096      1.04E-03
    5    -535.2349214137      3.22E-04
    6    -535.2353904778      1.33E-04
    7    -535.2355440880      5.86E-05
    8    -535.2355805314      2.25E-05
    9    -535.2355852735      9.01E-06 Convergence criterion met
 ---------------------------------------
 One-Electron    Energy =  -834.6859877991
 Total Coulomb   Energy =   291.8711315809
 Alpha Exchange  Energy =    -3.0204680172
 Beta  Exchange  Energy =    -3.0204680172
 DFT   Exchange  Energy =   -29.8548397209
 DFT Correlation Energy =    -0.9608967002
 Nuclear Repu.   Energy =    44.4359434002
 Nuclear Attr.   Energy = -1369.1876514214
 Kinetic         Energy =   534.5016636223
 SCF time:  CPU 22.09 s  wall 22.71 s
 Final Alpha MO Eigenvalues
            1           2           3           4           5           6
    1-100.6863356 -18.6979563  -9.2049810  -7.0224674  -7.0109642  -7.0109640
            7           8           9          10          11          12
    1  -0.8949673  -0.6293029  -0.2835039  -0.2732596  -0.2732577  -0.0993362
           13          14          15          16          17          18
    1  -0.0993324   0.2510415   0.2675385   0.2850954   0.2850957   0.3895054
 Analysis of SCF Wavefunction
 
 --------------------------------------------------------------
                    Orbital Energies (a.u.)
 --------------------------------------------------------------
 
 Alpha MOs
 -- Occupied --
******* -18.698  -9.205  -7.022  -7.011  -7.011  -0.895  -0.629
 -0.284  -0.273  -0.273  -0.099  -0.099
 -- Virtual --
  0.251   0.268   0.285   0.285   0.390   0.445   0.486   0.486
  0.588   0.607   0.607   0.681   0.681   0.765   0.812   0.812
  0.824   1.353   1.403   1.420   1.420   1.426   1.426   1.446
  1.446   1.479   1.479   1.486   1.486   1.500   1.608   1.608
  1.911   1.953   2.065   2.065   2.370   2.370   2.612   2.619
  2.619   3.042   4.642   4.685   4.685   4.720   4.720   4.720
  4.720   5.187   5.207   5.207   5.320   5.320   5.358   5.360
  5.482   5.482   5.515   5.515   5.612   5.854   5.854   6.520
  7.196   7.196   7.469   7.469   7.985  10.042  20.829  20.829
 21.086  27.356  27.436  27.471  27.471  27.643  37.085  37.085
 37.085  37.085  37.090  37.090  37.111  44.023  44.086  44.168
 44.168  44.223  45.918  45.918  46.142  50.075 215.835
 --------------------------------------------------------------
 
          Ground-State Mulliken Net Atomic Charges

     Atom                 Charge (a.u.)
  ----------------------------------------
      1 Cl                   -0.288530
      2 O                    -0.711470
  ----------------------------------------
  Sum of atomic charges =    -1.000000

 -----------------------------------------------------------------
                    Cartesian Multipole Moments
 -----------------------------------------------------------------
    Charge (ESU x 10^10)
                -4.8032
    Dipole Moment (Debye)
         X       0.0003      Y       0.0003      Z      -4.8837
       Tot       4.8837
    Quadrupole Moments (Debye-Ang)
        XX     -21.5044     XY       0.0000     YY     -21.5044
        XZ       0.0006     YZ       0.0007     ZZ     -29.8915
    Octapole Moments (Debye-Ang^2)
       XXX       0.0000    XXY       0.0001    XYY       0.0000
       YYY       0.0004    XXZ     -10.7990    XYZ       0.0001
       YYZ     -10.7990    XZZ       0.0034    YZZ       0.0026
       ZZZ     -48.7658
    Hexadecapole Moments (Debye-Ang^3)
      XXXX     -27.3056   XXXY      -0.0002   XXYY      -9.1015
      XYYY      -0.0002   YYYY     -27.3056   XXXZ       0.0021
      XXYZ       0.0006   XYYZ       0.0007   YYYZ       0.0019
      XXZZ     -28.4157   XYZZ       0.0000   YYZZ     -28.4158
      XZZZ       0.0059   YZZZ       0.0052   ZZZZ    -154.7356
 -----------------------------------------------------------------
 Total job time:  22.84s(wall), 22.21s(cpu) 
 Tue Jun  4 12:35:13 2013

        *************************************************************
        *                                                           *
        *  Thank you very much for using Q-Chem.  Have a nice day.  *
        *                                                           *
        *************************************************************


0 sent ACK to 0 
now end server 0 ... 
 
**********************************************************************
Job 2 of 3 
**********************************************************************
 
Process 0 of 1 is on cl077.stfx.acenet.ca - thread support 1
initial socket setup ...start
initial socket setup ...done 
now start server 0 ... 

cmd = /usr/bin/ssh clhead /usr/local/qchem/bin/get_hostid 492543203 > /scratch/tmp/6027952.1.short.q/qchem23453/lic.dat
                  Welcome to Q-Chem
     A Quantum Leap Into The Future Of Chemistry

 Y. Shao, L. Fusti-Molnar, Y. Jung, J. Kussmann, C. Ochsenfeld,
 S. T. Brown, A. T. B. Gilbert, L. V. Slipchenko,S. V. Levchenko,
 D. P. O'Neill, R. A. DiStasio Jr., R. C. Lochan, T. Wang,
 G. J. O. Beran, N. A. Besley, J. M. Herbert, C. Y. Lin,
 T. Van Voorhis, S. H. Chien, A. Sodt, R. P. Steele, 
 V. A. Rassolov, P. E. Maslen, P. P. Korambath, R. D. Adamson,
 B. Austin, J. Baker, E. F. C. Byrd, H. Dachsel, R. J. Doerksen,
 A. Dreuw, B. D. Dunietz, A. D. Dutoi, T. R. Furlani,
 S. R. Gwaltney, A. Heyden, S. Hirata, C.-P. Hsu, G. Kedziora,
 R. Z. Khaliullin, P. Klunzinger, A. M. Lee, M. S. Lee, W. Liang,
 I. Lotan, N. Nair, B. Peters, E. I. Proynov, P. A. Pieniazek, 
 Y. M. Rhee, J. Ritchie, E. Rosta, C. D. Sherrill, 
 A. C. Simmonett, J. E. Subotnik, H. L. Woodcock III,
 W. Zhang, A. T. Bell, A. K. Chakraborty, D. M. Chipman,
 F. J. Keil, A. Warshel, W. J. Hehre, H. F. Schaefer III,
 J. Kong, A. I. Krylov, P. M. W. Gill, M. Head-Gordon,
 Q-Chem, Version 3.1, Q-Chem, Inc., Pittsburgh, PA (2007).

 Additional authors for Version 3.1: 
 Z. Gan, Y. Zhao, N. E. Schultz, D. Truhlar, E. Epifanovsky and M. Oana.

 Additional authors for Version 3.2: 
 R. Baer, B. R. Brooks, D. Casanova, J.-D. Chai, C.-L. Cheng, 
 C. Cramer, D. Crittenden, A. Ghysels, G. Hawkins, E. G. Hohenstein, 
 C. Kelley, W. Kurlancheek, D. Liotard, E. Livshits, P. Manohar, 
 A. Marenich, D. Neuhauser, R. Olson, M. A. Rohrdanz, K. S. Thanthiriwatte, 
 A. J. W. Thom, V. Vanovschi, C. F. Williams, Q. Wu and Z.-Q. You. 


 Intel X86 Linux Version

 Q-chem begins on Tue Jun  4 12:35:15 2013  

 Parallel job on  1  processors
Processing $rem in /usr/local/qchem/config/preferences.

theFileMan(): MAXOPENFILES=974 MAX_SUB_FILE_NUM=16
Maximum size of a physical file is 2.0 GB, maximum size of a tmp-file is 32.0 GB


--------------------------------------------------------------
User input:
--------------------------------------------------------------

$molecule
0,2
Cl
O,1,R

R=1.61959205

$end

$comment
neutral
$end

$xc_functional
C PBE   1.00
X wPBE  1.00
$end


$rem
SYMMETRY_DECOMPOSITION	0
LRC_DFT                 true
exchange 		general
BASIS                   g3large
omega			460
mem_static              760
max_scf_cycles          200
scf_final_print         1
sym_ignore              true
$end

--------------------------------------------------------------
 Writing REM_CC_EA            2
 ----------------------------------------------------
       Standard Nuclear Orientation (Angstroms)
    I     Atom         X            Y            Z
 ----------------------------------------------------
    1      Cl      0.000000     0.000000     0.000000
    2      O       0.000000     0.000000     1.619592
 ----------------------------------------------------
 Nuclear Repulsion Energy =    44.4359434024 hartrees
 There are       13 alpha and       12 beta electrons
 Requested basis set is G3large
 There are 29 shells and 108 basis functions

Total QAlloc Memory Limit   2000 MB
Mega-Array Size       743 MB
MEM_STATIC part       760 MB

                       Distance Matrix (Angstroms)
             Cl(  1)
   O (  2)  1.619592
 
 A cutoff of  1.0D-08 yielded    413 shell pairs
 There are   5908 function pairs (  8221 Cartesian)
Evaluating contribution to one-electron hamiltonian from nuclear
 Smallest overlap matrix eigenvalue = 3.44E-03
 Multipole matrices computed through 2nd order

  Scale SEOQF with 1.000000e-01/1.000000e-01/1.000000e-01

 Standard Electronic Orientation quadrupole field applied
 Nucleus-field energy     =    -0.0000000022 hartrees
 Guess from superposition of atomic densities
 Warning:  Energy on first SCF cycle will be non-variational
 Long-range K will be added via erf
 Coulomb attenuation parameter = 0.46 bohr**(-1)
 An unrestricted Kohn-Sham SCF calculation will be
 performed using Pulay DIIS extrapolation
 Exchange:  wPBE + LR-HF      Correlation:  PBE
 Using SG-1 standard quadrature grid
 SCF converges when DIIS error is below 1.0E-05
 Requested basis set is G3large
 There are 29 shells and 108 basis functions
 A cutoff of  1.0D-08 yielded    413 shell pairs
 There are   5908 function pairs (  8221 Cartesian)
 ---------------------------------------
  Cycle       Energy         DIIS Error
 ---------------------------------------
    1    -535.1783301128      2.92E-02
    2    -535.0953924002      5.32E-03
    3    -535.1060295693      5.88E-03
    4    -535.1438291855      1.05E-03
    5    -535.1468209220      5.45E-04
    6    -535.1489925056      2.60E-04
    7    -535.1500458682      1.46E-04
    8    -535.1504179228      5.68E-05
    9    -535.1504855739      2.10E-05
   10    -535.1504913692      6.16E-06 Convergence criterion met
 ---------------------------------------
 One-Electron    Energy =  -826.4683466962
 Total Coulomb   Energy =   283.4190199317
 Alpha Exchange  Energy =    -3.0543475067
 Beta  Exchange  Energy =    -2.8055741873
 DFT   Exchange  Energy =   -29.7532288437
 DFT Correlation Energy =    -0.9239574671
 Nuclear Repu.   Energy =    44.4359434002
 Nuclear Attr.   Energy = -1360.7618551540
 Kinetic         Energy =   534.2935084578
 <S^2> = 0.7576
 SCF time:  CPU 27.79 s  wall 28.27 s
 Final Alpha MO Eigenvalues
            1           2           3           4           5           6
    1-101.0009895 -19.1086778  -9.5188982  -7.3374341  -7.3282366  -7.3215782
            7           8           9          10          11          12
    1  -1.2570679  -0.9644054  -0.6351827  -0.6254161  -0.5926427  -0.4735777
           13          14          15          16          17          18
    1  -0.4346050   0.0277175   0.0833574   0.1169020   0.1202187   0.1436093
 Final Beta MO Eigenvalues
            1           2           3           4           5           6
    1-100.9995759 -19.0888061  -9.5176172  -7.3372502  -7.3239930  -7.3205866
            7           8           9          10          11          12
    1  -1.2210762  -0.9286628  -0.6063259  -0.5827296  -0.5332357  -0.4207343
           13          14          15          16          17
    1  -0.0715779   0.0375137   0.0840240   0.1182274   0.1203116
 Analysis of SCF Wavefunction
 
 --------------------------------------------------------------
                    Orbital Energies (a.u.)
 --------------------------------------------------------------
 
 Alpha MOs
 -- Occupied --
******* -19.109  -9.519  -7.337  -7.328  -7.322  -1.257  -0.964
 -0.635  -0.625  -0.593  -0.474  -0.435
 -- Virtual --
  0.028   0.083   0.117   0.120   0.144   0.238   0.262   0.272
  0.344   0.344   0.362   0.408   0.419   0.534   0.556   0.566
  0.575   1.065   1.104   1.108   1.129   1.133   1.133   1.157
  1.158   1.168   1.188   1.214   1.214   1.225   1.298   1.316
  1.592   1.659   1.711   1.713   2.045   2.069   2.284   2.301
  2.321   2.739   4.320   4.362   4.377   4.409   4.409   4.411
  4.411   4.845   4.846   4.877   4.908   4.953   5.037   5.038
  5.079   5.079   5.138   5.142   5.248   5.487   5.517   6.170
  6.766   6.766   7.042   7.095   7.612   9.731  20.512  20.520
 20.773  27.042  27.122  27.154  27.159  27.328  36.771  36.771
 36.771  36.771  36.775  36.779  36.797  43.593  43.653  43.738
 43.774  43.819  45.482  45.516  45.739  49.667 215.521
 
 Beta MOs
 -- Occupied --
******* -19.089  -9.518  -7.337  -7.324  -7.321  -1.221  -0.929
 -0.606  -0.583  -0.533  -0.421
 -- Virtual --
 -0.072   0.038   0.084   0.118   0.120   0.148   0.239   0.274
  0.279   0.352   0.352   0.366   0.419   0.429   0.537   0.564
  0.575   0.576   1.072   1.116   1.134   1.138   1.145   1.146
  1.166   1.166   1.193   1.199   1.221   1.221   1.229   1.318
  1.318   1.621   1.670   1.752   1.756   2.074   2.075   2.296
  2.323   2.325   2.746   4.328   4.376   4.377   4.417   4.417
  4.425   4.425   4.858   4.884   4.886   4.972   4.987   5.049
  5.051   5.137   5.138   5.175   5.178   5.271   5.523   5.523
  6.187   6.849   6.861   7.112   7.131   7.643   9.734  20.519
 20.522  20.773  27.045  27.126  27.157  27.159  27.329  36.772
 36.772  36.772  36.772  36.776  36.779  36.797  43.642  43.706
 43.780  43.789  43.838  45.530  45.540  45.754  49.687 215.522
 --------------------------------------------------------------
 
          Ground-State Mulliken Net Atomic Charges

     Atom                 Charge (a.u.)    Spin (a.u.)
  --------------------------------------------------------
      1 Cl                    0.118010       0.194886
      2 O                    -0.118010       0.805114
  --------------------------------------------------------
  Sum of atomic charges =     0.000000
  Sum of spin   charges =     1.000000

 -----------------------------------------------------------------
                    Cartesian Multipole Moments
 -----------------------------------------------------------------
    Charge (ESU x 10^10)
                 0.0000
    Dipole Moment (Debye)
         X      -0.0002      Y      -0.0001      Z      -1.2333
       Tot       1.2333
    Quadrupole Moments (Debye-Ang)
        XX     -17.4638     XY      -0.6197     YY     -17.6209
        XZ      -0.0001     YZ       0.0002     ZZ     -18.5131
    Octapole Moments (Debye-Ang^2)
       XXX       0.0000    XXY       0.0000    XYY       0.0000
       YYY      -0.0001    XXZ      -8.4512    XYZ      -0.5338
       YYZ      -8.5862    XZZ      -0.0013    YZZ      -0.0012
       ZZZ     -29.8348
    Hexadecapole Moments (Debye-Ang^3)
      XXXX     -17.2862   XXXY      -0.4723   XXYY      -5.8017
      XYYY      -0.4723   YYYY     -17.5258   XXXZ      -0.0002
      XXYZ       0.0000   XYYZ      -0.0001   YYYZ      -0.0001
      XXZZ     -19.5439   XYZZ      -1.3335   YYZZ     -19.8817
      XZZZ      -0.0020   YZZZ      -0.0015   ZZZZ    -103.0066
 -----------------------------------------------------------------
 Total job time:  28.39s(wall), 27.91s(cpu) 
 Tue Jun  4 12:35:44 2013

        *************************************************************
        *                                                           *
        *  Thank you very much for using Q-Chem.  Have a nice day.  *
        *                                                           *
        *************************************************************


0 sent ACK to 0 
now end server 0 ... 
 
**********************************************************************
Job 3 of 3 
**********************************************************************
 
Process 0 of 1 is on cl077.stfx.acenet.ca - thread support 1
initial socket setup ...start
initial socket setup ...done 
now start server 0 ... 

cmd = /usr/bin/ssh clhead /usr/local/qchem/bin/get_hostid 727037372 > /scratch/tmp/6027952.1.short.q/qchem23453/lic.dat
                  Welcome to Q-Chem
     A Quantum Leap Into The Future Of Chemistry

 Y. Shao, L. Fusti-Molnar, Y. Jung, J. Kussmann, C. Ochsenfeld,
 S. T. Brown, A. T. B. Gilbert, L. V. Slipchenko,S. V. Levchenko,
 D. P. O'Neill, R. A. DiStasio Jr., R. C. Lochan, T. Wang,
 G. J. O. Beran, N. A. Besley, J. M. Herbert, C. Y. Lin,
 T. Van Voorhis, S. H. Chien, A. Sodt, R. P. Steele, 
 V. A. Rassolov, P. E. Maslen, P. P. Korambath, R. D. Adamson,
 B. Austin, J. Baker, E. F. C. Byrd, H. Dachsel, R. J. Doerksen,
 A. Dreuw, B. D. Dunietz, A. D. Dutoi, T. R. Furlani,
 S. R. Gwaltney, A. Heyden, S. Hirata, C.-P. Hsu, G. Kedziora,
 R. Z. Khaliullin, P. Klunzinger, A. M. Lee, M. S. Lee, W. Liang,
 I. Lotan, N. Nair, B. Peters, E. I. Proynov, P. A. Pieniazek, 
 Y. M. Rhee, J. Ritchie, E. Rosta, C. D. Sherrill, 
 A. C. Simmonett, J. E. Subotnik, H. L. Woodcock III,
 W. Zhang, A. T. Bell, A. K. Chakraborty, D. M. Chipman,
 F. J. Keil, A. Warshel, W. J. Hehre, H. F. Schaefer III,
 J. Kong, A. I. Krylov, P. M. W. Gill, M. Head-Gordon,
 Q-Chem, Version 3.1, Q-Chem, Inc., Pittsburgh, PA (2007).

 Additional authors for Version 3.1: 
 Z. Gan, Y. Zhao, N. E. Schultz, D. Truhlar, E. Epifanovsky and M. Oana.

 Additional authors for Version 3.2: 
 R. Baer, B. R. Brooks, D. Casanova, J.-D. Chai, C.-L. Cheng, 
 C. Cramer, D. Crittenden, A. Ghysels, G. Hawkins, E. G. Hohenstein, 
 C. Kelley, W. Kurlancheek, D. Liotard, E. Livshits, P. Manohar, 
 A. Marenich, D. Neuhauser, R. Olson, M. A. Rohrdanz, K. S. Thanthiriwatte, 
 A. J. W. Thom, V. Vanovschi, C. F. Williams, Q. Wu and Z.-Q. You. 


 Intel X86 Linux Version

 Q-chem begins on Tue Jun  4 12:35:46 2013  

 Parallel job on  1  processors
Processing $rem in /usr/local/qchem/config/preferences.

theFileMan(): MAXOPENFILES=974 MAX_SUB_FILE_NUM=16
Maximum size of a physical file is 2.0 GB, maximum size of a tmp-file is 32.0 GB


--------------------------------------------------------------
User input:
--------------------------------------------------------------

$molecule
1,3
Cl
O,1,R

R=1.61959205

$end

$comment
positive
$end

$xc_functional
C PBE   1.00
X wPBE  1.00
$end

$rem
SYMMETRY_DECOMPOSITION	0
LRC_DFT                 true
exchange 		general
BASIS                   g3large
omega			460
mem_static              760
max_scf_cycles          200
scf_final_print         1
sym_ignore              true
$end

--------------------------------------------------------------
 Writing REM_CC_EA            2
 ----------------------------------------------------
       Standard Nuclear Orientation (Angstroms)
    I     Atom         X            Y            Z
 ----------------------------------------------------
    1      Cl      0.000000     0.000000     0.000000
    2      O       0.000000     0.000000     1.619592
 ----------------------------------------------------
 Nuclear Repulsion Energy =    44.4359434024 hartrees
 There are       13 alpha and       11 beta electrons
 Requested basis set is G3large
 There are 29 shells and 108 basis functions

Total QAlloc Memory Limit   2000 MB
Mega-Array Size       743 MB
MEM_STATIC part       760 MB

                       Distance Matrix (Angstroms)
             Cl(  1)
   O (  2)  1.619592
 
 A cutoff of  1.0D-08 yielded    413 shell pairs
 There are   5908 function pairs (  8221 Cartesian)
Evaluating contribution to one-electron hamiltonian from nuclear
 Smallest overlap matrix eigenvalue = 3.44E-03
 Multipole matrices computed through 2nd order

  Scale SEOQF with 1.000000e-01/1.000000e-01/1.000000e-01

 Standard Electronic Orientation quadrupole field applied
 Nucleus-field energy     =    -0.0000000022 hartrees
 Guess from superposition of atomic densities
 Warning:  Energy on first SCF cycle will be non-variational
 Long-range K will be added via erf
 Coulomb attenuation parameter = 0.46 bohr**(-1)
 An unrestricted Kohn-Sham SCF calculation will be
 performed using Pulay DIIS extrapolation
 Exchange:  wPBE + LR-HF      Correlation:  PBE
 Using SG-1 standard quadrature grid
 SCF converges when DIIS error is below 1.0E-05
 Requested basis set is G3large
 There are 29 shells and 108 basis functions
 A cutoff of  1.0D-08 yielded    413 shell pairs
 There are   5908 function pairs (  8221 Cartesian)
 Warning!  Inaccurate integrated density:
   Number of electrons =    24
   Numerical integral  =    25.000136978023
   Relative error      =     4.1672374084 %
 ---------------------------------------
  Cycle       Energy         DIIS Error
 ---------------------------------------
    1    -535.1783301128      2.92E-02
    2    -534.6281242042      7.08E-03
    3    -534.7100218924      3.58E-03
    4    -534.7211593966      1.04E-03
    5    -534.7230451720      8.28E-04
    6    -534.7248385753      3.14E-04
    7    -534.7257580828      1.79E-04
    8    -534.7261832269      6.21E-05
    9    -534.7262645364      2.81E-05
   10    -534.7263003788      1.91E-05
   11    -534.7263224374      1.46E-05
   12    -534.7263372990      7.80E-06 Convergence criterion met
 ---------------------------------------
 One-Electron    Energy =  -817.0399952972
 Total Coulomb   Energy =   273.9990603523
 Alpha Exchange  Energy =    -3.0779914944
 Beta  Exchange  Energy =    -2.5688051544
 DFT   Exchange  Energy =   -29.5910435402
 DFT Correlation Energy =    -0.8835055654
 Nuclear Repu.   Energy =    44.4359434002
 Nuclear Attr.   Energy = -1350.7461520855
 Kinetic         Energy =   533.7061567883
 <S^2> = 2.0188
 SCF time:  CPU 33.16 s  wall 33.83 s
 Final Alpha MO Eigenvalues
            1           2           3           4           5           6
    1-101.3987881 -19.5445122  -9.9096479  -7.7268012  -7.7186561  -7.7185476
            7           8           9          10          11          12
    1  -1.6450377  -1.3412058  -0.9972995  -0.9971251  -0.9960828  -0.8335110
           13          14          15          16          17          18
    1  -0.8334108  -0.3083688  -0.1130633  -0.0616633  -0.0616426  -0.0515455
 Final Beta MO Eigenvalues
            1           2           3           4           5           6
    1-101.3937479 -19.5088349  -9.9051235  -7.7251871  -7.7098399  -7.7097920
            7           8           9          10          11          12
    1  -1.5812636  -1.2630951  -0.9586487  -0.8718085  -0.8717942  -0.4253259
           13          14          15          16
    1  -0.4250406  -0.2818774  -0.1108811  -0.0594507
 Analysis of SCF Wavefunction
 
 --------------------------------------------------------------
                    Orbital Energies (a.u.)
 --------------------------------------------------------------
 
 Alpha MOs
 -- Occupied --
******* -19.545  -9.910  -7.727  -7.719  -7.719  -1.645  -1.341
 -0.997  -0.997  -0.996  -0.834  -0.833
 -- Virtual --
 -0.308  -0.113  -0.062  -0.062  -0.052   0.030   0.039   0.039
  0.039   0.039   0.120   0.120   0.136   0.260   0.291   0.312
  0.312   0.764   0.784   0.796   0.796   0.798   0.798   0.831
  0.832   0.864   0.864   0.905   0.905   0.930   0.976   0.976
  1.264   1.345   1.359   1.359   1.718   1.718   1.927   1.969
  1.969   2.407   3.952   4.001   4.001   4.027   4.027   4.033
  4.034   4.467   4.472   4.473   4.538   4.538   4.655   4.657
  4.677   4.677   4.756   4.757   4.859   5.120   5.121   5.783
  6.335   6.335   6.660   6.660   7.219   9.350  20.124  20.125
 20.387  26.648  26.728  26.765  26.765  26.938  36.381  36.381
 36.381  36.381  36.386  36.386  36.408  43.143  43.206  43.321
 43.321  43.386  45.059  45.059  45.312  49.234 215.125
 
 Beta MOs
 -- Occupied --
******* -19.509  -9.905  -7.725  -7.710  -7.710  -1.581  -1.263
 -0.959  -0.872  -0.872
 -- Virtual --
 -0.425  -0.425  -0.282  -0.111  -0.059  -0.059  -0.049   0.033
  0.060   0.060   0.067   0.068   0.138   0.138   0.140   0.274
  0.301   0.324   0.324   0.777   0.799   0.825   0.825   0.830
  0.830   0.850   0.850   0.900   0.900   0.928   0.928   0.939
  0.997   0.997   1.312   1.367   1.430   1.430   1.753   1.753
  1.949   1.997   1.997   2.420   3.972   4.021   4.021   4.062
  4.062   4.075   4.075   4.489   4.519   4.519   4.615   4.615
  4.681   4.682   4.780   4.780   4.815   4.815   4.907   5.158
  5.158   5.815   6.489   6.489   6.749   6.749   7.274   9.360
 20.138  20.138  20.388  26.660  26.740  26.771  26.771  26.943
 36.384  36.384  36.384  36.385  36.389  36.389  36.410  43.233
 43.296  43.371  43.371  43.424  45.123  45.123  45.337  49.270
215.130
 --------------------------------------------------------------
 
          Ground-State Mulliken Net Atomic Charges

     Atom                 Charge (a.u.)    Spin (a.u.)
  --------------------------------------------------------
      1 Cl                    0.653028       0.652489
      2 O                     0.346972       1.347511
  --------------------------------------------------------
  Sum of atomic charges =     1.000000
  Sum of spin   charges =     2.000000

 -----------------------------------------------------------------
                    Cartesian Multipole Moments
 -----------------------------------------------------------------
    Charge (ESU x 10^10)
                 4.8032
    Dipole Moment (Debye)
         X      -0.0002      Y       0.0000      Z       1.5748
       Tot       1.5748
    Quadrupole Moments (Debye-Ang)
        XX     -14.5649     XY      -0.0011     YY     -14.5647
        XZ      -0.0020     YZ      -0.0006     ZZ     -10.0411
    Octapole Moments (Debye-Ang^2)
       XXX      -0.0002    XXY       0.0000    XYY      -0.0001
       YYY      -0.0001    XXZ      -7.3634    XYZ       0.0033
       YYZ      -7.3642    XZZ      -0.0026    YZZ      -0.0002
       ZZZ     -15.9295
    Hexadecapole Moments (Debye-Ang^3)
      XXXX     -12.1008   XXXY      -0.0013   XXYY      -4.0334
      XYYY      -0.0013   YYYY     -12.1001   XXXZ      -0.0016
      XXYZ      -0.0002   XYYZ      -0.0005   YYYZ      -0.0005
      XXZZ     -15.3213   XYZZ       0.0044   YYZZ     -15.3224
      XZZZ      -0.0071   YZZZ      -0.0013   ZZZZ     -68.5728
 -----------------------------------------------------------------
 Total job time:  33.95s(wall), 33.28s(cpu) 
 Tue Jun  4 12:36:20 2013

        *************************************************************
        *                                                           *
        *  Thank you very much for using Q-Chem.  Have a nice day.  *
        *                                                           *
        *************************************************************


0 sent ACK to 0 
now end server 0 ... 
