Process 0 of 1 is on cl244.stfx.acenet.ca - thread support 1
initial socket setup ...start
initial socket setup ...done 
now start server 0 ... 

cmd = /usr/bin/ssh clhead /usr/local/qchem/bin/get_hostid 1953418158 > /scratch/tmp/4506655.1.long.q/qchem32204/lic.dat
                  Welcome to Q-Chem
     A Quantum Leap Into The Future Of Chemistry

 Y. Shao, L. Fusti-Molnar, Y. Jung, J. Kussmann, C. Ochsenfeld,
 S. T. Brown, A. T. B. Gilbert, L. V. Slipchenko,S. V. Levchenko,
 D. P. O'Neill, R. A. DiStasio Jr., R. C. Lochan, T. Wang,
 G. J. O. Beran, N. A. Besley, J. M. Herbert, C. Y. Lin,
 T. Van Voorhis, S. H. Chien, A. Sodt, R. P. Steele, 
 V. A. Rassolov, P. E. Maslen, P. P. Korambath, R. D. Adamson,
 B. Austin, J. Baker, E. F. C. Byrd, H. Dachsel, R. J. Doerksen,
 A. Dreuw, B. D. Dunietz, A. D. Dutoi, T. R. Furlani,
 S. R. Gwaltney, A. Heyden, S. Hirata, C.-P. Hsu, G. Kedziora,
 R. Z. Khaliullin, P. Klunzinger, A. M. Lee, M. S. Lee, W. Liang,
 I. Lotan, N. Nair, B. Peters, E. I. Proynov, P. A. Pieniazek, 
 Y. M. Rhee, J. Ritchie, E. Rosta, C. D. Sherrill, 
 A. C. Simmonett, J. E. Subotnik, H. L. Woodcock III,
 W. Zhang, A. T. Bell, A. K. Chakraborty, D. M. Chipman,
 F. J. Keil, A. Warshel, W. J. Hehre, H. F. Schaefer III,
 J. Kong, A. I. Krylov, P. M. W. Gill, M. Head-Gordon,
 Q-Chem, Version 3.1, Q-Chem, Inc., Pittsburgh, PA (2007).

 Additional authors for Version 3.1: 
 Z. Gan, Y. Zhao, N. E. Schultz, D. Truhlar, E. Epifanovsky and M. Oana.

 Additional authors for Version 3.2: 
 R. Baer, B. R. Brooks, D. Casanova, J.-D. Chai, C.-L. Cheng, 
 C. Cramer, D. Crittenden, A. Ghysels, G. Hawkins, E. G. Hohenstein, 
 C. Kelley, W. Kurlancheek, D. Liotard, E. Livshits, P. Manohar, 
 A. Marenich, D. Neuhauser, R. Olson, M. A. Rohrdanz, K. S. Thanthiriwatte, 
 A. J. W. Thom, V. Vanovschi, C. F. Williams, Q. Wu and Z.-Q. You. 


 Intel X86 Linux Version

 Q-chem begins on Sun Apr 24 02:42:21 2011  

 Parallel job on  1  processors
Processing $rem in /usr/local/qchem/config/preferences.

theFileMan(): MAXOPENFILES=974 MAX_SUB_FILE_NUM=16
Maximum size of a physical file is 2.0 GB, maximum size of a tmp-file is 32.0 GB


--------------------------------------------------------------
User input:
--------------------------------------------------------------

$molecule
0,1
C
C,1,CC
O,2,CO,1,OCC
H,3,OH,2,HOC,1,180.,0
X,2,1.,1,XCC,3,180.,0
H,2,CH,5,A1,1,90.,0
H,2,CH,5,A1,1,-90.,0
H,1,CH3,2,H3CC,3,180.,0
X,1,1.,2,YCC,3,0.,0
H,1,CH4,9,A2,2,90.,0
H,1,CH4,9,A2,2,-90.,0

CC=1.51956941
CO=1.42572482
OCC=107.71524991
OH=0.96900438
HOC=107.79856599
XCC=125.0944652
CH=1.10250643
A1=53.62321638
CH3=1.09570069
H3CC=110.65569583
YCC=126.38970148
CH4=1.09498698
A2=54.09129196

$end

$comment
neutral
$end

$xc_functional
   X HF 1.0
   X BNL 1.0
   C LYP 1.0
$end

$rem
SYMMETRY_DECOMPOSITION	0
exchange 		general
BASIS                   g3large
omega			420 
JOBTYPE                 opt
separate_jk		true
mem_static              760
max_scf_cycles          200
scf_final_print         1
sym_ignore              true
$end


--------------------------------------------------------------
 Writing REM_CC_EA            9
 ----------------------------------------------------
       Standard Nuclear Orientation (Angstroms)
    I     Atom         X            Y            Z
 ----------------------------------------------------
    1      C       0.000000     0.000000     0.000000
    2      C       0.000000     0.000000     1.519569
    3      O       1.358118     0.000000     1.953398
    4      H       1.359527     0.000000     2.922402
    5      H      -0.535015     0.887666     1.895507
    6      H      -0.535015    -0.887666     1.895507
    7      H      -1.025266     0.000000    -0.386510
    8      H       0.516975     0.886887    -0.381004
    9      H       0.516975    -0.886887    -0.381004
 ----------------------------------------------------
 Nuclear Repulsion Energy =    81.6053956089 hartrees
 There are       13 alpha and       13 beta electrons
 Requested basis set is G3large
 There are 66 shells and 186 basis functions

Total QAlloc Memory Limit   2000 MB
Mega-Array Size       743 MB
MEM_STATIC part       760 MB
 A cutoff of  1.0D-11 yielded   2154 shell pairs
 There are  17137 function pairs ( 20675 Cartesian)
Evaluating contribution to one-electron hamiltonian from nuclear
 Smallest overlap matrix eigenvalue = 1.01E-04
 Multipole matrices computed through 2nd order

  Scale SEOQF with 1.000000e-01/1.000000e-01/1.000000e-01

 Standard Electronic Orientation quadrupole field applied
 Nucleus-field energy     =    -0.0000000056 hartrees
 Guess from superposition of atomic densities
 Warning:  Energy on first SCF cycle will be non-variational
 A restricted hybrid HF-DFT SCF calculation will be
 performed using Pulay DIIS extrapolation
 Exchange:     1.0000 Hartree-Fock + 1.0000 BNL
 Correlation:  1.0000 LYP
 Using SG-1 standard quadrature grid
 SCF converges when DIIS error is below 1.0E-08
 ---------------------------------------
  Cycle       Energy         DIIS Error
 ---------------------------------------
    1    -153.9905906849      3.22E-02
    2    -153.4001799972      4.09E-03
    3    -153.4252975527      3.74E-03
    4    -153.4645998451      5.35E-04
    5    -153.4654946037      2.07E-04
    6    -153.4656670768      4.35E-05
    7    -153.4656793471      7.73E-06
    8    -153.4656800307      1.67E-06
    9    -153.4656800022      6.76E-07
   10    -153.4656800311      1.83E-07
   11    -153.4656800323      4.16E-08
   12    -153.4656800329      8.70E-09 Convergence criterion met
 ---------------------------------------
 One-Electron    Energy =  -371.2368561498
 Total Coulomb   Energy =   156.1197231753
 Alpha Exchange  Energy =    -2.6935491246
 Beta  Exchange  Energy =    -2.6935491246
 DFT   Exchange  Energy =   -13.7115971245
 DFT Correlation Energy =    -0.8552472879
 Nuclear Repu.   Energy =    81.6053956033
 Nuclear Attr.   Energy =  -523.8539976228
 Kinetic         Energy =   152.6171414730
 SCF time:  CPU 125.79 s  wall 126.49 s
 Final Alpha MO Eigenvalues
            1           2           3           4           5           6
    1 -18.7947363 -10.0321462  -9.9707586  -1.1511346  -0.8926541  -0.7460423
            7           8           9          10          11          12
    1  -0.6508364  -0.5988191  -0.5310709  -0.5014321  -0.4849824  -0.4549865
           13          14          15          16          17          18
    1  -0.3961966   0.0299766   0.0469009   0.0571530   0.0584433   0.0813259
 Analysis of SCF Wavefunction
 
 --------------------------------------------------------------
                    Orbital Energies (a.u.)
 --------------------------------------------------------------
 
 Alpha MOs
 -- Occupied --
-18.795 -10.032  -9.971  -1.151  -0.893  -0.746  -0.651  -0.599
 -0.531  -0.501  -0.485  -0.455  -0.396
 -- Virtual --
  0.030   0.047   0.057   0.058   0.081   0.092   0.121   0.131
  0.138   0.144   0.166   0.171   0.184   0.187   0.245   0.251
  0.254   0.282   0.286   0.302   0.325   0.333   0.344   0.365
  0.404   0.445   0.515   0.519   0.542   0.552   0.609   0.632
  0.644   0.649   0.665   0.680   0.689   0.707   0.729   0.768
  0.816   0.847   0.910   0.916   0.961   0.986   1.028   1.122
  1.132   1.150   1.173   1.214   1.235   1.264   1.266   1.294
  1.306   1.360   1.396   1.402   1.419   1.471   1.511   1.513
  1.543   1.552   1.576   1.588   1.640   1.658   1.704   1.829
  1.961   2.119   2.164   2.336   2.442   2.519   2.599   2.660
  2.718   2.719   2.866   2.940   2.943   2.957   3.056   3.122
  3.169   3.189   3.194   3.309   3.313   3.327   3.385   3.433
  3.481   3.508   3.625   3.644   3.653   3.658   3.692   3.753
  3.823   3.857   3.932   3.986   4.039   4.098   4.127   4.147
  4.159   4.266   4.306   4.344   4.371   4.378   4.412   4.462
  4.565   4.572   4.615   4.687   4.694   4.771   5.090   5.262
  5.285   5.308   5.437   5.553   5.585   5.647   5.681   5.764
  5.768   5.945   6.015   6.496   7.067   7.233   7.275   7.322
  7.622   7.746  24.358  24.512  27.747  28.130  28.161  28.233
 28.253  28.468  40.939  40.959  40.999  41.080  41.229  41.271
 41.287  41.311  41.327  41.371  43.813  43.820  43.882  43.926
 43.969  45.780  46.094  46.478  50.146
 --------------------------------------------------------------
 
          Ground-State Mulliken Net Atomic Charges

     Atom                 Charge (a.u.)
  ----------------------------------------
      1 C                    -0.329938
      2 C                    -0.203968
      3 O                    -0.321498
      4 H                     0.260409
      5 H                     0.111910
      6 H                     0.111910
      7 H                     0.106031
      8 H                     0.132572
      9 H                     0.132572
  ----------------------------------------
  Sum of atomic charges =     0.000000

 -----------------------------------------------------------------
                    Cartesian Multipole Moments
 -----------------------------------------------------------------
    Charge (ESU x 10^10)
                 0.0000
    Dipole Moment (Debye)
         X      -1.4828      Y       0.0000      Z       0.9799
       Tot       1.7773
    Quadrupole Moments (Debye-Ang)
        XX     -23.5056     XY       0.0000     YY     -20.7083
        XZ      -0.7548     YZ       0.0000     ZZ     -14.2748
    Octapole Moments (Debye-Ang^2)
       XXX     -29.0584    XXY       0.0000    XYY      -8.3816
       YYY       0.0000    XXZ     -25.2237    XYZ       0.0000
       YYZ     -23.2698    XZZ      -1.8555    YZZ       0.0000
       ZZZ     -40.2903
    Hexadecapole Moments (Debye-Ang^3)
      XXXX    -112.5766   XXXY       0.0000   XXYY     -24.9324
      XYYY       0.0000   YYYY     -36.5130   XXXZ     -51.3866
      XXYZ       0.0000   XYYZ     -18.9573   YYYZ       0.0000
      XXZZ     -58.9694   XYZZ       0.0000   YYZZ     -54.9122
      XZZZ     -13.6161   YZZZ       0.0000   ZZZZ    -189.5619
 -----------------------------------------------------------------
 Calculating analytic gradient of the SCF energy
 Gradient of AOints
            1           2           3           4           5           6
    1   1.3051545   2.8615562  -7.6815485  -0.6590667   1.9738262   1.9738258
    2  -0.0000005  -0.0000013   0.0000038  -0.0000027  -2.5189912   2.5189916
    3   4.0265505  -1.0823432  -1.0386975  -3.9797530  -1.1877872  -1.1877878
            7           8           9
    1   2.7678655  -1.2708065  -1.2708064
    2   0.0000002  -2.4349120   2.4349121
    3   1.4800397   1.4848890   1.4848894
 Gradient of XC Energy
            1           2           3           4           5           6
    1   0.0004389  -0.0233009   0.1620569   0.0138544  -0.0771005  -0.0771005
    2   0.0000000   0.0000000  -0.0000001   0.0000001   0.1182490  -0.1182491
    3   0.0122489  -0.0165761  -0.1649877   0.2321775   0.0488680   0.0488681
            7           8           9
    1  -0.1392690   0.0702103   0.0702103
    2  -0.0000000   0.1203507  -0.1203507
    3  -0.0559912  -0.0523037  -0.0523038
 Gradient of SCF Energy
            1           2           3           4           5           6
    1   0.0004894  -0.0104671   0.0171290  -0.0034468  -0.0017380  -0.0017380
    2  -0.0000000   0.0000000  -0.0000000   0.0000000  -0.0005910   0.0005909
    3  -0.0119261   0.0118983  -0.0026948   0.0035954  -0.0001959  -0.0001959
            7           8           9
    1   0.0005426  -0.0003856  -0.0003856
    2  -0.0000000  -0.0006472   0.0006472
    3   0.0000835  -0.0002823  -0.0002823
 Max gradient component =       1.713E-02
 RMS gradient           =       5.191E-03
 Gradient time:  CPU 45.28 s  wall 45.41 s
 Geometry Optimization Parameters
   NAtoms,    NIC,     NZ,  NCons,   NDum,   NFix, NCnnct, MaxDiis
        9      51      11       0       0       0       0       0


** GEOMETRY OPTIMIZATION IN DELOCALIZED INTERNAL COORDINATES **
   Searching for a Minimum

   Optimization Cycle:   1

                       Coordinates (Angstroms)
     ATOM              X           Y           Z
    1  C           0.000000    0.000000    0.000000
    2  C           0.000000    0.000000    1.519569
    3  O           1.358118    0.000000    1.953398
    4  H           1.359527    0.000000    2.922402
    5  H          -0.535015    0.887666    1.895507
    6  H          -0.535015   -0.887666    1.895507
    7  H          -1.025266    0.000000   -0.386510
    8  H           0.516975    0.886887   -0.381004
    9  H           0.516975   -0.886887   -0.381004
   Point Group: c1    Number of degrees of freedom:  21


   Energy is   -153.465680033


 Attempting to Generate Delocalized Internal Coordinates

 18 Hessian modes will be used to form the next step
  Hessian Eigenvalues:
     0.012242    0.058430    0.060934    0.110138    0.136062    0.160000
     0.160000    0.160000    0.160000    0.219450    0.304081    0.334065
     0.334065    0.341621    0.342426    0.342426    0.416098    0.535809

 Minimum Search - Taking Simple RFO Step
 Searching for Lamda that Minimizes Along All modes
 Value Taken    Lamda =  -0.00129725
 Step Taken.  Stepsize is  0.073861

                             Maximum     Tolerance    Cnvgd?
         Gradient           0.013124      0.000300      NO
         Displacement       0.058863      0.001200      NO
         Energy change     *********      0.000001      NO


 New Cartesian Coordinates Obtained by Inverse Iteration

 Displacement from previous Coordinates is:  0.082018
 Writing REM_CC_EA            9
 ----------------------------------------------------
       Standard Nuclear Orientation (Angstroms)
    I     Atom         X            Y            Z
 ----------------------------------------------------
    1      C       0.000177     0.000000     0.010489
    2      C      -0.004367     0.000000     1.508557
    3      O       1.335193     0.000000     1.944925
    4      H       1.368806    -0.000001     2.909812
    5      H      -0.530206     0.891362     1.887297
    6      H      -0.530206    -0.891362     1.887297
    7      H      -1.024205     0.000000    -0.380670
    8      H       0.520554     0.888443    -0.364920
    9      H       0.520554    -0.888443    -0.364920
 ----------------------------------------------------
 Nuclear Repulsion Energy =    82.3012743292 hartrees
 There are       13 alpha and       13 beta electrons
 Applying Cartesian multipole field
    Component          Value
    ---------          -----
     (2,0,0)        1.00000E-11
     (0,2,0)        2.00000E-11
     (0,0,2)       -3.00000E-11
 Nucleus-field energy     =    -0.0000000055 hartrees
 Requested basis set is G3large
 There are 66 shells and 186 basis functions
 A cutoff of  1.0D-11 yielded   2154 shell pairs
 There are  17137 function pairs ( 20675 Cartesian)
Evaluating contribution to one-electron hamiltonian from nuclear
 Smallest overlap matrix eigenvalue = 9.59E-05
 Multipole matrices computed through 2nd order
 Guess MOs from SCF MO coefficient file
Reading MOs from coefficient file
Reading MOs from coefficient file
 A restricted hybrid HF-DFT SCF calculation will be
 performed using Pulay DIIS extrapolation
 Exchange:     1.0000 Hartree-Fock + 1.0000 BNL
 Correlation:  1.0000 LYP
 Using SG-1 standard quadrature grid
 SCF converges when DIIS error is below 1.0E-08
 ---------------------------------------
  Cycle       Energy         DIIS Error
 ---------------------------------------
    1    -153.4655444959      6.25E-04
    2    -153.4663281751      9.93E-05
    3    -153.4663542126      6.67E-05
    4    -153.4663650100      2.03E-05
    5    -153.4663662759      4.02E-06
    6    -153.4663663185      1.76E-06
    7    -153.4663664374      3.24E-07
    8    -153.4663663740      6.79E-08
    9    -153.4663663794      1.50E-08
   10    -153.4663663790      4.66E-09 Convergence criterion met
 ---------------------------------------
 One-Electron    Energy =  -372.6072279373
 Total Coulomb   Energy =   156.8132647939
 Alpha Exchange  Energy =    -2.6947631884
 Beta  Exchange  Energy =    -2.6947631884
 DFT   Exchange  Energy =   -13.7276967035
 DFT Correlation Energy =    -0.8564544790
 Nuclear Repu.   Energy =    82.3012743237
 Nuclear Attr.   Energy =  -525.2960318946
 Kinetic         Energy =   152.6888039574
 SCF time:  CPU 103.44 s  wall 104.13 s
 Final Alpha MO Eigenvalues
            1           2           3           4           5           6
    1 -18.7930336 -10.0288651  -9.9688226  -1.1555850  -0.8960691  -0.7451834
            7           8           9          10          11          12
    1  -0.6551429  -0.6027628  -0.5334488  -0.5014307  -0.4843291  -0.4527201
           13          14          15          16          17          18
    1  -0.3943980   0.0301182   0.0472052   0.0570081   0.0585730   0.0814566
 Analysis of SCF Wavefunction
 
 --------------------------------------------------------------
                    Orbital Energies (a.u.)
 --------------------------------------------------------------
 
 Alpha MOs
 -- Occupied --
-18.793 -10.029  -9.969  -1.156  -0.896  -0.745  -0.655  -0.603
 -0.533  -0.501  -0.484  -0.453  -0.394
 -- Virtual --
  0.030   0.047   0.057   0.059   0.081   0.092   0.120   0.131
  0.138   0.144   0.167   0.172   0.184   0.187   0.245   0.252
  0.255   0.283   0.287   0.302   0.331   0.333   0.348   0.367
  0.410   0.445   0.514   0.521   0.543   0.555   0.610   0.635
  0.643   0.650   0.667   0.685   0.696   0.710   0.734   0.769
  0.816   0.850   0.915   0.916   0.961   0.986   1.029   1.122
  1.130   1.154   1.173   1.219   1.234   1.268   1.268   1.300
  1.309   1.367   1.405   1.407   1.426   1.466   1.512   1.515
  1.549   1.550   1.575   1.587   1.638   1.658   1.704   1.838
  1.966   2.121   2.176   2.352   2.448   2.527   2.600   2.661
  2.729   2.734   2.874   2.947   2.951   2.961   3.054   3.142
  3.170   3.191   3.195   3.318   3.323   3.333   3.393   3.424
  3.497   3.518   3.626   3.637   3.648   3.666   3.699   3.763
  3.826   3.859   3.944   3.994   4.047   4.118   4.147   4.161
  4.165   4.277   4.325   4.348   4.377   4.377   4.432   4.479
  4.574   4.576   4.633   4.705   4.709   4.779   5.096   5.260
  5.286   5.316   5.453   5.571   5.592   5.641   5.701   5.767
  5.773   5.974   6.072   6.547   7.073   7.249   7.270   7.336
  7.656   7.748  24.367  24.570  27.797  28.139  28.176  28.240
 28.255  28.460  40.936  40.967  41.001  41.105  41.234  41.280
 41.290  41.315  41.330  41.373  43.813  43.823  43.888  43.941
 43.969  45.788  46.098  46.516  50.157
 --------------------------------------------------------------
 
          Ground-State Mulliken Net Atomic Charges

     Atom                 Charge (a.u.)
  ----------------------------------------
      1 C                    -0.323756
      2 C                    -0.208115
      3 O                    -0.317307
      4 H                     0.261664
      5 H                     0.109489
      6 H                     0.109489
      7 H                     0.105724
      8 H                     0.131407
      9 H                     0.131407
  ----------------------------------------
  Sum of atomic charges =     0.000000

 -----------------------------------------------------------------
                    Cartesian Multipole Moments
 -----------------------------------------------------------------
    Charge (ESU x 10^10)
                 0.0000
    Dipole Moment (Debye)
         X      -1.3901      Y       0.0000      Z       1.0005
       Tot       1.7127
    Quadrupole Moments (Debye-Ang)
        XX     -23.3289     XY       0.0000     YY     -20.6620
        XZ      -0.4950     YZ       0.0000     ZZ     -14.2763
    Octapole Moments (Debye-Ang^2)
       XXX     -28.1779    XXY       0.0000    XYY      -8.1725
       YYY       0.0000    XXZ     -24.7148    XYZ       0.0000
       YYZ     -23.1368    XZZ      -1.1273    YZZ       0.0000
       ZZZ     -40.2029
    Hexadecapole Moments (Debye-Ang^3)
      XXXX    -109.6866   XXXY       0.0000   XXYY     -24.5627
      XYYY       0.0000   YYYY     -36.5558   XXXZ     -49.1578
      XXYZ       0.0000   XYYZ     -18.4436   YYYZ       0.0000
      XXZZ     -56.9805   XYZZ       0.0000   YYZZ     -54.3205
      XZZZ     -11.2754   YZZZ      -0.0001   ZZZZ    -187.2130
 -----------------------------------------------------------------
 Calculating analytic gradient of the SCF energy
 Gradient of AOints
            1           2           3           4           5           6
    1   1.3150123   2.9774152  -7.4754286  -0.8481211   1.9072411   1.9072409
    2   0.0000019  -0.0000014  -0.0000039   0.0000032  -2.5664916   2.5664914
    3   4.1255513  -0.9663186  -1.1656343  -4.0039441  -1.1979125  -1.1979127
            7           8           9
    1   2.7836158  -1.2834875  -1.2834881
    2   0.0000005  -2.4554346   2.4554346
    3   1.4937919   1.4561899   1.4561893
 Gradient of XC Energy
            1           2           3           4           5           6
    1   0.0002930  -0.0294810   0.1525583   0.0235857  -0.0744096  -0.0744096
    2  -0.0000000   0.0000000   0.0000002  -0.0000002   0.1195032  -0.1195032
    3   0.0087766  -0.0199766  -0.1629124   0.2336359   0.0492610   0.0492610
            7           8           9
    1  -0.1392911   0.0705771   0.0705771
    2  -0.0000000   0.1206178  -0.1206178
    3  -0.0564262  -0.0508097  -0.0508097
 Gradient of SCF Energy
            1           2           3           4           5           6
    1   0.0006478  -0.0036482   0.0023779  -0.0006800   0.0007831   0.0007831
    2   0.0000000  -0.0000000   0.0000000  -0.0000000  -0.0001077   0.0001077
    3  -0.0008493  -0.0000503  -0.0008499   0.0008577  -0.0001894  -0.0001894
            7           8           9
    1  -0.0001562  -0.0000537  -0.0000537
    2  -0.0000000   0.0000220  -0.0000220
    3   0.0003943   0.0004381   0.0004381
 Max gradient component =       3.648E-03
 RMS gradient           =       9.412E-04
 Gradient time:  CPU 45.92 s  wall 46.01 s
 Geometry Optimization Parameters
   NAtoms,    NIC,     NZ,  NCons,   NDum,   NFix, NCnnct, MaxDiis
        9      51      11       0       0       0       0       0

 Cartesian Hessian Update
 Hessian Updated using BFGS Update


** GEOMETRY OPTIMIZATION IN DELOCALIZED INTERNAL COORDINATES **
   Searching for a Minimum

   Optimization Cycle:   2

                       Coordinates (Angstroms)
     ATOM              X           Y           Z
    1  C           0.000177    0.000000    0.010489
    2  C          -0.004367    0.000000    1.508557
    3  O           1.335193    0.000000    1.944925
    4  H           1.368806   -0.000001    2.909812
    5  H          -0.530206    0.891362    1.887297
    6  H          -0.530206   -0.891362    1.887297
    7  H          -1.024205    0.000000   -0.380670
    8  H           0.520554    0.888443   -0.364920
    9  H           0.520554   -0.888443   -0.364920
   Point Group: c1    Number of degrees of freedom:  21


   Energy is   -153.466366379

 Hessian Updated using BFGS Update

 14 Hessian modes will be used to form the next step
  Hessian Eigenvalues:
     0.058400    0.063491    0.110413    0.136062    0.146709    0.162954
     0.219150    0.315913    0.338274    0.341705    0.342229    0.342426
     0.392001    0.533041

 Minimum Search - Taking Simple RFO Step
 Searching for Lamda that Minimizes Along All modes
 Value Taken    Lamda =  -0.00004148
 Step Taken.  Stepsize is  0.018414

                             Maximum     Tolerance    Cnvgd?
         Gradient           0.001338      0.000300      NO
         Displacement       0.011886      0.001200      NO
         Energy change     -0.000686      0.000001      NO


 New Cartesian Coordinates Obtained by Inverse Iteration

 Displacement from previous Coordinates is:  0.016535
 Writing REM_CC_EA            9
 ----------------------------------------------------
       Standard Nuclear Orientation (Angstroms)
    I     Atom         X            Y            Z
 ----------------------------------------------------
    1      C       0.000145     0.000000     0.011287
    2      C      -0.003031     0.000000     1.509488
    3      O       1.333234     0.000000     1.947333
    4      H       1.374332    -0.000001     2.910966
    5      H      -0.532923     0.890272     1.887647
    6      H      -0.532922    -0.890271     1.887647
    7      H      -1.023318     0.000000    -0.382297
    8      H       0.520391     0.887610    -0.367102
    9      H       0.520391    -0.887610    -0.367102
 ----------------------------------------------------
 Nuclear Repulsion Energy =    82.3176095645 hartrees
 There are       13 alpha and       13 beta electrons
 Applying Cartesian multipole field
    Component          Value
    ---------          -----
     (2,0,0)        1.00000E-11
     (0,2,0)        2.00000E-11
     (0,0,2)       -3.00000E-11
 Nucleus-field energy     =    -0.0000000056 hartrees
 Requested basis set is G3large
 There are 66 shells and 186 basis functions
 A cutoff of  1.0D-11 yielded   2154 shell pairs
 There are  17137 function pairs ( 20675 Cartesian)
Evaluating contribution to one-electron hamiltonian from nuclear
 Smallest overlap matrix eigenvalue = 9.60E-05
 Multipole matrices computed through 2nd order
 Guess MOs from SCF MO coefficient file
Reading MOs from coefficient file
Reading MOs from coefficient file
 A restricted hybrid HF-DFT SCF calculation will be
 performed using Pulay DIIS extrapolation
 Exchange:     1.0000 Hartree-Fock + 1.0000 BNL
 Correlation:  1.0000 LYP
 Using SG-1 standard quadrature grid
 SCF converges when DIIS error is below 1.0E-08
 ---------------------------------------
  Cycle       Energy         DIIS Error
 ---------------------------------------
    1    -153.4666332306      1.05E-04
    2    -153.4663898222      1.48E-05
    3    -153.4663908639      5.43E-06
    4    -153.4663909905      2.44E-06
    5    -153.4663910787      1.12E-06
    6    -153.4663910860      2.37E-07
    7    -153.4663910790      7.30E-08
    8    -153.4663910830      1.10E-08
    9    -153.4663910833      2.25E-09 Convergence criterion met
 ---------------------------------------
 One-Electron    Energy =  -372.6374773663
 Total Coulomb   Energy =   156.8277617760
 Alpha Exchange  Energy =    -2.6947832300
 Beta  Exchange  Energy =    -2.6947832300
 DFT   Exchange  Energy =   -13.7282375138
 DFT Correlation Energy =    -0.8564810783
 Nuclear Repu.   Energy =    82.3176095589
 Nuclear Attr.   Energy =  -525.3273171551
 Kinetic         Energy =   152.6898397889
 SCF time:  CPU 90.52 s  wall 91.03 s
 Final Alpha MO Eigenvalues
            1           2           3           4           5           6
    1 -18.7930407 -10.0289439  -9.9687973  -1.1562975  -0.8959899  -0.7455656
            7           8           9          10          11          12
    1  -0.6559916  -0.6023307  -0.5339490  -0.5014890  -0.4841187  -0.4522360
           13          14          15          16          17          18
    1  -0.3940854   0.0301388   0.0471994   0.0571012   0.0585251   0.0814353
 Analysis of SCF Wavefunction
 
 --------------------------------------------------------------
                    Orbital Energies (a.u.)
 --------------------------------------------------------------
 
 Alpha MOs
 -- Occupied --
-18.793 -10.029  -9.969  -1.156  -0.896  -0.746  -0.656  -0.602
 -0.534  -0.501  -0.484  -0.452  -0.394
 -- Virtual --
  0.030   0.047   0.057   0.059   0.081   0.092   0.121   0.131
  0.138   0.144   0.167   0.172   0.184   0.187   0.245   0.251
  0.255   0.283   0.287   0.302   0.332   0.333   0.349   0.367
  0.410   0.445   0.514   0.521   0.543   0.556   0.610   0.636
  0.643   0.651   0.667   0.685   0.696   0.711   0.735   0.769
  0.816   0.850   0.916   0.916   0.960   0.987   1.029   1.122
  1.131   1.154   1.174   1.219   1.234   1.268   1.269   1.299
  1.310   1.367   1.404   1.407   1.425   1.465   1.511   1.515
  1.550   1.550   1.576   1.588   1.639   1.658   1.704   1.837
  1.967   2.124   2.177   2.353   2.448   2.527   2.598   2.660
  2.728   2.734   2.874   2.948   2.950   2.963   3.054   3.141
  3.170   3.193   3.196   3.318   3.324   3.334   3.392   3.423
  3.501   3.518   3.626   3.637   3.648   3.665   3.701   3.764
  3.825   3.860   3.941   3.994   4.045   4.116   4.145   4.161
  4.165   4.277   4.326   4.351   4.377   4.377   4.436   4.479
  4.571   4.576   4.631   4.704   4.711   4.777   5.096   5.256
  5.285   5.314   5.453   5.565   5.592   5.639   5.707   5.767
  5.776   5.977   6.082   6.554   7.074   7.251   7.269   7.338
  7.661   7.748  24.367  24.571  27.797  28.141  28.174  28.240
 28.254  28.461  40.936  40.967  41.001  41.105  41.234  41.281
 41.290  41.315  41.331  41.373  43.812  43.824  43.888  43.944
 43.968  45.789  46.097  46.523  50.159
 --------------------------------------------------------------
 
          Ground-State Mulliken Net Atomic Charges

     Atom                 Charge (a.u.)
  ----------------------------------------
      1 C                    -0.323778
      2 C                    -0.208053
      3 O                    -0.316317
      4 H                     0.261963
      5 H                     0.108943
      6 H                     0.108943
      7 H                     0.105869
      8 H                     0.131215
      9 H                     0.131215
  ----------------------------------------
  Sum of atomic charges =     0.000000

 -----------------------------------------------------------------
                    Cartesian Multipole Moments
 -----------------------------------------------------------------
    Charge (ESU x 10^10)
                 0.0000
    Dipole Moment (Debye)
         X      -1.3711      Y       0.0000      Z       1.0018
       Tot       1.6981
    Quadrupole Moments (Debye-Ang)
        XX     -23.2839     XY       0.0000     YY     -20.6787
        XZ      -0.4407     YZ       0.0000     ZZ     -14.2495
    Octapole Moments (Debye-Ang^2)
       XXX     -28.0537    XXY       0.0000    XYY      -8.1580
       YYY       0.0000    XXZ     -24.5992    XYZ       0.0000
       YYZ     -23.1724    XZZ      -0.9665    YZZ       0.0000
       ZZZ     -40.1756
    Hexadecapole Moments (Debye-Ang^3)
      XXXX    -109.3839   XXXY       0.0000   XXYY     -24.5324
      XYYY       0.0000   YYYY     -36.5876   XXXZ     -48.8782
      XXYZ       0.0000   XYYZ     -18.4236   YYYZ       0.0000
      XXZZ     -56.6336   XYZZ       0.0000   YYZZ     -54.4178
      XZZZ     -10.7944   YZZZ      -0.0001   ZZZZ    -187.3041
 -----------------------------------------------------------------
 Calculating analytic gradient of the SCF energy
 Gradient of AOints
            1           2           3           4           5           6
    1   1.3249747   2.9479372  -7.4380360  -0.8957863   1.9229130   1.9229125
    2   0.0000015  -0.0000011  -0.0000037   0.0000031  -2.5532117   2.5532114
    3   4.0990610  -0.9474560  -1.1954999  -4.0068549  -1.1966108  -1.1966117
            7           8           9
    1   2.7781373  -1.2815259  -1.2815264
    2   0.0000005  -2.4463763   2.4463763
    3   1.5077771   1.4680979   1.4680973
 Gradient of XC Energy
            1           2           3           4           5           6
    1  -0.0001072  -0.0286605   0.1508783   0.0259971  -0.0750098  -0.0750098
    2  -0.0000000   0.0000000   0.0000002  -0.0000002   0.1190013  -0.1190013
    3   0.0101455  -0.0206337  -0.1621616   0.2339673   0.0491646   0.0491647
            7           8           9
    1  -0.1390894   0.0705006   0.0705006
    2  -0.0000000   0.1203131  -0.1203131
    3  -0.0569897  -0.0513285  -0.0513285
 Gradient of SCF Energy
            1           2           3           4           5           6
    1   0.0000340  -0.0011373   0.0005307   0.0000521   0.0002851   0.0002851
    2   0.0000000   0.0000000   0.0000000  -0.0000000   0.0000083  -0.0000083
    3  -0.0000953  -0.0004889   0.0003627   0.0000200  -0.0000157  -0.0000157
            7           8           9
    1  -0.0000264  -0.0000117  -0.0000117
    2  -0.0000000   0.0000037  -0.0000037
    3   0.0000006   0.0001161   0.0001161
 Max gradient component =       1.137E-03
 RMS gradient           =       2.822E-04
 Gradient time:  CPU 45.66 s  wall 45.74 s
 Geometry Optimization Parameters
   NAtoms,    NIC,     NZ,  NCons,   NDum,   NFix, NCnnct, MaxDiis
        9      51      11       0       0       0       0       0

 Cartesian Hessian Update
 Hessian Updated using BFGS Update


** GEOMETRY OPTIMIZATION IN DELOCALIZED INTERNAL COORDINATES **
   Searching for a Minimum

   Optimization Cycle:   3

                       Coordinates (Angstroms)
     ATOM              X           Y           Z
    1  C           0.000145    0.000000    0.011287
    2  C          -0.003031    0.000000    1.509488
    3  O           1.333234    0.000000    1.947333
    4  H           1.374332   -0.000001    2.910966
    5  H          -0.532923    0.890272    1.887647
    6  H          -0.532922   -0.890271    1.887647
    7  H          -1.023318    0.000000   -0.382297
    8  H           0.520391    0.887610   -0.367102
    9  H           0.520391   -0.887610   -0.367102
   Point Group: c1    Number of degrees of freedom:  21


   Energy is   -153.466391083

 Hessian Updated using BFGS Update

 14 Hessian modes will be used to form the next step
  Hessian Eigenvalues:
     0.053503    0.054465    0.058536    0.109355    0.150251    0.160516
     0.167328    0.224275    0.315935    0.321362    0.341634    0.341837
     0.370654    0.537477

 Minimum Search - Taking Simple RFO Step
 Searching for Lamda that Minimizes Along All modes
 Value Taken    Lamda =  -0.00000469
 Step Taken.  Stepsize is  0.007420

                             Maximum     Tolerance    Cnvgd?
         Gradient           0.000401      0.000300      NO
         Displacement       0.004474      0.001200      NO
         Energy change     -0.000025      0.000001      NO


 New Cartesian Coordinates Obtained by Inverse Iteration

 Displacement from previous Coordinates is:  0.005288
 Writing REM_CC_EA            9
 ----------------------------------------------------
       Standard Nuclear Orientation (Angstroms)
    I     Atom         X            Y            Z
 ----------------------------------------------------
    1      C       0.000645     0.000000     0.011825
    2      C      -0.002118     0.000000     1.510175
    3      O       1.333016     0.000000     1.947052
    4      H       1.374615    -0.000001     2.910549
    5      H      -0.534051     0.889692     1.887769
    6      H      -0.534051    -0.889692     1.887769
    7      H      -1.022882     0.000000    -0.381461
    8      H       0.520563     0.887368    -0.367906
    9      H       0.520563    -0.887368    -0.367906
 ----------------------------------------------------
 Nuclear Repulsion Energy =    82.3367063523 hartrees
 There are       13 alpha and       13 beta electrons
 Applying Cartesian multipole field
    Component          Value
    ---------          -----
     (2,0,0)        1.00000E-11
     (0,2,0)        2.00000E-11
     (0,0,2)       -3.00000E-11
 Nucleus-field energy     =    -0.0000000056 hartrees
 Requested basis set is G3large
 There are 66 shells and 186 basis functions
 A cutoff of  1.0D-11 yielded   2154 shell pairs
 There are  17137 function pairs ( 20675 Cartesian)
Evaluating contribution to one-electron hamiltonian from nuclear
 Smallest overlap matrix eigenvalue = 9.59E-05
 Multipole matrices computed through 2nd order
 Guess MOs from SCF MO coefficient file
Reading MOs from coefficient file
Reading MOs from coefficient file
 A restricted hybrid HF-DFT SCF calculation will be
 performed using Pulay DIIS extrapolation
 Exchange:     1.0000 Hartree-Fock + 1.0000 BNL
 Correlation:  1.0000 LYP
 Using SG-1 standard quadrature grid
 SCF converges when DIIS error is below 1.0E-08
 ---------------------------------------
  Cycle       Energy         DIIS Error
 ---------------------------------------
    1    -153.4664874094      4.45E-05
    2    -153.4663930213      8.34E-06
    3    -153.4663931025      7.34E-06
    4    -153.4663931496      1.19E-06
    5    -153.4663932428      3.18E-07
    6    -153.4663932539      1.29E-07
    7    -153.4663932480      2.04E-08
    8    -153.4663932486      4.07E-09 Convergence criterion met
 ---------------------------------------
 One-Electron    Energy =  -372.6739293675
 Total Coulomb   Energy =   156.8454776739
 Alpha Exchange  Energy =    -2.6947941357
 Beta  Exchange  Energy =    -2.6947941357
 DFT   Exchange  Energy =   -13.7285546015
 DFT Correlation Energy =    -0.8565050288
 Nuclear Repu.   Energy =    82.3367063468
 Nuclear Attr.   Energy =  -525.3650491112
 Kinetic         Energy =   152.6911197437
 SCF time:  CPU 81.96 s  wall 82.44 s
 Final Alpha MO Eigenvalues
            1           2           3           4           5           6
    1 -18.7931747 -10.0289264  -9.9687341  -1.1568018  -0.8958952  -0.7455883
            7           8           9          10          11          12
    1  -0.6563938  -0.6021962  -0.5341881  -0.5013908  -0.4840396  -0.4522575
           13          14          15          16          17          18
    1  -0.3940109   0.0301301   0.0471968   0.0571312   0.0585071   0.0814516
 Analysis of SCF Wavefunction
 
 --------------------------------------------------------------
                    Orbital Energies (a.u.)
 --------------------------------------------------------------
 
 Alpha MOs
 -- Occupied --
-18.793 -10.029  -9.969  -1.157  -0.896  -0.746  -0.656  -0.602
 -0.534  -0.501  -0.484  -0.452  -0.394
 -- Virtual --
  0.030   0.047   0.057   0.059   0.081   0.092   0.121   0.131
  0.138   0.144   0.167   0.172   0.184   0.187   0.245   0.251
  0.255   0.283   0.288   0.303   0.332   0.333   0.349   0.366
  0.410   0.445   0.514   0.521   0.543   0.556   0.610   0.636
  0.643   0.651   0.667   0.685   0.696   0.711   0.735   0.770
  0.816   0.850   0.915   0.916   0.960   0.987   1.029   1.121
  1.131   1.154   1.174   1.218   1.234   1.268   1.269   1.299
  1.310   1.367   1.404   1.407   1.425   1.466   1.512   1.515
  1.550   1.551   1.576   1.588   1.639   1.657   1.704   1.837
  1.968   2.125   2.178   2.354   2.448   2.527   2.599   2.660
  2.728   2.733   2.874   2.949   2.950   2.963   3.055   3.141
  3.170   3.193   3.196   3.318   3.325   3.334   3.391   3.423
  3.502   3.517   3.626   3.637   3.648   3.664   3.702   3.764
  3.825   3.860   3.941   3.994   4.044   4.114   4.145   4.161
  4.166   4.278   4.326   4.351   4.377   4.378   4.437   4.479
  4.571   4.576   4.630   4.703   4.711   4.776   5.097   5.254
  5.286   5.314   5.453   5.565   5.594   5.640   5.708   5.768
  5.777   5.978   6.084   6.557   7.074   7.252   7.270   7.338
  7.661   7.748  24.367  24.571  27.797  28.142  28.174  28.240
 28.254  28.461  40.936  40.968  41.001  41.105  41.234  41.281
 41.290  41.315  41.331  41.373  43.812  43.824  43.888  43.944
 43.968  45.789  46.098  46.525  50.159
 --------------------------------------------------------------
 
          Ground-State Mulliken Net Atomic Charges

     Atom                 Charge (a.u.)
  ----------------------------------------
      1 C                    -0.324043
      2 C                    -0.208193
      3 O                    -0.315415
      4 H                     0.261985
      5 H                     0.108744
      6 H                     0.108744
      7 H                     0.105848
      8 H                     0.131165
      9 H                     0.131165
  ----------------------------------------
  Sum of atomic charges =     0.000000

 -----------------------------------------------------------------
                    Cartesian Multipole Moments
 -----------------------------------------------------------------
    Charge (ESU x 10^10)
                 0.0000
    Dipole Moment (Debye)
         X      -1.3656      Y       0.0000      Z       1.0046
       Tot       1.6953
    Quadrupole Moments (Debye-Ang)
        XX     -23.2736     XY       0.0000     YY     -20.6853
        XZ      -0.4306     YZ       0.0000     ZZ     -14.2403
    Octapole Moments (Debye-Ang^2)
       XXX     -28.0449    XXY       0.0000    XYY      -8.1580
       YYY       0.0000    XXZ     -24.5761    XYZ       0.0000
       YYZ     -23.1839    XZZ      -0.9438    YZZ       0.0000
       ZZZ     -40.1721
    Hexadecapole Moments (Debye-Ang^3)
      XXXX    -109.3289   XXXY       0.0000   XXYY     -24.5237
      XYYY       0.0000   YYYY     -36.5989   XXXZ     -48.8241
      XXYZ       0.0000   XYYZ     -18.4081   YYYZ       0.0000
      XXZZ     -56.5791   XYZZ       0.0000   YYZZ     -54.4317
      XZZZ     -10.7240   YZZZ      -0.0001   ZZZZ    -187.3018
 -----------------------------------------------------------------
 Calculating analytic gradient of the SCF energy
 Gradient of AOints
            1           2           3           4           5           6
    1   1.3222426   2.9371092  -7.4426656  -0.8990579   1.9325680   1.9325676
    2   0.0000019  -0.0000012  -0.0000036   0.0000030  -2.5467252   2.5467249
    3   4.0887670  -0.9544570  -1.1927222  -4.0080630  -1.1942699  -1.1942708
            7           8           9
    1   2.7777366  -1.2802500  -1.2802506
    2   0.0000003  -2.4434838   2.4434837
    3   1.5072308   1.4738928   1.4738924
 Gradient of XC Energy
            1           2           3           4           5           6
    1   0.0000501  -0.0283566   0.1511004   0.0261598  -0.0753726  -0.0753726
    2  -0.0000000   0.0000000   0.0000002  -0.0000002   0.1187606  -0.1187606
    3   0.0106454  -0.0204249  -0.1622421   0.2340250   0.0490461   0.0490462
            7           8           9
    1  -0.1390840   0.0704377   0.0704377
    2  -0.0000000   0.1202088  -0.1202088
    3  -0.0569527  -0.0515716  -0.0515715
 Gradient of SCF Energy
            1           2           3           4           5           6
    1   0.0000531  -0.0000795  -0.0000328  -0.0000142   0.0000115   0.0000115
    2  -0.0000000   0.0000000   0.0000000  -0.0000000  -0.0000015   0.0000015
    3   0.0001305  -0.0000105   0.0000429  -0.0001084   0.0000007   0.0000007
            7           8           9
    1   0.0000280   0.0000113   0.0000113
    2   0.0000000   0.0000034  -0.0000034
    3  -0.0000044  -0.0000258  -0.0000258
 Max gradient component =       1.305E-04
 RMS gradient           =       4.029E-05
 Gradient time:  CPU 50.38 s  wall 50.46 s
 Geometry Optimization Parameters
   NAtoms,    NIC,     NZ,  NCons,   NDum,   NFix, NCnnct, MaxDiis
        9      51      11       0       0       0       0       0

 Cartesian Hessian Update
 Hessian Updated using BFGS Update


** GEOMETRY OPTIMIZATION IN DELOCALIZED INTERNAL COORDINATES **
   Searching for a Minimum

   Optimization Cycle:   4

                       Coordinates (Angstroms)
     ATOM              X           Y           Z
    1  C           0.000645    0.000000    0.011825
    2  C          -0.002118    0.000000    1.510175
    3  O           1.333016    0.000000    1.947052
    4  H           1.374615   -0.000001    2.910549
    5  H          -0.534051    0.889692    1.887769
    6  H          -0.534051   -0.889692    1.887769
    7  H          -1.022882    0.000000   -0.381461
    8  H           0.520563    0.887368   -0.367906
    9  H           0.520563   -0.887368   -0.367906
   Point Group: c1    Number of degrees of freedom:  21


   Energy is   -153.466393249

 Hessian Updated using BFGS Update

 13 Hessian modes will be used to form the next step
  Hessian Eigenvalues:
     0.048269    0.058554    0.109350    0.155861    0.161053    0.166944
     0.237734    0.309532    0.324696    0.341756    0.342798    0.387255
     0.538707

 Minimum Search - Taking Simple RFO Step
 Searching for Lamda that Minimizes Along All modes
 Value Taken    Lamda =   0.00000000
 Step Taken.  Stepsize is  0.001063

                             Maximum     Tolerance    Cnvgd?
         Gradient           0.000143      0.000300     YES
         Displacement       0.000563      0.001200     YES
         Energy change     -0.000002      0.000001      NO


                       Distance Matrix (Angstroms)
             C (  1)   C (  2)   O (  3)   H (  4)   H (  5)   H (  6)
   C (  2)  1.498353
   O (  3)  2.349535  1.404793
   H (  4)  3.207864  1.963782  0.964395
   H (  5)  2.143973  1.103214  2.069059  2.341076
   H (  6)  2.143973  1.103214  2.069059  2.341075  1.779384
   H (  7)  1.096486  2.149475  3.312435  4.072507  2.485943  2.485943
   H (  8)  1.096327  2.141916  2.608933  3.502156  2.490037  3.059122
   H (  9)  1.096327  2.141916  2.608933  3.502155  3.059122  2.490037
             H (  7)   H (  8)
   H (  8)  1.780401
   H (  9)  1.780401  1.774737
 


 ******************************
 **  OPTIMIZATION CONVERGED  **
 ******************************
 Analysis of SCF Wavefunction
 
 --------------------------------------------------------------
                    Orbital Energies (a.u.)
 --------------------------------------------------------------
 
 Alpha MOs
 -- Occupied --
-18.793 -10.029  -9.969  -1.157  -0.896  -0.746  -0.656  -0.602
 -0.534  -0.501  -0.484  -0.452  -0.394
 -- Virtual --
  0.030   0.047   0.057   0.059   0.081   0.092   0.121   0.131
  0.138   0.144   0.167   0.172   0.184   0.187   0.245   0.251
  0.255   0.283   0.288   0.303   0.332   0.333   0.349   0.366
  0.410   0.445   0.514   0.521   0.543   0.556   0.610   0.636
  0.643   0.651   0.667   0.685   0.696   0.711   0.735   0.770
  0.816   0.850   0.915   0.916   0.960   0.987   1.029   1.121
  1.131   1.154   1.174   1.218   1.234   1.268   1.269   1.299
  1.310   1.367   1.404   1.407   1.425   1.466   1.512   1.515
  1.550   1.551   1.576   1.588   1.639   1.657   1.704   1.837
  1.968   2.125   2.178   2.354   2.448   2.527   2.599   2.660
  2.728   2.733   2.874   2.949   2.950   2.963   3.055   3.141
  3.170   3.193   3.196   3.318   3.325   3.334   3.391   3.423
  3.502   3.517   3.626   3.637   3.648   3.664   3.702   3.764
  3.825   3.860   3.941   3.994   4.044   4.114   4.145   4.161
  4.166   4.278   4.326   4.351   4.377   4.378   4.437   4.479
  4.571   4.576   4.630   4.703   4.711   4.776   5.097   5.254
  5.286   5.314   5.453   5.565   5.594   5.640   5.708   5.768
  5.777   5.978   6.084   6.557   7.074   7.252   7.270   7.338
  7.661   7.748  24.367  24.571  27.797  28.142  28.174  28.240
 28.254  28.461  40.936  40.968  41.001  41.105  41.234  41.281
 41.290  41.315  41.331  41.373  43.812  43.824  43.888  43.944
 43.968  45.789  46.098  46.525  50.159
 --------------------------------------------------------------
 
          Ground-State Mulliken Net Atomic Charges

     Atom                 Charge (a.u.)
  ----------------------------------------
      1 C                    -0.324043
      2 C                    -0.208193
      3 O                    -0.315415
      4 H                     0.261985
      5 H                     0.108744
      6 H                     0.108744
      7 H                     0.105848
      8 H                     0.131165
      9 H                     0.131165
  ----------------------------------------
  Sum of atomic charges =     0.000000

 -----------------------------------------------------------------
                    Cartesian Multipole Moments
 -----------------------------------------------------------------
    Charge (ESU x 10^10)
                 0.0000
    Dipole Moment (Debye)
         X      -1.3656      Y       0.0000      Z       1.0046
       Tot       1.6953
    Quadrupole Moments (Debye-Ang)
        XX     -23.2736     XY       0.0000     YY     -20.6853
        XZ      -0.4306     YZ       0.0000     ZZ     -14.2403
    Octapole Moments (Debye-Ang^2)
       XXX     -28.0449    XXY       0.0000    XYY      -8.1580
       YYY       0.0000    XXZ     -24.5761    XYZ       0.0000
       YYZ     -23.1839    XZZ      -0.9438    YZZ       0.0000
       ZZZ     -40.1721
    Hexadecapole Moments (Debye-Ang^3)
      XXXX    -109.3289   XXXY       0.0000   XXYY     -24.5237
      XYYY       0.0000   YYYY     -36.5989   XXXZ     -48.8241
      XXYZ       0.0000   XYYZ     -18.4081   YYYZ       0.0000
      XXZZ     -56.5791   XYZZ       0.0000   YYZZ     -54.4317
      XZZZ     -10.7240   YZZZ      -0.0001   ZZZZ    -187.3018
 -----------------------------------------------------------------
 Total job time:  592.47s(wall), 589.66s(cpu) 
 Sun Apr 24 02:52:13 2011

        *************************************************************
        *                                                           *
        *  Thank you very much for using Q-Chem.  Have a nice day.  *
        *                                                           *
        *************************************************************


0 sent ACK to 0 
now end server 0 ... 
 
**********************************************************************
Job 2 of 2 
**********************************************************************
 
Process 0 of 1 is on cl244.stfx.acenet.ca - thread support 1
initial socket setup ...start
initial socket setup ...done 
now start server 0 ... 

cmd = /usr/bin/ssh clhead /usr/local/qchem/bin/get_hostid 1372881277 > /scratch/tmp/4506655.1.long.q/qchem32204/lic.dat
                  Welcome to Q-Chem
     A Quantum Leap Into The Future Of Chemistry

 Y. Shao, L. Fusti-Molnar, Y. Jung, J. Kussmann, C. Ochsenfeld,
 S. T. Brown, A. T. B. Gilbert, L. V. Slipchenko,S. V. Levchenko,
 D. P. O'Neill, R. A. DiStasio Jr., R. C. Lochan, T. Wang,
 G. J. O. Beran, N. A. Besley, J. M. Herbert, C. Y. Lin,
 T. Van Voorhis, S. H. Chien, A. Sodt, R. P. Steele, 
 V. A. Rassolov, P. E. Maslen, P. P. Korambath, R. D. Adamson,
 B. Austin, J. Baker, E. F. C. Byrd, H. Dachsel, R. J. Doerksen,
 A. Dreuw, B. D. Dunietz, A. D. Dutoi, T. R. Furlani,
 S. R. Gwaltney, A. Heyden, S. Hirata, C.-P. Hsu, G. Kedziora,
 R. Z. Khaliullin, P. Klunzinger, A. M. Lee, M. S. Lee, W. Liang,
 I. Lotan, N. Nair, B. Peters, E. I. Proynov, P. A. Pieniazek, 
 Y. M. Rhee, J. Ritchie, E. Rosta, C. D. Sherrill, 
 A. C. Simmonett, J. E. Subotnik, H. L. Woodcock III,
 W. Zhang, A. T. Bell, A. K. Chakraborty, D. M. Chipman,
 F. J. Keil, A. Warshel, W. J. Hehre, H. F. Schaefer III,
 J. Kong, A. I. Krylov, P. M. W. Gill, M. Head-Gordon,
 Q-Chem, Version 3.1, Q-Chem, Inc., Pittsburgh, PA (2007).

 Additional authors for Version 3.1: 
 Z. Gan, Y. Zhao, N. E. Schultz, D. Truhlar, E. Epifanovsky and M. Oana.

 Additional authors for Version 3.2: 
 R. Baer, B. R. Brooks, D. Casanova, J.-D. Chai, C.-L. Cheng, 
 C. Cramer, D. Crittenden, A. Ghysels, G. Hawkins, E. G. Hohenstein, 
 C. Kelley, W. Kurlancheek, D. Liotard, E. Livshits, P. Manohar, 
 A. Marenich, D. Neuhauser, R. Olson, M. A. Rohrdanz, K. S. Thanthiriwatte, 
 A. J. W. Thom, V. Vanovschi, C. F. Williams, Q. Wu and Z.-Q. You. 


 Intel X86 Linux Version

 Q-chem begins on Sun Apr 24 02:52:16 2011  

 Parallel job on  1  processors
Processing $rem in /usr/local/qchem/config/preferences.

theFileMan(): MAXOPENFILES=974 MAX_SUB_FILE_NUM=16
Maximum size of a physical file is 2.0 GB, maximum size of a tmp-file is 32.0 GB


--------------------------------------------------------------
User input:
--------------------------------------------------------------

$molecule 
READ 
$end 

$xc_functional
   X HF 1.0
   X BNL 1.0
   C LYP 1.0
$end

$rem
SYMMETRY_DECOMPOSITION	0
exchange 		general
BASIS                   g3large
omega			420 
JOBTYPE                 freq
IDERIV 1
SCF_GUESS READ
separate_jk		true
mem_static              760
max_scf_cycles          200
scf_final_print         1
sym_ignore              true
$end

--------------------------------------------------------------
 Writing REM_CC_EA            9
 ----------------------------------------------------
       Standard Nuclear Orientation (Angstroms)
    I     Atom         X            Y            Z
 ----------------------------------------------------
    1      C       0.000645     0.000000     0.011825
    2      C      -0.002118     0.000000     1.510175
    3      O       1.333016     0.000000     1.947052
    4      H       1.374615    -0.000001     2.910549
    5      H      -0.534051     0.889692     1.887769
    6      H      -0.534051    -0.889692     1.887769
    7      H      -1.022882     0.000000    -0.381461
    8      H       0.520563     0.887368    -0.367906
    9      H       0.520563    -0.887368    -0.367906
 ----------------------------------------------------
 Nuclear Repulsion Energy =    82.3367063523 hartrees
 There are       13 alpha and       13 beta electrons
 Requested basis set is G3large
 There are 66 shells and 186 basis functions

Total QAlloc Memory Limit   2000 MB
Mega-Array Size       759 MB
MEM_STATIC part       760 MB

                       Distance Matrix (Angstroms)
             C (  1)   C (  2)   O (  3)   H (  4)   H (  5)   H (  6)
   C (  2)  1.498353
   O (  3)  2.349535  1.404793
   H (  4)  3.207864  1.963782  0.964395
   H (  5)  2.143973  1.103214  2.069059  2.341076
   H (  6)  2.143973  1.103214  2.069059  2.341075  1.779384
   H (  7)  1.096486  2.149475  3.312435  4.072507  2.485943  2.485943
   H (  8)  1.096327  2.141916  2.608933  3.502156  2.490037  3.059122
   H (  9)  1.096327  2.141916  2.608933  3.502155  3.059122  2.490037
             H (  7)   H (  8)
   H (  8)  1.780401
   H (  9)  1.780401  1.774737
 
 A cutoff of  1.0D-11 yielded   2154 shell pairs
 There are  17137 function pairs ( 20675 Cartesian)
Evaluating contribution to one-electron hamiltonian from nuclear
 Smallest overlap matrix eigenvalue = 9.59E-05
 Multipole matrices computed through 2nd order
 Guess MOs from SCF MO coefficient file
Reading MOs from coefficient file
Reading MOs from coefficient file
 A restricted hybrid HF-DFT SCF calculation will be
 performed using Pulay DIIS extrapolation
 Exchange:     1.0000 Hartree-Fock + 1.0000 BNL
 Correlation:  1.0000 LYP
 Using SG-1 standard quadrature grid
 SCF converges when DIIS error is below 1.0E-08
 ---------------------------------------
  Cycle       Energy         DIIS Error
 ---------------------------------------
    1    -153.4663932428      1.12E-09
    2    -153.4663932429      7.81E-10 Convergence criterion met
 ---------------------------------------
 One-Electron    Energy =  -372.6739292641
 Total Coulomb   Energy =   156.8454775392
 Alpha Exchange  Energy =    -2.6947941376
 Beta  Exchange  Energy =    -2.6947941376
 DFT   Exchange  Energy =   -13.7285545672
 DFT Correlation Energy =    -0.8565050277
 Nuclear Repu.   Energy =    82.3367063523
 Nuclear Attr.   Energy =  -525.3650486231
 Kinetic         Energy =   152.6911193590
 SCF time:  CPU 22.91 s  wall 23.03 s
 Final Alpha MO Eigenvalues
            1           2           3           4           5           6
    1 -18.7931747 -10.0289264  -9.9687341  -1.1568018  -0.8958952  -0.7455883
            7           8           9          10          11          12
    1  -0.6563938  -0.6021962  -0.5341880  -0.5013908  -0.4840396  -0.4522575
           13          14          15          16          17          18
    1  -0.3940109   0.0301301   0.0471967   0.0571312   0.0585071   0.0814516
 Analysis of SCF Wavefunction
 
 --------------------------------------------------------------
                    Orbital Energies (a.u.)
 --------------------------------------------------------------
 
 Alpha MOs
 -- Occupied --
-18.793 -10.029  -9.969  -1.157  -0.896  -0.746  -0.656  -0.602
 -0.534  -0.501  -0.484  -0.452  -0.394
 -- Virtual --
  0.030   0.047   0.057   0.059   0.081   0.092   0.121   0.131
  0.138   0.144   0.167   0.172   0.184   0.187   0.245   0.251
  0.255   0.283   0.288   0.303   0.332   0.333   0.349   0.366
  0.410   0.445   0.514   0.521   0.543   0.556   0.610   0.636
  0.643   0.651   0.667   0.685   0.696   0.711   0.735   0.770
  0.816   0.850   0.915   0.916   0.960   0.987   1.029   1.121
  1.131   1.154   1.174   1.218   1.234   1.268   1.269   1.299
  1.310   1.367   1.404   1.407   1.425   1.466   1.512   1.515
  1.550   1.551   1.576   1.588   1.639   1.657   1.704   1.837
  1.968   2.125   2.178   2.354   2.448   2.527   2.599   2.660
  2.728   2.733   2.874   2.949   2.950   2.963   3.055   3.141
  3.170   3.193   3.196   3.318   3.325   3.334   3.391   3.423
  3.502   3.517   3.626   3.637   3.648   3.664   3.702   3.764
  3.825   3.860   3.941   3.994   4.044   4.114   4.145   4.161
  4.166   4.278   4.326   4.351   4.377   4.378   4.437   4.479
  4.571   4.576   4.630   4.703   4.711   4.776   5.097   5.254
  5.286   5.314   5.453   5.565   5.594   5.640   5.708   5.768
  5.777   5.978   6.084   6.557   7.074   7.252   7.270   7.338
  7.661   7.748  24.367  24.571  27.797  28.142  28.174  28.240
 28.254  28.461  40.936  40.968  41.001  41.105  41.234  41.281
 41.290  41.315  41.331  41.373  43.812  43.824  43.888  43.944
 43.968  45.789  46.098  46.525  50.159
 --------------------------------------------------------------
 
          Ground-State Mulliken Net Atomic Charges

     Atom                 Charge (a.u.)
  ----------------------------------------
      1 C                    -0.324043
      2 C                    -0.208193
      3 O                    -0.315415
      4 H                     0.261985
      5 H                     0.108744
      6 H                     0.108744
      7 H                     0.105848
      8 H                     0.131165
      9 H                     0.131165
  ----------------------------------------
  Sum of atomic charges =     0.000000

 -----------------------------------------------------------------
                    Cartesian Multipole Moments
 -----------------------------------------------------------------
    Charge (ESU x 10^10)
                 0.0000
    Dipole Moment (Debye)
         X      -1.3656      Y       0.0000      Z       1.0046
       Tot       1.6953
    Quadrupole Moments (Debye-Ang)
        XX     -23.2736     XY       0.0000     YY     -20.6853
        XZ      -0.4306     YZ       0.0000     ZZ     -14.2403
    Octapole Moments (Debye-Ang^2)
       XXX     -28.0449    XXY       0.0000    XYY      -8.1580
       YYY       0.0000    XXZ     -24.5761    XYZ       0.0000
       YYZ     -23.1839    XZZ      -0.9438    YZZ       0.0000
       ZZZ     -40.1721
    Hexadecapole Moments (Debye-Ang^3)
      XXXX    -109.3289   XXXY       0.0000   XXYY     -24.5237
      XYYY       0.0000   YYYY     -36.5989   XXXZ     -48.8241
      XXYZ       0.0000   XYYZ     -18.4081   YYYZ       0.0000
      XXZZ     -56.5791   XYZZ       0.0000   YYZZ     -54.4317
      XZZZ     -10.7240   YZZZ      -0.0001   ZZZZ    -187.3018
 -----------------------------------------------------------------
 Calculating analytic gradient of the SCF energy
 Gradient of AOints
            1           2           3           4           5           6
    1   1.3222431   2.9371092  -7.4426657  -0.8990579   1.9325680   1.9325675
    2   0.0000019  -0.0000012  -0.0000037   0.0000030  -2.5467251   2.5467248
    3   4.0887664  -0.9544569  -1.1927219  -4.0080634  -1.1942699  -1.1942708
            7           8           9
    1   2.7777367  -1.2802501  -1.2802507
    2   0.0000003  -2.4434840   2.4434839
    3   1.5072310   1.4738930   1.4738925
 Gradient of XC Energy
            1           2           3           4           5           6
    1   0.0000501  -0.0283566   0.1511004   0.0261598  -0.0753726  -0.0753725
    2  -0.0000000   0.0000000   0.0000002  -0.0000002   0.1187606  -0.1187606
    3   0.0106454  -0.0204249  -0.1622421   0.2340250   0.0490461   0.0490462
            7           8           9
    1  -0.1390840   0.0704377   0.0704377
    2  -0.0000000   0.1202088  -0.1202088
    3  -0.0569527  -0.0515716  -0.0515715
 Gradient of SCF Energy
            1           2           3           4           5           6
    1   0.0000531  -0.0000795  -0.0000328  -0.0000142   0.0000115   0.0000115
    2  -0.0000000   0.0000000   0.0000000  -0.0000000  -0.0000015   0.0000015
    3   0.0001305  -0.0000105   0.0000429  -0.0001084   0.0000007   0.0000007
            7           8           9
    1   0.0000280   0.0000113   0.0000113
    2   0.0000000   0.0000034  -0.0000034
    3  -0.0000044  -0.0000258  -0.0000258
 Max gradient component =       1.305E-04
 RMS gradient           =       4.029E-05
 Gradient time:  CPU 49.62 s  wall 49.71 s
 ######################################################
 ######################################################
 # Starting finite difference calculation for IDERIV  #
 Finite diff step size: 1.89e-03 a.u.
 Writing REM_CC_EA            9
 ----------------------------------------------------
       Standard Nuclear Orientation (Angstroms)
    I     Atom         X            Y            Z
 ----------------------------------------------------
    1      C       0.001645     0.000000     0.011825
    2      C      -0.002118     0.000000     1.510175
    3      O       1.333016     0.000000     1.947052
    4      H       1.374615    -0.000001     2.910549
    5      H      -0.534051     0.889692     1.887769
    6      H      -0.534051    -0.889692     1.887769
    7      H      -1.022882     0.000000    -0.381461
    8      H       0.520563     0.887368    -0.367906
    9      H       0.520563    -0.887368    -0.367906
 ----------------------------------------------------
 Nuclear Repulsion Energy =    82.3391259854 hartrees
 There are       13 alpha and       13 beta electrons

                       Distance Matrix (Angstroms)
             C (  1)   C (  2)   O (  3)   H (  4)   H (  5)   H (  6)
   C (  2)  1.498355
   O (  3)  2.348968  1.404793
   H (  4)  3.207436  1.963782  0.964395
   H (  5)  2.144222  1.103214  2.069059  2.341076
   H (  6)  2.144222  1.103214  2.069059  2.341075  1.779384
   H (  7)  1.097420  2.149475  3.312435  4.072507  2.485943  2.485943
   H (  8)  1.095853  2.141916  2.608933  3.502156  2.490037  3.059122
   H (  9)  1.095853  2.141916  2.608933  3.502155  3.059122  2.490037
             H (  7)   H (  8)
   H (  8)  1.780401
   H (  9)  1.780401  1.774737
 
 Requested basis set is G3large
 There are 66 shells and 186 basis functions
 A cutoff of  1.0D-11 yielded   2154 shell pairs
 There are  17137 function pairs ( 20675 Cartesian)
Evaluating contribution to one-electron hamiltonian from nuclear
 Smallest overlap matrix eigenvalue = 9.59E-05
 Multipole matrices computed through 2nd order
 Guess MOs from SCF MO coefficient file
Reading MOs from coefficient file
Reading MOs from coefficient file
 A restricted hybrid HF-DFT SCF calculation will be
 performed using Pulay DIIS extrapolation
 Exchange:     1.0000 Hartree-Fock + 1.0000 BNL
 Correlation:  1.0000 LYP
 Using SG-1 standard quadrature grid
 SCF converges when DIIS error is below 1.0E-08
 ---------------------------------------
  Cycle       Energy         DIIS Error
 ---------------------------------------
    1    -153.4663928455      2.42E-05
    2    -153.4663920573      2.94E-06
    3    -153.4663920912      1.15E-06
    4    -153.4663921020      3.85E-07
    5    -153.4663920977      1.99E-07
    6    -153.4663920984      3.54E-08
    7    -153.4663920994      1.05E-08
    8    -153.4663920988      2.11E-09 Convergence criterion met
 ---------------------------------------
 One-Electron    Energy =  -372.6789143153
 Total Coulomb   Energy =   156.8480677862
 Alpha Exchange  Energy =    -2.6947953084
 Beta  Exchange  Energy =    -2.6947953084
 DFT   Exchange  Energy =   -13.7285744897
 DFT Correlation Energy =    -0.8565064486
 Nuclear Repu.   Energy =    82.3391259854
 Nuclear Attr.   Energy =  -525.3702117327
 Kinetic         Energy =   152.6912974174
 SCF time:  CPU 79.12 s  wall 79.60 s
 Final Alpha MO Eigenvalues
            1           2           3           4           5           6
    1 -18.7931529 -10.0289245  -9.9687280  -1.1567959  -0.8958786  -0.7455924
            7           8           9          10          11          12
    1  -0.6563767  -0.6022400  -0.5341917  -0.5011250  -0.4841962  -0.4522948
           13          14          15          16          17          18
    1  -0.3940206   0.0301257   0.0472001   0.0571270   0.0585115   0.0814652
 Analysis of SCF Wavefunction
 
 --------------------------------------------------------------
                    Orbital Energies (a.u.)
 --------------------------------------------------------------
 
 Alpha MOs
 -- Occupied --
-18.793 -10.029  -9.969  -1.157  -0.896  -0.746  -0.656  -0.602
 -0.534  -0.501  -0.484  -0.452  -0.394
 -- Virtual --
  0.030   0.047   0.057   0.059   0.081   0.092   0.121   0.131
  0.138   0.144   0.167   0.172   0.184   0.187   0.245   0.251
  0.255   0.283   0.287   0.303   0.332   0.333   0.349   0.366
  0.410   0.445   0.514   0.521   0.543   0.556   0.610   0.636
  0.643   0.651   0.667   0.685   0.696   0.711   0.735   0.770
  0.816   0.850   0.915   0.916   0.960   0.987   1.029   1.121
  1.131   1.154   1.174   1.218   1.234   1.268   1.269   1.299
  1.310   1.367   1.404   1.407   1.425   1.465   1.512   1.515
  1.550   1.551   1.576   1.588   1.639   1.657   1.704   1.837
  1.968   2.125   2.178   2.354   2.448   2.527   2.599   2.660
  2.728   2.733   2.874   2.949   2.950   2.963   3.055   3.141
  3.170   3.193   3.196   3.318   3.325   3.334   3.391   3.423
  3.501   3.517   3.625   3.637   3.648   3.664   3.702   3.764
  3.825   3.860   3.941   3.994   4.045   4.114   4.146   4.161
  4.166   4.278   4.326   4.351   4.376   4.378   4.437   4.479
  4.571   4.576   4.632   4.703   4.710   4.776   5.097   5.254
  5.286   5.314   5.453   5.565   5.593   5.639   5.708   5.767
  5.778   5.978   6.084   6.557   7.074   7.252   7.270   7.338
  7.661   7.748  24.367  24.571  27.797  28.142  28.174  28.239
 28.254  28.461  40.936  40.968  41.001  41.105  41.234  41.281
 41.290  41.315  41.331  41.373  43.812  43.824  43.888  43.944
 43.968  45.789  46.098  46.525  50.159
 --------------------------------------------------------------
 
          Ground-State Mulliken Net Atomic Charges

     Atom                 Charge (a.u.)
  ----------------------------------------
      1 C                    -0.324012
      2 C                    -0.208277
      3 O                    -0.315353
      4 H                     0.261940
      5 H                     0.108773
      6 H                     0.108773
      7 H                     0.105606
      8 H                     0.131276
      9 H                     0.131276
  ----------------------------------------
  Sum of atomic charges =     0.000000

 -----------------------------------------------------------------
                    Cartesian Multipole Moments
 -----------------------------------------------------------------
    Charge (ESU x 10^10)
                 0.0000
    Dipole Moment (Debye)
         X      -1.3656      Y       0.0000      Z       1.0047
       Tot       1.6953
    Quadrupole Moments (Debye-Ang)
        XX     -23.2757     XY       0.0000     YY     -20.6834
        XZ      -0.4326     YZ       0.0000     ZZ     -14.2402
    Octapole Moments (Debye-Ang^2)
       XXX     -28.0575    XXY       0.0000    XYY      -8.1622
       YYY       0.0000    XXZ     -24.5764    XYZ       0.0000
       YYZ     -23.1843    XZZ      -0.9520    YZZ       0.0000
       ZZZ     -40.1725
    Hexadecapole Moments (Debye-Ang^3)
      XXXX    -109.3378   XXXY       0.0000   XXYY     -24.5245
      XYYY       0.0000   YYYY     -36.5888   XXXZ     -48.8293
      XXYZ       0.0000   XYYZ     -18.4095   YYYZ       0.0000
      XXZZ     -56.5847   XYZZ       0.0000   YYZZ     -54.4287
      XZZZ     -10.7418   YZZZ      -0.0001   ZZZZ    -187.3067
 -----------------------------------------------------------------
 Calculating analytic gradient of the SCF energy
 Gradient of AOints
            1           2           3           4           5           6
    1   1.3092055   2.9434806  -7.4416731  -0.8988647   1.9326187   1.9326183
    2   0.0000020  -0.0000012  -0.0000037   0.0000031  -2.5468870   2.5468867
    3   4.0896807  -0.9552649  -1.1919304  -4.0078281  -1.1949696  -1.1949705
            7           8           9
    1   2.7769501  -1.2771674  -1.2771680
    2   0.0000003  -2.4457780   2.4457778
    3   1.5051490   1.4750670   1.4750666
 Gradient of XC Energy
            1           2           3           4           5           6
    1   0.0004016  -0.0285263   0.1510744   0.0261518  -0.0753713  -0.0753713
    2  -0.0000000   0.0000000   0.0000002  -0.0000002   0.1187654  -0.1187654
    3   0.0106484  -0.0203966  -0.1622988   0.2340138   0.0490656   0.0490656
            7           8           9
    1  -0.1390048   0.0703230   0.0703230
    2  -0.0000000   0.1203240  -0.1203240
    3  -0.0568469  -0.0516256  -0.0516256
 Gradient of SCF Energy
            1           2           3           4           5           6
    1   0.0011693  -0.0002301  -0.0000522  -0.0000270   0.0000152   0.0000152
    2  -0.0000000   0.0000000   0.0000000  -0.0000000  -0.0000041   0.0000041
    3   0.0001390   0.0000360  -0.0000546  -0.0001166   0.0000289   0.0000289
            7           8           9
    1  -0.0005075  -0.0001914  -0.0001914
    2   0.0000000  -0.0001943   0.0001943
    3  -0.0001680   0.0000532   0.0000532
 Max gradient component =       1.169E-03
 RMS gradient           =       2.655E-04
 Gradient time:  CPU 48.65 s  wall 48.74 s
 Writing REM_CC_EA            9
 ----------------------------------------------------
       Standard Nuclear Orientation (Angstroms)
    I     Atom         X            Y            Z
 ----------------------------------------------------
    1      C      -0.000355     0.000000     0.011825
    2      C      -0.002118     0.000000     1.510175
    3      O       1.333016     0.000000     1.947052
    4      H       1.374615    -0.000001     2.910549
    5      H      -0.534051     0.889692     1.887769
    6      H      -0.534051    -0.889692     1.887769
    7      H      -1.022882     0.000000    -0.381461
    8      H       0.520563     0.887368    -0.367906
    9      H       0.520563    -0.887368    -0.367906
 ----------------------------------------------------
 Nuclear Repulsion Energy =    82.3342827395 hartrees
 There are       13 alpha and       13 beta electrons

                       Distance Matrix (Angstroms)
             C (  1)   C (  2)   O (  3)   H (  4)   H (  5)   H (  6)
   C (  2)  1.498351
   O (  3)  2.350102  1.404793
   H (  4)  3.208293  1.963782  0.964395
   H (  5)  2.143724  1.103214  2.069059  2.341076
   H (  6)  2.143724  1.103214  2.069059  2.341075  1.779384
   H (  7)  1.095553  2.149475  3.312435  4.072507  2.485943  2.485943
   H (  8)  1.096801  2.141916  2.608933  3.502156  2.490037  3.059122
   H (  9)  1.096801  2.141916  2.608933  3.502155  3.059122  2.490037
             H (  7)   H (  8)
   H (  8)  1.780401
   H (  9)  1.780401  1.774737
 
 Requested basis set is G3large
 There are 66 shells and 186 basis functions
 A cutoff of  1.0D-11 yielded   2154 shell pairs
 There are  17137 function pairs ( 20675 Cartesian)
Evaluating contribution to one-electron hamiltonian from nuclear
 Smallest overlap matrix eigenvalue = 9.59E-05
 Multipole matrices computed through 2nd order
 Guess MOs from SCF MO coefficient file
Reading MOs from coefficient file
Reading MOs from coefficient file
 A restricted hybrid HF-DFT SCF calculation will be
 performed using Pulay DIIS extrapolation
 Exchange:     1.0000 Hartree-Fock + 1.0000 BNL
 Correlation:  1.0000 LYP
 Using SG-1 standard quadrature grid
 SCF converges when DIIS error is below 1.0E-08
 ---------------------------------------
  Cycle       Energy         DIIS Error
 ---------------------------------------
    1    -153.4663929297      4.84E-05
    2    -153.4663920421      5.89E-06
    3    -153.4663922564      2.31E-06
    4    -153.4663922596      7.72E-07
    5    -153.4663922472      3.97E-07
    6    -153.4663922696      7.14E-08
    7    -153.4663922676      2.11E-08
    8    -153.4663922690      4.20E-09 Convergence criterion met
 ---------------------------------------
 One-Electron    Energy =  -372.6689301294
 Total Coulomb   Energy =   156.8428789781
 Alpha Exchange  Energy =    -2.6947928609
 Beta  Exchange  Energy =    -2.6947928609
 DFT   Exchange  Energy =   -13.7285345499
 DFT Correlation Energy =    -0.8565035855
 Nuclear Repu.   Energy =    82.3342827395
 Nuclear Attr.   Energy =  -525.3598733638
 Kinetic         Energy =   152.6909432343
 SCF time:  CPU 81.02 s  wall 81.55 s
 Final Alpha MO Eigenvalues
            1           2           3           4           5           6
    1 -18.7931966 -10.0289284  -9.9687406  -1.1568078  -0.8959118  -0.7455846
            7           8           9          10          11          12
    1  -0.6564110  -0.6021525  -0.5341847  -0.5016563  -0.4838831  -0.4522201
           13          14          15          16          17          18
    1  -0.3940012   0.0301345   0.0471933   0.0571354   0.0585026   0.0814379
 Analysis of SCF Wavefunction
 
 --------------------------------------------------------------
                    Orbital Energies (a.u.)
 --------------------------------------------------------------
 
 Alpha MOs
 -- Occupied --
-18.793 -10.029  -9.969  -1.157  -0.896  -0.746  -0.656  -0.602
 -0.534  -0.502  -0.484  -0.452  -0.394
 -- Virtual --
  0.030   0.047   0.057   0.059   0.081   0.092   0.121   0.131
  0.138   0.144   0.167   0.172   0.184   0.187   0.245   0.251
  0.255   0.283   0.288   0.303   0.332   0.333   0.348   0.366
  0.410   0.445   0.514   0.521   0.543   0.556   0.610   0.636
  0.643   0.651   0.667   0.685   0.696   0.711   0.735   0.769
  0.816   0.850   0.916   0.916   0.960   0.987   1.029   1.121
  1.131   1.154   1.174   1.218   1.234   1.268   1.269   1.299
  1.310   1.367   1.403   1.407   1.425   1.466   1.512   1.515
  1.551   1.551   1.576   1.588   1.638   1.658   1.703   1.837
  1.968   2.126   2.178   2.353   2.448   2.527   2.598   2.660
  2.729   2.733   2.874   2.948   2.950   2.963   3.055   3.141
  3.170   3.193   3.197   3.318   3.324   3.334   3.391   3.423
  3.502   3.517   3.626   3.637   3.648   3.664   3.702   3.764
  3.825   3.859   3.941   3.995   4.043   4.115   4.145   4.162
  4.166   4.278   4.326   4.351   4.377   4.377   4.437   4.479
  4.570   4.576   4.629   4.703   4.711   4.776   5.097   5.254
  5.285   5.314   5.453   5.566   5.594   5.640   5.707   5.769
  5.776   5.978   6.084   6.557   7.074   7.252   7.270   7.338
  7.661   7.748  24.367  24.571  27.797  28.142  28.174  28.241
 28.253  28.461  40.936  40.968  41.001  41.105  41.234  41.281
 41.290  41.315  41.331  41.373  43.812  43.823  43.888  43.944
 43.968  45.789  46.098  46.525  50.159
 --------------------------------------------------------------
 
          Ground-State Mulliken Net Atomic Charges

     Atom                 Charge (a.u.)
  ----------------------------------------
      1 C                    -0.324076
      2 C                    -0.208108
      3 O                    -0.315476
      4 H                     0.262030
      5 H                     0.108715
      6 H                     0.108715
      7 H                     0.106090
      8 H                     0.131055
      9 H                     0.131054
  ----------------------------------------
  Sum of atomic charges =     0.000000

 -----------------------------------------------------------------
                    Cartesian Multipole Moments
 -----------------------------------------------------------------
    Charge (ESU x 10^10)
                 0.0000
    Dipole Moment (Debye)
         X      -1.3657      Y       0.0000      Z       1.0045
       Tot       1.6953
    Quadrupole Moments (Debye-Ang)
        XX     -23.2715     XY       0.0000     YY     -20.6872
        XZ      -0.4285     YZ       0.0000     ZZ     -14.2404
    Octapole Moments (Debye-Ang^2)
       XXX     -28.0324    XXY       0.0000    XYY      -8.1538
       YYY       0.0000    XXZ     -24.5757    XYZ       0.0000
       YYZ     -23.1835    XZZ      -0.9355    YZZ       0.0000
       ZZZ     -40.1716
    Hexadecapole Moments (Debye-Ang^3)
      XXXX    -109.3202   XXXY       0.0000   XXYY     -24.5228
      XYYY       0.0000   YYYY     -36.6091   XXXZ     -48.8189
      XXYZ       0.0000   XYYZ     -18.4067   YYYZ       0.0000
      XXZZ     -56.5734   XYZZ       0.0000   YYZZ     -54.4346
      XZZZ     -10.7062   YZZZ      -0.0001   ZZZZ    -187.2969
 -----------------------------------------------------------------
 Calculating analytic gradient of the SCF energy
 Gradient of AOints
            1           2           3           4           5           6
    1   1.3352754   2.9307371  -7.4436581  -0.8992500   1.9325171   1.9325166
    2   0.0000018  -0.0000011  -0.0000037   0.0000031  -2.5465632   2.5465629
    3   4.0878472  -0.9536398  -1.1935142  -4.0082982  -1.1935697  -1.1935706
            7           8           9
    1   2.7785189  -1.2833282  -1.2833288
    2   0.0000004  -2.4411869   2.4411868
    3   1.5093131   1.4727163   1.4727159
 Gradient of XC Energy
            1           2           3           4           5           6
    1  -0.0003012  -0.0281869   0.1511265   0.0261678  -0.0753738  -0.0753738
    2  -0.0000000   0.0000000   0.0000002  -0.0000002   0.1187558  -0.1187558
    3   0.0106426  -0.0204534  -0.1621853   0.2340362   0.0490267   0.0490267
            7           8           9
    1  -0.1391628   0.0705521   0.0705521
    2  -0.0000000   0.1200934  -0.1200934
    3  -0.0570584  -0.0515175  -0.0515174
 Gradient of SCF Energy
            1           2           3           4           5           6
    1  -0.0010663   0.0000712  -0.0000134  -0.0000015   0.0000077   0.0000077
    2  -0.0000000   0.0000000   0.0000000  -0.0000000   0.0000011  -0.0000011
    3   0.0001198  -0.0000567   0.0001404  -0.0001002  -0.0000275  -0.0000275
            7           8           9
    1   0.0005664   0.0002140   0.0002140
    2   0.0000000   0.0002005  -0.0002005
    3   0.0001607  -0.0001045  -0.0001045
 Max gradient component =       1.066E-03
 RMS gradient           =       2.533E-04
 Gradient time:  CPU 51.35 s  wall 51.49 s
 Writing REM_CC_EA            9
 ----------------------------------------------------
       Standard Nuclear Orientation (Angstroms)
    I     Atom         X            Y            Z
 ----------------------------------------------------
    1      C       0.000645     0.001000     0.011825
    2      C      -0.002118     0.000000     1.510175
    3      O       1.333016     0.000000     1.947052
    4      H       1.374615    -0.000001     2.910549
    5      H      -0.534051     0.889692     1.887769
    6      H      -0.534051    -0.889692     1.887769
    7      H      -1.022882     0.000000    -0.381461
    8      H       0.520563     0.887368    -0.367906
    9      H       0.520563    -0.887368    -0.367906
 ----------------------------------------------------
 Nuclear Repulsion Energy =    82.3367034611 hartrees
 There are       13 alpha and       13 beta electrons

                       Distance Matrix (Angstroms)
             C (  1)   C (  2)   O (  3)   H (  4)   H (  5)   H (  6)
   C (  2)  1.498353
   O (  3)  2.349535  1.404793
   H (  4)  3.207864  1.963782  0.964395
   H (  5)  2.143558  1.103214  2.069059  2.341076
   H (  6)  2.144388  1.103214  2.069059  2.341075  1.779384
   H (  7)  1.096486  2.149475  3.312435  4.072507  2.485943  2.485943
   H (  8)  1.095518  2.141916  2.608933  3.502156  2.490037  3.059122
   H (  9)  1.097136  2.141916  2.608933  3.502155  3.059122  2.490037
[...]
Order 1, Length 27
   0.0245298   0.0000023  -0.2414034  -0.0363578   0.0000029   0.5541494  -0.0258188  -0.0000001  -0.1081530  -0.0429482   0.0000019  -0.0103566   0.0391454  -0.0718594  -0.0813607   0.0391462   0.0718531  -0.0813603   0.0028914  -0.0000026  -0.0037167  -0.0002937  -0.0005897  -0.0138954  -0.0002946   0.0005891  -0.0138979
Order 1, Length 27
  -0.0102845   0.0000000  -0.0100861  -0.2599278   0.0000012  -0.0258188   0.3777235  -0.0000004   0.0946253  -0.0411378  -0.0000011  -0.0356167  -0.0348251   0.0032495  -0.0115902  -0.0348265  -0.0032502  -0.0115904   0.0009974  -0.0000015  -0.0005134   0.0011360   0.0007498   0.0002926   0.0011364  -0.0007492   0.0002928
Order 1, Length 27
  -0.0000013   0.0043598  -0.0000010   0.0000006  -0.0656689  -0.0000001  -0.0000004   0.0463521   0.0000005   0.0000001  -0.0017819  -0.0000001   0.0274737   0.0080218   0.0102007  -0.0274741   0.0080209  -0.0101991   0.0000004   0.0007733   0.0000008   0.0006497  -0.0000362  -0.0014142  -0.0006491  -0.0000377   0.0014141
Order 1, Length 27
  -0.0515962  -0.0000013  -0.0191317  -0.0638808  -0.0000016  -0.1081530   0.0946253   0.0000005   0.6486848   0.0149732   0.0000014  -0.5310934   0.0029825   0.0044413   0.0056675   0.0029826  -0.0044379   0.0056643  -0.0004146  -0.0000028  -0.0090996   0.0001632   0.0000490   0.0037313   0.0001643  -0.0000479   0.0037316
Order 1, Length 27
  -0.0067574  -0.0000010  -0.0009162  -0.0046676   0.0000002  -0.0429482  -0.0411378   0.0000001   0.0149732   0.0511569  -0.0000004   0.0300979   0.0005533   0.0009973   0.0000143   0.0005532  -0.0009971   0.0000148   0.0003369   0.0000002  -0.0017653  -0.0000179   0.0001876   0.0002635  -0.0000175  -0.0001872   0.0002645
Order 1, Length 27
   0.0000008  -0.0002884  -0.0000000   0.0000000  -0.0014816   0.0000019  -0.0000011  -0.0017819   0.0000014  -0.0000004   0.0021196   0.0000000  -0.0001982   0.0002188   0.0007459   0.0001980   0.0002202  -0.0007510   0.0000008   0.0007211  -0.0000005   0.0000158   0.0001334  -0.0000916  -0.0000166   0.0001348   0.0000915
Order 1, Length 27
  -0.0043263  -0.0000003  -0.0003735   0.0064683   0.0000020  -0.0103566  -0.0356167  -0.0000001  -0.5310934   0.0300979   0.0000000   0.5396608   0.0015920   0.0002457   0.0010070   0.0015902  -0.0002486   0.0010107   0.0001746   0.0000034  -0.0006647   0.0000112  -0.0001825   0.0004006   0.0000096   0.0001826   0.0004018
Order 1, Length 27
   0.0019642  -0.0008124   0.0004044  -0.0942732   0.0846713   0.0391454  -0.0348251   0.0274737   0.0029825   0.0005533  -0.0001982   0.0015920   0.1174901  -0.1015841  -0.0394950   0.0083253  -0.0102187  -0.0043918   0.0002758  -0.0000349   0.0003846  -0.0003360   0.0004203   0.0000182   0.0008241   0.0002832  -0.0006432
Order 1, Length 27
  -0.0013753   0.0015641   0.0008214   0.0891079  -0.2218984  -0.0718594   0.0032495   0.0080218   0.0044413   0.0009973   0.0002188   0.0002457  -0.1015841   0.2303549   0.0765380   0.0102203  -0.0206466  -0.0095997  -0.0001661  -0.0000909  -0.0007642  -0.0000280   0.0010157  -0.0001921  -0.0004202   0.0014583   0.0003719
Order 1, Length 27
   0.0149156  -0.0287817  -0.0129143   0.0408520  -0.0693024  -0.0813607  -0.0115902   0.0102007   0.0056675   0.0000143   0.0007459   0.0010070  -0.0394950   0.0765380   0.0860338  -0.0043910   0.0096032   0.0053184  -0.0005016   0.0001388   0.0009589   0.0001904   0.0004321   0.0016969   0.0000048   0.0004259  -0.0064079
Order 1, Length 27
   0.0019631   0.0008130   0.0004051  -0.0942724  -0.0846725   0.0391462  -0.0348265  -0.0274741   0.0029826   0.0005532   0.0001980   0.0015902   0.0083253   0.0102203  -0.0043910   0.1174926   0.1015847  -0.0394942   0.0002763   0.0000341   0.0003842   0.0008226  -0.0002836  -0.0006443  -0.0003345  -0.0004214   0.0000185
Order 1, Length 27
   0.0013753   0.0015622  -0.0008213  -0.0891067  -0.2218964   0.0718531  -0.0032502   0.0080209  -0.0044379  -0.0009971   0.0002202  -0.0002486  -0.0102187  -0.0206466   0.0096032   0.1015847   0.2303529  -0.0765340   0.0001653  -0.0000928   0.0007645   0.0004199   0.0014591  -0.0003732   0.0000269   0.0010168   0.0001917
Order 1, Length 27
   0.0149177   0.0287850  -0.0129133   0.0408493   0.0692985  -0.0813603  -0.0115904  -0.0101991   0.0056643   0.0000148  -0.0007510   0.0010107  -0.0043918  -0.0095997   0.0053184  -0.0394942  -0.0765340   0.0860327  -0.0005013  -0.0001373   0.0009590   0.0000040  -0.0004277  -0.0064071   0.0001928  -0.0004341   0.0016965
Order 1, Length 27
  -0.2841504  -0.0000027  -0.0909619   0.0011399   0.0000010   0.0028914   0.0009974   0.0000004  -0.0004146   0.0003369   0.0000008   0.0001746   0.0002758  -0.0001661  -0.0005016   0.0002763   0.0001653  -0.0005013   0.3037149   0.0000010   0.0984460  -0.0112958   0.0015707  -0.0045657  -0.0112963  -0.0015688  -0.0045660
Order 1, Length 27
  -0.0000007  -0.0453690   0.0000002   0.0000017  -0.0024808  -0.0000026  -0.0000015   0.0007733  -0.0000028   0.0000002   0.0007211   0.0000034  -0.0000349  -0.0000909   0.0001388   0.0000341  -0.0000928  -0.0001373   0.0000010   0.0434457   0.0000003  -0.0228109   0.0015470  -0.0107067   0.0228113   0.0015466   0.0107069
Order 1, Length 27
  -0.0869574   0.0000001  -0.0817792  -0.0313212  -0.0000006  -0.0037167  -0.0005134   0.0000008  -0.0090996  -0.0017653  -0.0000005  -0.0006647   0.0003846  -0.0007642   0.0009589   0.0003842   0.0007645   0.0009590   0.0984460   0.0000003   0.0860010   0.0106712  -0.0015777   0.0036698   0.0106703   0.0015774   0.0036699
Order 1, Length 27
  -0.1072618  -0.1044046   0.0442425  -0.0013294  -0.0003596  -0.0002937   0.0011360   0.0006497   0.0001632  -0.0000179   0.0000158   0.0000112  -0.0003360  -0.0000280   0.0001904   0.0008226   0.0004199   0.0000040  -0.0112958  -0.0228109   0.0106712   0.1103465   0.1139229  -0.0487489   0.0079353   0.0125930  -0.0062415
Order 1, Length 27
  -0.1044712  -0.2278475   0.0743387   0.0004958   0.0012220  -0.0005897   0.0007498  -0.0000362   0.0000490   0.0001876   0.0001334  -0.0001825   0.0004203   0.0010157   0.0004321  -0.0002836   0.0014591  -0.0004277   0.0015707   0.0015470  -0.0015777   0.1139229   0.2407318  -0.0805026  -0.0125934  -0.0182295   0.0084574
Order 1, Length 27
   0.0417153   0.0717137  -0.0760622   0.0179113   0.0300252  -0.0138954   0.0002926  -0.0014142   0.0037313   0.0002635  -0.0000916   0.0004006   0.0000182  -0.0001921   0.0016969  -0.0006443  -0.0003732  -0.0064071  -0.0045657  -0.0107067   0.0036698  -0.0487489  -0.0805026   0.0836902  -0.0062410  -0.0084572   0.0031777
Order 1, Length 27
  -0.1072616   0.1044031   0.0442433  -0.0013322   0.0003606  -0.0002946   0.0011364  -0.0006491   0.0001643  -0.0000175  -0.0000166   0.0000096   0.0008241  -0.0004202   0.0000048  -0.0003345   0.0000269   0.0001928  -0.0112963   0.0228113   0.0106703   0.0079353  -0.0125934  -0.0062410   0.1103459  -0.1139221  -0.0487487
Order 1, Length 27
   0.1044712  -0.2278461  -0.0743400  -0.0004982   0.0012232   0.0005891  -0.0007492  -0.0000377  -0.0000479  -0.0001872   0.0001348   0.0001826   0.0002832   0.0014583   0.0004259  -0.0004214   0.0010168  -0.0004341  -0.0015688   0.0015466   0.0015774   0.0125930  -0.0182295  -0.0084572  -0.1139221   0.2407317   0.0805024
Order 1, Length 27
   0.0417155  -0.0717133  -0.0760619   0.0179082  -0.0300229  -0.0138979   0.0002928   0.0014141   0.0037316   0.0002645   0.0000915   0.0004018  -0.0006432   0.0003719  -0.0064079   0.0000185   0.0001917   0.0016965  -0.0045660   0.0107069   0.0036699  -0.0062415   0.0084574   0.0031777  -0.0487487   0.0805024   0.0836894


 # Finishing finite difference calculation for IDERIV #
 ######################################################
 ######################################################
 Requested basis set is G3large
 There are 66 shells and 186 basis functions
 **********************************************************************
 **                                                                  **
 **                       VIBRATIONAL ANALYSIS                       **
 **                       --------------------                       **
 **                                                                  **
 **        VIBRATIONAL FREQUENCIES (CM**-1) AND NORMAL MODES         **
 **     FORCE CONSTANTS (mDYN/ANGSTROM) AND REDUCED MASSES (AMU)     **
 **                  INFRARED INTENSITIES (KM/MOL)                   **
 **                                                                  **
 **********************************************************************
 

 Mode:                 1                      2                      3
 Frequency:       233.79                 272.81                 427.57
 Force Cnst:      0.0369                 0.0473                 0.2714
 Red. Mass:       1.1454                 1.0776                 2.5193
 IR Active:          YES                    YES                    YES
 IR Intens:      104.838                 33.740                 13.416
 Raman Active:       YES                    YES                    YES
               X      Y      Z        X      Y      Z        X      Y      Z
 C          0.000  0.027  0.000    0.000  0.015  0.000   -0.135  0.000 -0.135
 C          0.000  0.014  0.000    0.000 -0.076  0.000    0.149  0.000 -0.107
 O          0.000 -0.092  0.000    0.000  0.016  0.000    0.056  0.000  0.215
 H          0.000  0.825  0.000    0.000  0.572  0.000   -0.273  0.000  0.229
 H          0.059  0.046  0.004   -0.061 -0.129  0.034    0.102 -0.012 -0.145
 H         -0.059  0.046 -0.004    0.061 -0.129 -0.034    0.102  0.012 -0.145
 H          0.000 -0.302  0.000    0.000  0.500  0.000   -0.306  0.000  0.295
 H         -0.269  0.176 -0.019    0.386 -0.168  0.100   -0.334  0.014 -0.377
 H          0.269  0.176  0.019   -0.386 -0.168 -0.100   -0.334 -0.014 -0.377
 TransDip   0.000  0.328  0.000    0.000  0.186  0.000   -0.096  0.000 -0.067

 Mode:                 4                      5                      6
 Frequency:       818.96                 930.78                1056.64
 Force Cnst:      0.4270                 0.9546                 1.0500
 Red. Mass:       1.0805                 1.8702                 1.5961
 IR Active:          YES                    YES                    YES
 IR Intens:        0.943                  6.499                 37.514
 Raman Active:       YES                    YES                    YES
               X      Y      Z        X      Y      Z        X      Y      Z
 C          0.000 -0.048  0.000    0.129  0.000  0.153    0.091  0.000 -0.131
 C          0.000 -0.061  0.000    0.086  0.000 -0.066   -0.050  0.000  0.151
 O          0.000  0.020  0.000   -0.120  0.000 -0.070   -0.041  0.000  0.015
 H          0.000 -0.017  0.000   -0.081  0.000 -0.076    0.725  0.000 -0.025
 H          0.170  0.217 -0.406   -0.033  0.003 -0.220   -0.118 -0.005  0.081
 H         -0.170  0.217  0.406   -0.033 -0.003 -0.220   -0.118  0.005  0.081
 H          0.000  0.189  0.000   -0.136  0.000  0.834   -0.037  0.000  0.165
 H         -0.074  0.189  0.443   -0.185  0.062 -0.117   -0.144  0.027 -0.393
 H          0.074  0.189 -0.443   -0.185 -0.062 -0.117   -0.144 -0.027 -0.393
 TransDip   0.000  0.031  0.000    0.068  0.000  0.045    0.183  0.000  0.071

 Mode:                 7                      8                      9
 Frequency:      1163.89                1177.43                1249.61
 Force Cnst:      2.1828                 1.2697                 1.3074
 Red. Mass:       2.7349                 1.5545                 1.4210
 IR Active:          YES                    YES                    YES
 IR Intens:       48.195                  4.426                 97.347
 Raman Active:       YES                    YES                    YES
               X      Y      Z        X      Y      Z        X      Y      Z
 C         -0.030  0.000 -0.077    0.000 -0.117  0.000   -0.094  0.000  0.027
 C          0.258  0.000  0.136    0.000  0.179  0.000    0.117  0.000 -0.056
 O         -0.210  0.000 -0.062    0.000 -0.054  0.000   -0.080  0.000  0.042
 H         -0.366  0.000 -0.065    0.000  0.005  0.000    0.765  0.000 -0.011
 H          0.372 -0.023  0.397   -0.522 -0.165  0.091   -0.034  0.010 -0.305
 H          0.371  0.023  0.397    0.522 -0.165 -0.091   -0.034 -0.010 -0.305
 H          0.058  0.000 -0.293    0.000  0.240  0.000   -0.013  0.000 -0.159
 H          0.093 -0.065 -0.085   -0.098  0.098  0.346    0.157 -0.056  0.236
 H          0.093  0.065 -0.085    0.098  0.098 -0.346    0.157  0.056  0.236
 TransDip   0.201  0.000  0.094    0.000  0.067  0.000    0.310  0.000  0.059

 Mode:                10                     11                     12
 Frequency:      1292.66                1384.81                1448.23
 Force Cnst:      1.0841                 1.4147                 1.8557
 Red. Mass:       1.1011                 1.2521                 1.5017
 IR Active:          YES                    YES                    YES
 IR Intens:        0.006                  8.505                 12.675
 Raman Active:       YES                    YES                    YES
               X      Y      Z        X      Y      Z        X      Y      Z
 C          0.000  0.082  0.000    0.014  0.000 -0.136   -0.039  0.000 -0.096
 C          0.000 -0.018  0.000   -0.032  0.000 -0.045    0.052  0.000  0.168
 O          0.000 -0.032  0.000   -0.011  0.000  0.015    0.031  0.000 -0.036
 H          0.000 -0.010  0.000    0.108  0.000  0.007   -0.352  0.000 -0.010
 H         -0.398 -0.020 -0.527    0.143 -0.024  0.260   -0.342  0.012 -0.376
 H          0.397 -0.020  0.527    0.143  0.024  0.260   -0.342 -0.012 -0.376
 H          0.000 -0.116  0.000   -0.235  0.000  0.528   -0.181  0.002  0.280
 H          0.065 -0.048 -0.215    0.110  0.175  0.429    0.284 -0.098  0.101
 H         -0.065 -0.048  0.215    0.110 -0.175  0.429    0.287  0.099  0.103
 TransDip   0.000 -0.002  0.000    0.006  0.000  0.093    0.032  0.000  0.109

 Mode:                13                     14                     15
 Frequency:      1453.28                1476.39                1505.12
 Force Cnst:      1.2908                 1.4095                 1.4656
 Red. Mass:       1.0373                 1.0975                 1.0981
 IR Active:          YES                    YES                    YES
 IR Intens:       10.060                  3.619                  3.868
 Raman Active:       YES                    YES                    YES
               X      Y      Z        X      Y      Z        X      Y      Z
 C          0.000 -0.045  0.000   -0.039  0.000  0.037   -0.009  0.000 -0.002
 C          0.000 -0.025  0.000   -0.025  0.000 -0.067   -0.080  0.000  0.040
 O          0.000  0.002  0.000    0.003  0.000  0.009   -0.005  0.000  0.003
 H          0.001  0.007  0.000    0.073  0.000  0.005    0.004  0.000  0.002
 H          0.020  0.002 -0.044   -0.034 -0.124  0.227    0.477  0.421 -0.233
 H         -0.018  0.002  0.045   -0.034  0.124  0.227    0.477 -0.421 -0.233
 H          0.000  0.705 -0.001   -0.110  0.000  0.255   -0.049  0.000  0.101
 H         -0.371  0.043 -0.330    0.418 -0.383 -0.256    0.119 -0.102 -0.072
 H          0.369  0.043  0.330    0.418  0.383 -0.256    0.119  0.102 -0.071
 TransDip   0.000  0.102  0.000    0.057  0.000 -0.020    0.009  0.000 -0.062

 Mode:                16                     17                     18
 Frequency:      2994.77                3030.32                3047.74
 Force Cnst:      5.5900                 5.9986                 5.6743
 Red. Mass:       1.0579                 1.1087                 1.0368
 IR Active:          YES                    YES                    YES
 IR Intens:       50.310                 30.625                  7.407
 Raman Active:       YES                    YES                    YES
               X      Y      Z        X      Y      Z        X      Y      Z
 C          0.005  0.000  0.000    0.000  0.010  0.000    0.001  0.000 -0.051
 C         -0.052  0.000  0.042    0.000 -0.095  0.000   -0.001  0.000  0.003
 O         -0.002  0.000 -0.002    0.000  0.000  0.000    0.000  0.000  0.000
 H         -0.008  0.000  0.000    0.000  0.002  0.000   -0.001  0.000 -0.001
 H          0.323 -0.581 -0.233   -0.331  0.564  0.247    0.007 -0.013 -0.007
 H          0.323  0.581 -0.234    0.331  0.564 -0.247    0.007  0.013 -0.007
 H         -0.049  0.000 -0.012    0.000  0.003  0.000    0.533  0.000  0.200
 H          0.000 -0.003  0.000   -0.039 -0.064  0.025   -0.275 -0.473  0.192
 H          0.000  0.003 -0.001    0.039 -0.064 -0.025   -0.275  0.473  0.192
 TransDip  -0.206  0.000  0.095    0.000 -0.177  0.000   -0.013  0.000 -0.086

 Mode:                19                     20                     21
 Frequency:      3133.04                3134.31                3882.23
 Force Cnst:      6.3899                 6.3890                 9.4716
 Red. Mass:       1.1049                 1.1038                 1.0666
 IR Active:          YES                    YES                    YES
 IR Intens:       12.110                 11.332                 66.211
 Raman Active:       YES                    YES                    YES
               X      Y      Z        X      Y      Z        X      Y      Z
 C          0.000 -0.093  0.000   -0.093  0.000 -0.002    0.000  0.000  0.000
 C          0.000 -0.011  0.000   -0.004  0.000  0.002    0.002  0.000 -0.001
 O          0.000  0.000  0.000    0.000  0.000  0.000   -0.005  0.000 -0.062
 H          0.000  0.001  0.000    0.001  0.000  0.000    0.056  0.000  0.996
 H         -0.035  0.064  0.030    0.014 -0.025 -0.012    0.003  0.000  0.002
 H          0.034  0.063 -0.030    0.015  0.026 -0.012    0.003  0.000  0.002
 H         -0.004 -0.013 -0.001    0.761  0.000  0.295    0.001  0.000  0.000
 H          0.336  0.562 -0.241    0.180  0.335 -0.140    0.000 -0.001  0.001
 H         -0.338  0.565  0.243    0.177 -0.329 -0.138    0.000  0.001  0.001
 TransDip   0.001 -0.111  0.000   -0.107  0.000  0.010    0.081  0.000  0.248

 STANDARD THERMODYNAMIC QUANTITIES AT   298.18 K  AND     1.00 ATM

   This Molecule has  0 Imaginary Frequencies
   Zero point vibrational energy:       50.199 kcal/mol

   Atom    1 Element C  Has Mass   12.00000
   Atom    2 Element C  Has Mass   12.00000
   Atom    3 Element O  Has Mass   15.99491
   Atom    4 Element H  Has Mass    1.00783
   Atom    5 Element H  Has Mass    1.00783
   Atom    6 Element H  Has Mass    1.00783
   Atom    7 Element H  Has Mass    1.00783
   Atom    8 Element H  Has Mass    1.00783
   Atom    9 Element H  Has Mass    1.00783
   Molecular Mass:    46.041890 amu
   Principal axes and moments of inertia in atomic units:
                             1           2           3
    Eigenvalues --       50.62157   189.01025   216.90073
          X               0.54110     0.84096     0.00000
          Y               0.00000     0.00000     1.00000
          Z               0.84096    -0.54110     0.00000
   Rotational Symmetry Number is   1
   The Molecule is an Asymmetric Top
   Translational Enthalpy:        0.889 kcal/mol
   Rotational Enthalpy:           0.889 kcal/mol
   Vibrational Enthalpy:         51.135 kcal/mol
   gas constant (RT):             0.593 kcal/mol
   Translational Entropy:        37.406  cal/mol.K
   Rotational Entropy:           22.256  cal/mol.K
   Vibrational Entropy:           4.914  cal/mol.K

   Total Enthalpy:               53.505 kcal/mol
   Total Entropy:                64.575  cal/mol.K
 Total job time:  6908.56s(wall), 6809.34s(cpu) 
 Sun Apr 24 04:47:24 2011

        *************************************************************
        *                                                           *
        *  Thank you very much for using Q-Chem.  Have a nice day.  *
        *                                                           *
        *************************************************************


0 sent ACK to 0 
now end server 0 ... 
