Process 0 of 1 is on cl085.stfx.acenet.ca - thread support 1
initial socket setup ...start
initial socket setup ...done 
now start server 0 ... 

cmd = /usr/bin/ssh clhead /usr/local/qchem/bin/get_hostid 423147058 > /scratch/tmp/5955484.1.short.q/qchem21411/lic.dat
                  Welcome to Q-Chem
     A Quantum Leap Into The Future Of Chemistry

 Y. Shao, L. Fusti-Molnar, Y. Jung, J. Kussmann, C. Ochsenfeld,
 S. T. Brown, A. T. B. Gilbert, L. V. Slipchenko,S. V. Levchenko,
 D. P. O'Neill, R. A. DiStasio Jr., R. C. Lochan, T. Wang,
 G. J. O. Beran, N. A. Besley, J. M. Herbert, C. Y. Lin,
 T. Van Voorhis, S. H. Chien, A. Sodt, R. P. Steele, 
 V. A. Rassolov, P. E. Maslen, P. P. Korambath, R. D. Adamson,
 B. Austin, J. Baker, E. F. C. Byrd, H. Dachsel, R. J. Doerksen,
 A. Dreuw, B. D. Dunietz, A. D. Dutoi, T. R. Furlani,
 S. R. Gwaltney, A. Heyden, S. Hirata, C.-P. Hsu, G. Kedziora,
 R. Z. Khaliullin, P. Klunzinger, A. M. Lee, M. S. Lee, W. Liang,
 I. Lotan, N. Nair, B. Peters, E. I. Proynov, P. A. Pieniazek, 
 Y. M. Rhee, J. Ritchie, E. Rosta, C. D. Sherrill, 
 A. C. Simmonett, J. E. Subotnik, H. L. Woodcock III,
 W. Zhang, A. T. Bell, A. K. Chakraborty, D. M. Chipman,
 F. J. Keil, A. Warshel, W. J. Hehre, H. F. Schaefer III,
 J. Kong, A. I. Krylov, P. M. W. Gill, M. Head-Gordon,
 Q-Chem, Version 3.1, Q-Chem, Inc., Pittsburgh, PA (2007).

 Additional authors for Version 3.1: 
 Z. Gan, Y. Zhao, N. E. Schultz, D. Truhlar, E. Epifanovsky and M. Oana.

 Additional authors for Version 3.2: 
 R. Baer, B. R. Brooks, D. Casanova, J.-D. Chai, C.-L. Cheng, 
 C. Cramer, D. Crittenden, A. Ghysels, G. Hawkins, E. G. Hohenstein, 
 C. Kelley, W. Kurlancheek, D. Liotard, E. Livshits, P. Manohar, 
 A. Marenich, D. Neuhauser, R. Olson, M. A. Rohrdanz, K. S. Thanthiriwatte, 
 A. J. W. Thom, V. Vanovschi, C. F. Williams, Q. Wu and Z.-Q. You. 


 Intel X86 Linux Version

 Q-chem begins on Tue Apr 30 20:54:49 2013  

 Parallel job on  1  processors
Processing $rem in /usr/local/qchem/config/preferences.

theFileMan(): MAXOPENFILES=974 MAX_SUB_FILE_NUM=16
Maximum size of a physical file is 2.0 GB, maximum size of a tmp-file is 32.0 GB


--------------------------------------------------------------
User input:
--------------------------------------------------------------

$molecule
-1,1
N
H,1,RBH
H,1,RBH,2,HBH

RBH=1.03433331
HBH=102.13281397

$end

$comment
negative
$end

$xc_functional
C PBE   1.00
X wPBE  1.00
$end

$rem
SYMMETRY_DECOMPOSITION	0
exchange 		general
LRC_DFT                 true
BASIS                   g3large
omega			690
mem_static              760
max_scf_cycles          200
scf_final_print         1
sym_ignore              true
$end

--------------------------------------------------------------
 Writing REM_CC_EA            3
 ----------------------------------------------------
       Standard Nuclear Orientation (Angstroms)
    I     Atom         X            Y            Z
 ----------------------------------------------------
    1      N       0.000000     0.000000     0.000000
    2      H       0.000000     0.000000     1.034333
    3      H       1.011229     0.000000    -0.217395
 ----------------------------------------------------
 Nuclear Repulsion Energy =     7.4914186564 hartrees
 There are        5 alpha and        5 beta electrons
 Requested basis set is G3large
 There are 22 shells and 62 basis functions

Total QAlloc Memory Limit   2000 MB
Mega-Array Size       743 MB
MEM_STATIC part       760 MB

                       Distance Matrix (Angstroms)
             N (  1)   H (  2)
   H (  2)  1.034333
   H (  3)  1.034333  1.609164
 
 A cutoff of  1.0D-08 yielded    253 shell pairs
 There are   2043 function pairs (  2475 Cartesian)
Evaluating contribution to one-electron hamiltonian from nuclear
 Smallest overlap matrix eigenvalue = 2.91E-03
 Multipole matrices computed through 2nd order

  Scale SEOQF with 1.000000e-01/1.000000e-01/1.000000e-01

 Standard Electronic Orientation quadrupole field applied
 Guess from superposition of atomic densities
 Warning:  Energy on first SCF cycle will be non-variational
 Long-range K will be added via erf
 Coulomb attenuation parameter = 0.69 bohr**(-1)
 A restricted Kohn-Sham SCF calculation will be
 performed using Pulay DIIS extrapolation
 Exchange:  wPBE + LR-HF      Correlation:  PBE
 Using SG-1 standard quadrature grid
 SCF converges when DIIS error is below 1.0E-05
 Requested basis set is G3large
 There are 22 shells and 62 basis functions
 A cutoff of  1.0D-08 yielded    253 shell pairs
 There are   2043 function pairs (  2475 Cartesian)
 Warning!  Inaccurate integrated density:
   Number of electrons =    10
   Numerical integral  =     8.999981079523
   Relative error      =   -10.0001892048 %
 ---------------------------------------
  Cycle       Energy         DIIS Error
 ---------------------------------------
    1     -55.6446213009      4.19E-02
    2     -55.7412741283      1.67E-02
    3     -55.8188139248      1.25E-02
    4     -55.8802210356      7.64E-04
    5     -55.8805524690      2.80E-04
    6     -55.8806319374      6.75E-05
    7     -55.8806421700      1.79E-05
    8     -55.8806432573      4.32E-06 Convergence criterion met
 ---------------------------------------
 One-Electron    Energy =   -93.3807692750
 Total Coulomb   Energy =    37.7903162749
 Alpha Exchange  Energy =    -1.4268808731
 Beta  Exchange  Energy =    -1.4268808731
 DFT   Exchange  Energy =    -4.6219296927
 DFT Correlation Energy =    -0.3059174745
 Nuclear Repu.   Energy =     7.4914186563
 Nuclear Attr.   Energy =  -149.0385918270
 Kinetic         Energy =    55.6578225520
 SCF time:  CPU 5.49 s  wall 6.62 s
 Final Alpha MO Eigenvalues
            1           2           3           4           5           6
    1 -13.9970693  -0.7072727  -0.2919804  -0.1453198  -0.0655262   0.2030148
            7           8           9          10
    1   0.2155647   0.3765581   0.4040992   0.4131275
 Analysis of SCF Wavefunction
 
 --------------------------------------------------------------
                    Orbital Energies (a.u.)
 --------------------------------------------------------------
 
 Alpha MOs
 -- Occupied --
-13.997  -0.707  -0.292  -0.145  -0.066
 -- Virtual --
  0.203   0.216   0.377   0.404   0.413   0.452   0.500   0.511
  0.872   0.943   1.029   1.064   1.070   1.125   1.139   1.248
  1.381   1.457   1.707   1.719   1.819   1.825   1.986   2.145
  2.278   2.952   3.000   3.782   3.862   3.904   3.926   4.108
  4.168   4.293   4.337   4.385   4.415   4.887   4.947   5.044
  5.124   5.469   5.477   5.605   5.613   5.922   6.282   6.841
 35.878  37.781  38.256  38.627  41.077  41.119  41.122  41.138
 41.182
 --------------------------------------------------------------
 
          Ground-State Mulliken Net Atomic Charges

     Atom                 Charge (a.u.)
  ----------------------------------------
      1 N                    -1.176886
      2 H                     0.088447
      3 H                     0.088439
  ----------------------------------------
  Sum of atomic charges =    -1.000000

 -----------------------------------------------------------------
                    Cartesian Multipole Moments
 -----------------------------------------------------------------
    Charge (ESU x 10^10)
                -4.8032
    Dipole Moment (Debye)
         X       1.0996      Y       0.0000      Z       0.8883
       Tot       1.4136
    Quadrupole Moments (Debye-Ang)
        XX     -10.3134     XY       0.0000     YY     -13.4558
        XZ      -0.8856     YZ       0.0000     ZZ      -9.9326
    Octapole Moments (Debye-Ang^2)
       XXX      -1.1111    XXY       0.0000    XYY      -0.5602
       YYY       0.0000    XXZ      -0.6420    XYZ       0.0000
       YYZ      -0.4526    XZZ      -0.5736    YZZ       0.0000
       ZZZ      -0.7190
    Hexadecapole Moments (Debye-Ang^3)
      XXXX     -20.8496   XXXY       0.0000   XXYY      -8.1537
      XYYY       0.0000   YYYY     -26.9082   XXXZ      -1.0564
      XXYZ       0.0000   XYYZ      -0.2353   YYYZ       0.0000
      XXZZ      -7.0645   XYZZ       0.0000   YYZZ      -8.0525
      XZZZ      -0.8848   YZZZ       0.0000   ZZZZ     -20.0150
 -----------------------------------------------------------------
 Total job time:  6.72s(wall), 5.55s(cpu) 
 Tue Apr 30 20:54:55 2013

        *************************************************************
        *                                                           *
        *  Thank you very much for using Q-Chem.  Have a nice day.  *
        *                                                           *
        *************************************************************


0 sent ACK to 0 
now end server 0 ... 
 
**********************************************************************
Job 2 of 3 
**********************************************************************
 
Process 0 of 1 is on cl085.stfx.acenet.ca - thread support 1
initial socket setup ...start
initial socket setup ...done 
now start server 0 ... 

cmd = /usr/bin/ssh clhead /usr/local/qchem/bin/get_hostid 1675108116 > /scratch/tmp/5955484.1.short.q/qchem21411/lic.dat
                  Welcome to Q-Chem
     A Quantum Leap Into The Future Of Chemistry

 Y. Shao, L. Fusti-Molnar, Y. Jung, J. Kussmann, C. Ochsenfeld,
 S. T. Brown, A. T. B. Gilbert, L. V. Slipchenko,S. V. Levchenko,
 D. P. O'Neill, R. A. DiStasio Jr., R. C. Lochan, T. Wang,
 G. J. O. Beran, N. A. Besley, J. M. Herbert, C. Y. Lin,
 T. Van Voorhis, S. H. Chien, A. Sodt, R. P. Steele, 
 V. A. Rassolov, P. E. Maslen, P. P. Korambath, R. D. Adamson,
 B. Austin, J. Baker, E. F. C. Byrd, H. Dachsel, R. J. Doerksen,
 A. Dreuw, B. D. Dunietz, A. D. Dutoi, T. R. Furlani,
 S. R. Gwaltney, A. Heyden, S. Hirata, C.-P. Hsu, G. Kedziora,
 R. Z. Khaliullin, P. Klunzinger, A. M. Lee, M. S. Lee, W. Liang,
 I. Lotan, N. Nair, B. Peters, E. I. Proynov, P. A. Pieniazek, 
 Y. M. Rhee, J. Ritchie, E. Rosta, C. D. Sherrill, 
 A. C. Simmonett, J. E. Subotnik, H. L. Woodcock III,
 W. Zhang, A. T. Bell, A. K. Chakraborty, D. M. Chipman,
 F. J. Keil, A. Warshel, W. J. Hehre, H. F. Schaefer III,
 J. Kong, A. I. Krylov, P. M. W. Gill, M. Head-Gordon,
 Q-Chem, Version 3.1, Q-Chem, Inc., Pittsburgh, PA (2007).

 Additional authors for Version 3.1: 
 Z. Gan, Y. Zhao, N. E. Schultz, D. Truhlar, E. Epifanovsky and M. Oana.

 Additional authors for Version 3.2: 
 R. Baer, B. R. Brooks, D. Casanova, J.-D. Chai, C.-L. Cheng, 
 C. Cramer, D. Crittenden, A. Ghysels, G. Hawkins, E. G. Hohenstein, 
 C. Kelley, W. Kurlancheek, D. Liotard, E. Livshits, P. Manohar, 
 A. Marenich, D. Neuhauser, R. Olson, M. A. Rohrdanz, K. S. Thanthiriwatte, 
 A. J. W. Thom, V. Vanovschi, C. F. Williams, Q. Wu and Z.-Q. You. 


 Intel X86 Linux Version

 Q-chem begins on Tue Apr 30 20:54:58 2013  

 Parallel job on  1  processors
Processing $rem in /usr/local/qchem/config/preferences.

theFileMan(): MAXOPENFILES=974 MAX_SUB_FILE_NUM=16
Maximum size of a physical file is 2.0 GB, maximum size of a tmp-file is 32.0 GB


--------------------------------------------------------------
User input:
--------------------------------------------------------------

$molecule
0,2
N
H,1,RBH
H,1,RBH,2,HBH

RBH=1.03433331
HBH=102.13281397

$end

$comment
neutral
$end

$xc_functional
C PBE   1.00
X wPBE  1.00
$end


$rem
SYMMETRY_DECOMPOSITION	0
LRC_DFT                 true
exchange 		general
BASIS                   g3large
omega			690
mem_static              760
max_scf_cycles          200
scf_final_print         1
sym_ignore              true
$end

--------------------------------------------------------------
 Writing REM_CC_EA            3
 ----------------------------------------------------
       Standard Nuclear Orientation (Angstroms)
    I     Atom         X            Y            Z
 ----------------------------------------------------
    1      N       0.000000     0.000000     0.000000
    2      H       0.000000     0.000000     1.034333
    3      H       1.011229     0.000000    -0.217395
 ----------------------------------------------------
 Nuclear Repulsion Energy =     7.4914186564 hartrees
 There are        5 alpha and        4 beta electrons
 Requested basis set is G3large
 There are 22 shells and 62 basis functions

Total QAlloc Memory Limit   2000 MB
Mega-Array Size       743 MB
MEM_STATIC part       760 MB

                       Distance Matrix (Angstroms)
             N (  1)   H (  2)
   H (  2)  1.034333
   H (  3)  1.034333  1.609164
 
 A cutoff of  1.0D-08 yielded    253 shell pairs
 There are   2043 function pairs (  2475 Cartesian)
Evaluating contribution to one-electron hamiltonian from nuclear
 Smallest overlap matrix eigenvalue = 2.91E-03
 Multipole matrices computed through 2nd order

  Scale SEOQF with 1.000000e-01/1.000000e-01/1.000000e-01

 Standard Electronic Orientation quadrupole field applied
 Guess from superposition of atomic densities
 Warning:  Energy on first SCF cycle will be non-variational
 Long-range K will be added via erf
 Coulomb attenuation parameter = 0.69 bohr**(-1)
 An unrestricted Kohn-Sham SCF calculation will be
 performed using Pulay DIIS extrapolation
 Exchange:  wPBE + LR-HF      Correlation:  PBE
 Using SG-1 standard quadrature grid
 SCF converges when DIIS error is below 1.0E-05
 Requested basis set is G3large
 There are 22 shells and 62 basis functions
 A cutoff of  1.0D-08 yielded    253 shell pairs
 There are   2043 function pairs (  2475 Cartesian)
 ---------------------------------------
  Cycle       Energy         DIIS Error
 ---------------------------------------
    1     -55.6446213009      4.19E-02
    2     -55.8553913134      4.89E-03
    3     -55.8685843653      1.75E-03
    4     -55.8700199199      4.87E-04
    5     -55.8702184684      1.06E-04
    6     -55.8702625449      3.13E-05
    7     -55.8702708983      5.63E-06 Convergence criterion met
 ---------------------------------------
 One-Electron    Energy =   -90.1683593267
 Total Coulomb   Energy =    34.3806161429
 Alpha Exchange  Energy =    -1.4951021929
 Beta  Exchange  Energy =    -1.1978656821
 DFT   Exchange  Energy =    -4.6091820382
 DFT Correlation Energy =    -0.2717964577
 Nuclear Repu.   Energy =     7.4914186563
 Nuclear Attr.   Energy =  -145.8222791071
 Kinetic         Energy =    55.6539197804
 <S^2> = 0.7543
 SCF time:  CPU 5.34 s  wall 6.63 s
 Final Alpha MO Eigenvalues
            1           2           3           4           5           6
    1 -14.3797260  -1.0959134  -0.6447162  -0.5059364  -0.5035059   0.0402111
            7           8           9          10
    1   0.0692519   0.1745662   0.1756971   0.2171376
 Final Beta MO Eigenvalues
            1           2           3           4           5           6
    1 -14.3611634  -1.0207677  -0.6288899  -0.4775627   0.0287694   0.0419308
            7           8           9
    1   0.0698188   0.1780526   0.2169466
 Analysis of SCF Wavefunction
 
 --------------------------------------------------------------
                    Orbital Energies (a.u.)
 --------------------------------------------------------------
 
 Alpha MOs
 -- Occupied --
-14.380  -1.096  -0.645  -0.506  -0.504
 -- Virtual --
  0.040   0.069   0.175   0.176   0.217   0.229   0.265   0.273
  0.591   0.655   0.733   0.754   0.781   0.822   0.845   0.900
  1.099   1.131   1.380   1.417   1.472   1.476   1.664   1.810
  1.967   2.632   2.670   3.426   3.498   3.570   3.572   3.722
  3.832   3.861   3.960   4.018   4.023   4.520   4.604   4.680
  4.784   5.054   5.060   5.213   5.244   5.567   5.924   6.490
 35.495  37.378  37.882  38.250  40.671  40.722  40.723  40.767
 40.811
 
 Beta MOs
 -- Occupied --
-14.361  -1.021  -0.629  -0.478
 -- Virtual --
  0.029   0.042   0.070   0.178   0.217   0.221   0.238   0.274
  0.278   0.593   0.659   0.745   0.782   0.803   0.854   0.857
  0.978   1.099   1.165   1.411   1.425   1.515   1.520   1.675
  1.841   1.974   2.634   2.679   3.445   3.531   3.574   3.592
  3.765   3.838   3.964   3.998   4.056   4.073   4.552   4.611
  4.704   4.789   5.138   5.146   5.260   5.292   5.583   5.952
  6.502  35.515  37.428  37.893  38.262  40.722  40.761  40.762
 40.772  40.816
 --------------------------------------------------------------
 
          Ground-State Mulliken Net Atomic Charges

     Atom                 Charge (a.u.)    Spin (a.u.)
  --------------------------------------------------------
      1 N                    -0.299097       1.074093
      2 H                     0.149552      -0.037042
      3 H                     0.149545      -0.037051
  --------------------------------------------------------
  Sum of atomic charges =     0.000000
  Sum of spin   charges =     1.000000

 -----------------------------------------------------------------
                    Cartesian Multipole Moments
 -----------------------------------------------------------------
    Charge (ESU x 10^10)
                 0.0000
    Dipole Moment (Debye)
         X       1.5686      Y       0.0000      Z       1.2672
       Tot       2.0165
    Quadrupole Moments (Debye-Ang)
        XX      -6.3422     XY       0.0000     YY      -7.1293
        XZ      -0.7445     YZ       0.0000     ZZ      -6.0220
    Octapole Moments (Debye-Ang^2)
       XXX       0.2077    XXY       0.0000    XYY      -0.4186
       YYY       0.0000    XXZ      -0.7738    XYZ       0.0000
       YYZ      -0.3382    XZZ      -0.4227    YZZ       0.0000
       ZZZ       0.6001
    Hexadecapole Moments (Debye-Ang^3)
      XXXX      -9.1657   XXXY       0.0000   XXYY      -2.9630
      XYYY       0.0000   YYYY      -6.5596   XXXZ      -0.6263
      XXYZ       0.0000   XYYZ      -0.0342   YYYZ       0.0000
      XXZZ      -3.6174   XYZZ       0.0000   YYZZ      -2.9483
      XZZZ      -0.2059   YZZZ       0.0000   ZZZZ      -8.8080
 -----------------------------------------------------------------
 Total job time:  6.70s(wall), 5.40s(cpu) 
 Tue Apr 30 20:55:05 2013

        *************************************************************
        *                                                           *
        *  Thank you very much for using Q-Chem.  Have a nice day.  *
        *                                                           *
        *************************************************************


0 sent ACK to 0 
now end server 0 ... 
 
**********************************************************************
Job 3 of 3 
**********************************************************************
 
Process 0 of 1 is on cl085.stfx.acenet.ca - thread support 1
initial socket setup ...start
initial socket setup ...done 
now start server 0 ... 

cmd = /usr/bin/ssh clhead /usr/local/qchem/bin/get_hostid 1085727992 > /scratch/tmp/5955484.1.short.q/qchem21411/lic.dat
                  Welcome to Q-Chem
     A Quantum Leap Into The Future Of Chemistry

 Y. Shao, L. Fusti-Molnar, Y. Jung, J. Kussmann, C. Ochsenfeld,
 S. T. Brown, A. T. B. Gilbert, L. V. Slipchenko,S. V. Levchenko,
 D. P. O'Neill, R. A. DiStasio Jr., R. C. Lochan, T. Wang,
 G. J. O. Beran, N. A. Besley, J. M. Herbert, C. Y. Lin,
 T. Van Voorhis, S. H. Chien, A. Sodt, R. P. Steele, 
 V. A. Rassolov, P. E. Maslen, P. P. Korambath, R. D. Adamson,
 B. Austin, J. Baker, E. F. C. Byrd, H. Dachsel, R. J. Doerksen,
 A. Dreuw, B. D. Dunietz, A. D. Dutoi, T. R. Furlani,
 S. R. Gwaltney, A. Heyden, S. Hirata, C.-P. Hsu, G. Kedziora,
 R. Z. Khaliullin, P. Klunzinger, A. M. Lee, M. S. Lee, W. Liang,
 I. Lotan, N. Nair, B. Peters, E. I. Proynov, P. A. Pieniazek, 
 Y. M. Rhee, J. Ritchie, E. Rosta, C. D. Sherrill, 
 A. C. Simmonett, J. E. Subotnik, H. L. Woodcock III,
 W. Zhang, A. T. Bell, A. K. Chakraborty, D. M. Chipman,
 F. J. Keil, A. Warshel, W. J. Hehre, H. F. Schaefer III,
 J. Kong, A. I. Krylov, P. M. W. Gill, M. Head-Gordon,
 Q-Chem, Version 3.1, Q-Chem, Inc., Pittsburgh, PA (2007).

 Additional authors for Version 3.1: 
 Z. Gan, Y. Zhao, N. E. Schultz, D. Truhlar, E. Epifanovsky and M. Oana.

 Additional authors for Version 3.2: 
 R. Baer, B. R. Brooks, D. Casanova, J.-D. Chai, C.-L. Cheng, 
 C. Cramer, D. Crittenden, A. Ghysels, G. Hawkins, E. G. Hohenstein, 
 C. Kelley, W. Kurlancheek, D. Liotard, E. Livshits, P. Manohar, 
 A. Marenich, D. Neuhauser, R. Olson, M. A. Rohrdanz, K. S. Thanthiriwatte, 
 A. J. W. Thom, V. Vanovschi, C. F. Williams, Q. Wu and Z.-Q. You. 


 Intel X86 Linux Version

 Q-chem begins on Tue Apr 30 20:55:07 2013  

 Parallel job on  1  processors
Processing $rem in /usr/local/qchem/config/preferences.

theFileMan(): MAXOPENFILES=974 MAX_SUB_FILE_NUM=16
Maximum size of a physical file is 2.0 GB, maximum size of a tmp-file is 32.0 GB


--------------------------------------------------------------
User input:
--------------------------------------------------------------

$molecule
1,1
N
H,1,RBH
H,1,RBH,2,HBH

RBH=1.03433331
HBH=102.13281397

$end

$comment
positive
$end

$xc_functional
C PBE   1.00
X wPBE  1.00
$end

$rem
SYMMETRY_DECOMPOSITION	0
LRC_DFT                 true
exchange 		general
BASIS                   g3large
omega			690
mem_static              760
max_scf_cycles          200
scf_final_print         1
sym_ignore              true
$end

--------------------------------------------------------------
 Writing REM_CC_EA            3
 ----------------------------------------------------
       Standard Nuclear Orientation (Angstroms)
    I     Atom         X            Y            Z
 ----------------------------------------------------
    1      N       0.000000     0.000000     0.000000
    2      H       0.000000     0.000000     1.034333
    3      H       1.011229     0.000000    -0.217395
 ----------------------------------------------------
 Nuclear Repulsion Energy =     7.4914186564 hartrees
 There are        4 alpha and        4 beta electrons
 Requested basis set is G3large
 There are 22 shells and 62 basis functions

Total QAlloc Memory Limit   2000 MB
Mega-Array Size       743 MB
MEM_STATIC part       760 MB

                       Distance Matrix (Angstroms)
             N (  1)   H (  2)
   H (  2)  1.034333
   H (  3)  1.034333  1.609164
 
 A cutoff of  1.0D-08 yielded    253 shell pairs
 There are   2043 function pairs (  2475 Cartesian)
Evaluating contribution to one-electron hamiltonian from nuclear
 Smallest overlap matrix eigenvalue = 2.91E-03
 Multipole matrices computed through 2nd order

  Scale SEOQF with 1.000000e-01/1.000000e-01/1.000000e-01

 Standard Electronic Orientation quadrupole field applied
 Guess from superposition of atomic densities
 Warning:  Energy on first SCF cycle will be non-variational
 Long-range K will be added via erf
 Coulomb attenuation parameter = 0.69 bohr**(-1)
 A restricted Kohn-Sham SCF calculation will be
 performed using Pulay DIIS extrapolation
 Exchange:  wPBE + LR-HF      Correlation:  PBE
 Using SG-1 standard quadrature grid
 SCF converges when DIIS error is below 1.0E-05
 Requested basis set is G3large
 There are 22 shells and 62 basis functions
 A cutoff of  1.0D-08 yielded    253 shell pairs
 There are   2043 function pairs (  2475 Cartesian)
 Warning!  Inaccurate integrated density:
   Number of electrons =     8
   Numerical integral  =     8.999981079523
   Relative error      =    12.4997634940 %
 ---------------------------------------
  Cycle       Energy         DIIS Error
 ---------------------------------------
    1     -55.6446213009      4.19E-02
    2     -55.3266582622      1.11E-02
    3     -55.3870362041      4.83E-03
    4     -55.3941791112      4.81E-04
    5     -55.3943039768      8.80E-05
    6     -55.3943109751      1.88E-05
    7     -55.3943114217      4.31E-06 Convergence criterion met
 ---------------------------------------
 One-Electron    Energy =   -86.0561520195
 Total Coulomb   Energy =    30.3791328247
 Alpha Exchange  Energy =    -1.2302304598
 Beta  Exchange  Energy =    -1.2302304598
 DFT   Exchange  Energy =    -4.5096209620
 DFT Correlation Energy =    -0.2386290016
 Nuclear Repu.   Energy =     7.4914186563
 Nuclear Attr.   Energy =  -141.3572501295
 Kinetic         Energy =    55.3010981100
 SCF time:  CPU 4.77 s  wall 5.60 s
 Final Alpha MO Eigenvalues
            1           2           3           4           5           6
    1 -14.9012254  -1.5050509  -1.0745289  -0.9348610  -0.4465131  -0.1673296
            7           8           9
    1  -0.1097745  -0.0439689  -0.0400263
 Analysis of SCF Wavefunction
 
 --------------------------------------------------------------
                    Orbital Energies (a.u.)
 --------------------------------------------------------------
 
 Alpha MOs
 -- Occupied --
-14.901  -1.505  -1.075  -0.935
 -- Virtual --
 -0.447  -0.167  -0.110  -0.044  -0.040  -0.025  -0.007   0.024
  0.036   0.290   0.334   0.406   0.422   0.476   0.487   0.537
  0.576   0.779   0.786   1.028   1.074   1.113   1.115   1.294
  1.449   1.608   2.254   2.285   3.012   3.084   3.158   3.166
  3.290   3.418   3.423   3.523   3.582   3.616   4.107   4.189
  4.265   4.371   4.604   4.611   4.776   4.799   5.128   5.503
  6.060  34.978  36.864  37.366  37.734  40.153  40.202  40.204
 40.252  40.296
 --------------------------------------------------------------
 
          Ground-State Mulliken Net Atomic Charges

     Atom                 Charge (a.u.)
  ----------------------------------------
      1 N                     0.475886
      2 H                     0.262060
      3 H                     0.262054
  ----------------------------------------
  Sum of atomic charges =     1.000000

 -----------------------------------------------------------------
                    Cartesian Multipole Moments
 -----------------------------------------------------------------
    Charge (ESU x 10^10)
                 4.8032
    Dipole Moment (Debye)
         X       2.1615      Y       0.0000      Z       1.7462
       Tot       2.7787
    Quadrupole Moments (Debye-Ang)
        XX      -3.7429     XY       0.0000     YY      -4.1770
        XZ      -0.7398     YZ       0.0000     ZZ      -3.4248
    Octapole Moments (Debye-Ang^2)
       XXX       1.4795    XXY       0.0000    XYY      -0.2774
       YYY       0.0000    XXZ      -0.8786    XYZ       0.0000
       YYZ      -0.2241    XZZ      -0.2640    YZZ       0.0000
       ZZZ       1.8606
    Hexadecapole Moments (Debye-Ang^3)
      XXXX      -3.8258   XXXY       0.0000   XXYY      -1.5380
      XYYY       0.0000   YYYY      -2.4208   XXXZ      -0.6447
      XXYZ       0.0000   XYYZ       0.0176   YYYZ       0.0000
      XXZZ      -2.1488   XYZZ       0.0000   YYZZ      -1.5455
      XZZZ      -0.0218   YZZZ       0.0000   ZZZZ      -3.5393
 -----------------------------------------------------------------
 Total job time:  5.67s(wall), 4.83s(cpu) 
 Tue Apr 30 20:55:13 2013

        *************************************************************
        *                                                           *
        *  Thank you very much for using Q-Chem.  Have a nice day.  *
        *                                                           *
        *************************************************************


0 sent ACK to 0 
now end server 0 ... 
