Process 0 of 1 is on cl071.stfx.acenet.ca - thread support 1
initial socket setup ...start
initial socket setup ...done 
now start server 0 ... 

cmd = /usr/bin/ssh clhead /usr/local/qchem/bin/get_hostid 1080013924 > /scratch/tmp/5955793.1.short.q/qchem29109/lic.dat
                  Welcome to Q-Chem
     A Quantum Leap Into The Future Of Chemistry

 Y. Shao, L. Fusti-Molnar, Y. Jung, J. Kussmann, C. Ochsenfeld,
 S. T. Brown, A. T. B. Gilbert, L. V. Slipchenko,S. V. Levchenko,
 D. P. O'Neill, R. A. DiStasio Jr., R. C. Lochan, T. Wang,
 G. J. O. Beran, N. A. Besley, J. M. Herbert, C. Y. Lin,
 T. Van Voorhis, S. H. Chien, A. Sodt, R. P. Steele, 
 V. A. Rassolov, P. E. Maslen, P. P. Korambath, R. D. Adamson,
 B. Austin, J. Baker, E. F. C. Byrd, H. Dachsel, R. J. Doerksen,
 A. Dreuw, B. D. Dunietz, A. D. Dutoi, T. R. Furlani,
 S. R. Gwaltney, A. Heyden, S. Hirata, C.-P. Hsu, G. Kedziora,
 R. Z. Khaliullin, P. Klunzinger, A. M. Lee, M. S. Lee, W. Liang,
 I. Lotan, N. Nair, B. Peters, E. I. Proynov, P. A. Pieniazek, 
 Y. M. Rhee, J. Ritchie, E. Rosta, C. D. Sherrill, 
 A. C. Simmonett, J. E. Subotnik, H. L. Woodcock III,
 W. Zhang, A. T. Bell, A. K. Chakraborty, D. M. Chipman,
 F. J. Keil, A. Warshel, W. J. Hehre, H. F. Schaefer III,
 J. Kong, A. I. Krylov, P. M. W. Gill, M. Head-Gordon,
 Q-Chem, Version 3.1, Q-Chem, Inc., Pittsburgh, PA (2007).

 Additional authors for Version 3.1: 
 Z. Gan, Y. Zhao, N. E. Schultz, D. Truhlar, E. Epifanovsky and M. Oana.

 Additional authors for Version 3.2: 
 R. Baer, B. R. Brooks, D. Casanova, J.-D. Chai, C.-L. Cheng, 
 C. Cramer, D. Crittenden, A. Ghysels, G. Hawkins, E. G. Hohenstein, 
 C. Kelley, W. Kurlancheek, D. Liotard, E. Livshits, P. Manohar, 
 A. Marenich, D. Neuhauser, R. Olson, M. A. Rohrdanz, K. S. Thanthiriwatte, 
 A. J. W. Thom, V. Vanovschi, C. F. Williams, Q. Wu and Z.-Q. You. 


 Intel X86 Linux Version

 Q-chem begins on Tue Apr 30 21:23:04 2013  

 Parallel job on  1  processors
Processing $rem in /usr/local/qchem/config/preferences.

theFileMan(): MAXOPENFILES=974 MAX_SUB_FILE_NUM=16
Maximum size of a physical file is 2.0 GB, maximum size of a tmp-file is 32.0 GB


--------------------------------------------------------------
User input:
--------------------------------------------------------------

$molecule
-1,2
C
S,1,CS

CS=1.54765317

$end

$comment
negative
$end

$xc_functional
C PBE   1.00
X wPBE  1.00
$end

$rem
SYMMETRY_DECOMPOSITION	0
exchange 		general
LRC_DFT                 true
BASIS                   g3large
omega			280
mem_static              760
max_scf_cycles          200
scf_final_print         1
sym_ignore              true
$end

--------------------------------------------------------------
 Writing REM_CC_EA            2
 ----------------------------------------------------
       Standard Nuclear Orientation (Angstroms)
    I     Atom         X            Y            Z
 ----------------------------------------------------
    1      C       0.000000     0.000000     0.000000
    2      S       0.000000     0.000000     1.547653
 ----------------------------------------------------
 Nuclear Repulsion Energy =    32.8245457196 hartrees
 There are       12 alpha and       11 beta electrons
 Requested basis set is G3large
 There are 29 shells and 108 basis functions

Total QAlloc Memory Limit   2000 MB
Mega-Array Size       743 MB
MEM_STATIC part       760 MB

                       Distance Matrix (Angstroms)
             C (  1)
   S (  2)  1.547653
 
 A cutoff of  1.0D-08 yielded    423 shell pairs
 There are   5944 function pairs (  8263 Cartesian)
Evaluating contribution to one-electron hamiltonian from nuclear
 Smallest overlap matrix eigenvalue = 6.74E-04
 Multipole matrices computed through 2nd order

  Scale SEOQF with 1.000000e-01/1.000000e-01/1.000000e-01

 Standard Electronic Orientation quadrupole field applied
 Nucleus-field energy     =    -0.0000000041 hartrees
 Guess from superposition of atomic densities
 Warning:  Energy on first SCF cycle will be non-variational
 Long-range K will be added via erf
 Coulomb attenuation parameter = 0.28 bohr**(-1)
 An unrestricted Kohn-Sham SCF calculation will be
 performed using Pulay DIIS extrapolation
 Exchange:  wPBE + LR-HF      Correlation:  PBE
 Using SG-1 standard quadrature grid
 SCF converges when DIIS error is below 1.0E-05
 Requested basis set is G3large
 There are 29 shells and 108 basis functions
 A cutoff of  1.0D-08 yielded    423 shell pairs
 There are   5944 function pairs (  8263 Cartesian)
 Warning!  Inaccurate integrated density:
   Number of electrons =    23
   Numerical integral  =    21.999986000584
   Relative error      =    -4.3478869540 %
 ---------------------------------------
  Cycle       Energy         DIIS Error
 ---------------------------------------
    1    -436.1351052213      3.22E-02
    2    -435.9847623032      4.48E-03
    3    -436.0223981680      4.02E-03
    4    -436.0490135745      1.02E-03
    5    -436.0516839344      4.51E-04
    6    -436.0529349301      1.62E-04
    7    -436.0534208201      7.15E-05
    8    -436.0535500013      2.35E-05
    9    -436.0535687052      9.28E-06 Convergence criterion met
 ---------------------------------------
 One-Electron    Energy =  -671.6069884034
 Total Coulomb   Energy =   233.7687853169
 Alpha Exchange  Energy =    -1.7671668257
 Beta  Exchange  Energy =    -1.6277208581
 DFT   Exchange  Energy =   -26.8263248407
 DFT Correlation Energy =    -0.8186988098
 Nuclear Repu.   Energy =    32.8245457155
 Nuclear Attr.   Energy = -1107.1771746111
 Kinetic         Energy =   435.5701862077
 <S^2> = 0.7564
 SCF time:  CPU 25.02 s  wall 26.78 s
 Final Alpha MO Eigenvalues
            1           2           3           4           5           6
    1 -87.9626903  -9.8344537  -7.6008837  -5.6177487  -5.6158551  -5.6143380
            7           8           9          10          11          12
    1  -0.6503833  -0.3565827  -0.2004994  -0.1869005  -0.1439259   0.0016323
           13          14          15          16          17
    1   0.2150053   0.2194178   0.2310253   0.2511505   0.2518901
 Final Beta MO Eigenvalues
            1           2           3           4           5           6
    1 -87.9620632  -9.8247120  -7.6001900  -5.6174897  -5.6155983  -5.6120536
            7           8           9          10          11          12
    1  -0.6399007  -0.3303943  -0.1834635  -0.1623700  -0.1273594   0.2172653
           13          14          15          16
    1   0.2267555   0.2332263   0.2425500   0.2527779
 Analysis of SCF Wavefunction
 
 --------------------------------------------------------------
                    Orbital Energies (a.u.)
 --------------------------------------------------------------
 
 Alpha MOs
 -- Occupied --
-87.963  -9.834  -7.601  -5.618  -5.616  -5.614  -0.650  -0.357
 -0.200  -0.187  -0.144   0.002
 -- Virtual --
  0.215   0.219   0.231   0.251   0.252   0.290   0.306   0.317
  0.389   0.442   0.509   0.510   0.574   0.601   0.612   0.676
  0.679   0.721   0.845   0.852   0.905   0.985   0.987   1.033
  1.164   1.165   1.166   1.167   1.237   1.266   1.267   1.314
  1.349   1.350   1.351   1.353   1.630   1.634   1.635   1.752
  2.103   2.106   2.320   3.031   3.039   3.139   3.139   3.171
  3.174   3.209   3.211   3.295   3.473   3.627   3.632   3.756
  3.756   3.811   3.812   3.869   3.877   4.039   4.220   4.221
  4.565   4.811   4.813   5.206   5.210   5.619   8.656  17.265
 17.268  17.742  23.529  23.611  23.701  23.808  23.810  24.198
 27.452  27.456  28.011  31.071  31.071  31.079  31.079  31.104
 31.107  31.146  40.996  41.094  41.271  41.304  41.306 189.195
 
 Beta MOs
 -- Occupied --
-87.962  -9.825  -7.600  -5.617  -5.616  -5.612  -0.640  -0.330
 -0.183  -0.162  -0.127
 -- Virtual --
  0.217   0.227   0.233   0.243   0.253   0.261   0.291   0.322
  0.340   0.395   0.448   0.517   0.517   0.580   0.615   0.628
  0.676   0.689   0.728   0.861   0.885   0.914   1.011   1.013
  1.047   1.168   1.173   1.173   1.184   1.245   1.273   1.274
  1.322   1.351   1.368   1.369   1.369   1.637   1.645   1.654
  1.759   2.104   2.119   2.324   3.050   3.085   3.177   3.185
  3.185   3.199   3.234   3.237   3.315   3.483   3.682   3.682
  3.765   3.765   3.820   3.820   3.884   3.913   4.052   4.222
  4.238   4.573   4.813   4.816   5.206   5.218   5.623   8.659
 17.266  17.272  17.742  23.535  23.612  23.703  23.808  23.812
 24.203  27.464  27.480  28.017  31.072  31.072  31.079  31.079
 31.104  31.107  31.147  41.018  41.103  41.292  41.310  41.324
189.195
 --------------------------------------------------------------
 
          Ground-State Mulliken Net Atomic Charges

     Atom                 Charge (a.u.)    Spin (a.u.)
  --------------------------------------------------------
      1 C                    -0.517312       0.771741
      2 S                    -0.482688       0.228259
  --------------------------------------------------------
  Sum of atomic charges =    -1.000000
  Sum of spin   charges =     1.000000

 -----------------------------------------------------------------
                    Cartesian Multipole Moments
 -----------------------------------------------------------------
    Charge (ESU x 10^10)
                -4.8032
    Dipole Moment (Debye)
         X       0.0000      Y       0.0000      Z      -2.3915
       Tot       2.3915
    Quadrupole Moments (Debye-Ang)
        XX     -24.3559     XY      -1.6712     YY     -24.3724
        XZ       0.0000     YZ      -0.0002     ZZ     -31.5223
    Octapole Moments (Debye-Ang^2)
       XXX      -0.0001    XXY      -0.0001    XYY       0.0000
       YYY      -0.0002    XXZ     -24.4053    XYZ      -1.7380
       YYZ     -24.4225    XZZ      -0.0001    YZZ      -0.0005
       ZZZ     -80.9065
    Hexadecapole Moments (Debye-Ang^3)
      XXXX     -46.6692   XXXY      -4.0678   XXYY     -15.5689
      XYYY      -4.0678   YYYY     -46.7496   XXXZ      -0.0003
      XXYZ      -0.0003   XYYZ      -0.0001   YYYZ      -0.0008
      XXZZ     -58.1527   XYZZ      -6.4820   YYZZ     -58.2169
      XZZZ      -0.0007   YZZZ      -0.0018   ZZZZ    -293.7841
 -----------------------------------------------------------------
 Total job time:  26.91s(wall), 25.14s(cpu) 
 Tue Apr 30 21:23:31 2013

        *************************************************************
        *                                                           *
        *  Thank you very much for using Q-Chem.  Have a nice day.  *
        *                                                           *
        *************************************************************


0 sent ACK to 0 
now end server 0 ... 
 
**********************************************************************
Job 2 of 3 
**********************************************************************
 
Process 0 of 1 is on cl071.stfx.acenet.ca - thread support 1
initial socket setup ...start
initial socket setup ...done 
now start server 0 ... 

cmd = /usr/bin/ssh clhead /usr/local/qchem/bin/get_hostid 1919416236 > /scratch/tmp/5955793.1.short.q/qchem29109/lic.dat
                  Welcome to Q-Chem
     A Quantum Leap Into The Future Of Chemistry

 Y. Shao, L. Fusti-Molnar, Y. Jung, J. Kussmann, C. Ochsenfeld,
 S. T. Brown, A. T. B. Gilbert, L. V. Slipchenko,S. V. Levchenko,
 D. P. O'Neill, R. A. DiStasio Jr., R. C. Lochan, T. Wang,
 G. J. O. Beran, N. A. Besley, J. M. Herbert, C. Y. Lin,
 T. Van Voorhis, S. H. Chien, A. Sodt, R. P. Steele, 
 V. A. Rassolov, P. E. Maslen, P. P. Korambath, R. D. Adamson,
 B. Austin, J. Baker, E. F. C. Byrd, H. Dachsel, R. J. Doerksen,
 A. Dreuw, B. D. Dunietz, A. D. Dutoi, T. R. Furlani,
 S. R. Gwaltney, A. Heyden, S. Hirata, C.-P. Hsu, G. Kedziora,
 R. Z. Khaliullin, P. Klunzinger, A. M. Lee, M. S. Lee, W. Liang,
 I. Lotan, N. Nair, B. Peters, E. I. Proynov, P. A. Pieniazek, 
 Y. M. Rhee, J. Ritchie, E. Rosta, C. D. Sherrill, 
 A. C. Simmonett, J. E. Subotnik, H. L. Woodcock III,
 W. Zhang, A. T. Bell, A. K. Chakraborty, D. M. Chipman,
 F. J. Keil, A. Warshel, W. J. Hehre, H. F. Schaefer III,
 J. Kong, A. I. Krylov, P. M. W. Gill, M. Head-Gordon,
 Q-Chem, Version 3.1, Q-Chem, Inc., Pittsburgh, PA (2007).

 Additional authors for Version 3.1: 
 Z. Gan, Y. Zhao, N. E. Schultz, D. Truhlar, E. Epifanovsky and M. Oana.

 Additional authors for Version 3.2: 
 R. Baer, B. R. Brooks, D. Casanova, J.-D. Chai, C.-L. Cheng, 
 C. Cramer, D. Crittenden, A. Ghysels, G. Hawkins, E. G. Hohenstein, 
 C. Kelley, W. Kurlancheek, D. Liotard, E. Livshits, P. Manohar, 
 A. Marenich, D. Neuhauser, R. Olson, M. A. Rohrdanz, K. S. Thanthiriwatte, 
 A. J. W. Thom, V. Vanovschi, C. F. Williams, Q. Wu and Z.-Q. You. 


 Intel X86 Linux Version

 Q-chem begins on Tue Apr 30 21:23:33 2013  

 Parallel job on  1  processors
Processing $rem in /usr/local/qchem/config/preferences.

theFileMan(): MAXOPENFILES=974 MAX_SUB_FILE_NUM=16
Maximum size of a physical file is 2.0 GB, maximum size of a tmp-file is 32.0 GB


--------------------------------------------------------------
User input:
--------------------------------------------------------------

$molecule
0,1
C
S,1,CS

CS=1.54765317

$end

$comment
neutral
$end

$xc_functional
C PBE   1.00
X wPBE  1.00
$end


$rem
SYMMETRY_DECOMPOSITION	0
LRC_DFT                 true
exchange 		general
BASIS                   g3large
omega			280
mem_static              760
max_scf_cycles          200
scf_final_print         1
sym_ignore              true
$end

--------------------------------------------------------------
 Writing REM_CC_EA            2
 ----------------------------------------------------
       Standard Nuclear Orientation (Angstroms)
    I     Atom         X            Y            Z
 ----------------------------------------------------
    1      C       0.000000     0.000000     0.000000
    2      S       0.000000     0.000000     1.547653
 ----------------------------------------------------
 Nuclear Repulsion Energy =    32.8245457196 hartrees
 There are       11 alpha and       11 beta electrons
 Requested basis set is G3large
 There are 29 shells and 108 basis functions

Total QAlloc Memory Limit   2000 MB
Mega-Array Size       743 MB
MEM_STATIC part       760 MB

                       Distance Matrix (Angstroms)
             C (  1)
   S (  2)  1.547653
 
 A cutoff of  1.0D-08 yielded    423 shell pairs
 There are   5944 function pairs (  8263 Cartesian)
Evaluating contribution to one-electron hamiltonian from nuclear
 Smallest overlap matrix eigenvalue = 6.74E-04
 Multipole matrices computed through 2nd order

  Scale SEOQF with 1.000000e-01/1.000000e-01/1.000000e-01

 Standard Electronic Orientation quadrupole field applied
 Nucleus-field energy     =    -0.0000000041 hartrees
 Guess from superposition of atomic densities
 Warning:  Energy on first SCF cycle will be non-variational
 Long-range K will be added via erf
 Coulomb attenuation parameter = 0.28 bohr**(-1)
 A restricted Kohn-Sham SCF calculation will be
 performed using Pulay DIIS extrapolation
 Exchange:  wPBE + LR-HF      Correlation:  PBE
 Using SG-1 standard quadrature grid
 SCF converges when DIIS error is below 1.0E-05
 Requested basis set is G3large
 There are 29 shells and 108 basis functions
 A cutoff of  1.0D-08 yielded    423 shell pairs
 There are   5944 function pairs (  8263 Cartesian)
 ---------------------------------------
  Cycle       Energy         DIIS Error
 ---------------------------------------
    1    -436.1351052213      3.22E-02
    2    -436.0221115222      2.14E-03
    3    -436.0359565862      1.85E-03
    4    -436.0418390804      9.28E-04
    5    -436.0447669898      2.43E-04
    6    -436.0453770305      7.89E-05
    7    -436.0454377893      2.41E-05
    8    -436.0454391327      4.35E-06 Convergence criterion met
 ---------------------------------------
 One-Electron    Energy =  -665.4812600083
 Total Coulomb   Energy =   227.3836823291
 Alpha Exchange  Energy =    -1.6363203328
 Beta  Exchange  Energy =    -1.6363203328
 DFT   Exchange  Energy =   -26.7070729703
 DFT Correlation Energy =    -0.7926935331
 Nuclear Repu.   Energy =    32.8245457155
 Nuclear Attr.   Energy = -1100.8540717016
 Kinetic         Energy =   435.3728116933
 SCF time:  CPU 19.50 s  wall 20.48 s
 Final Alpha MO Eigenvalues
            1           2           3           4           5           6
    1 -88.2466329 -10.1430187  -7.8850819  -5.9005824  -5.9005811  -5.8990679
            7           8           9          10          11          12
    1  -0.9247014  -0.6181518  -0.4492596  -0.4492566  -0.4041708  -0.0195244
           13          14          15          16
    1  -0.0195212   0.0665328   0.0737181   0.0968846
 Analysis of SCF Wavefunction
 
 --------------------------------------------------------------
                    Orbital Energies (a.u.)
 --------------------------------------------------------------
 
 Alpha MOs
 -- Occupied --
-88.247 -10.143  -7.885  -5.901  -5.901  -5.899  -0.925  -0.618
 -0.449  -0.449  -0.404
 -- Virtual --
 -0.020  -0.020   0.067   0.074   0.097   0.097   0.132   0.153
  0.153   0.199   0.233   0.275   0.275   0.378   0.381   0.381
  0.463   0.463   0.504   0.631   0.631   0.671   0.748   0.748
  0.798   0.922   0.922   0.927   0.927   0.987   1.006   1.007
  1.083   1.098   1.098   1.113   1.113   1.383   1.395   1.395
  1.505   1.847   1.847   2.057   2.767   2.767   2.876   2.876
  2.899   2.899   2.943   2.943   3.024   3.197   3.363   3.364
  3.482   3.482   3.536   3.536   3.603   3.603   3.768   3.946
  3.946   4.291   4.530   4.532   4.929   4.929   5.341   8.377
 16.984  16.984  17.460  23.234  23.326  23.417  23.526  23.526
 23.905  27.150  27.150  27.704  30.786  30.786  30.794  30.795
 30.821  30.821  30.863  40.690  40.786  40.964  40.997  40.997
188.911
 --------------------------------------------------------------
 
          Ground-State Mulliken Net Atomic Charges

     Atom                 Charge (a.u.)
  ----------------------------------------
      1 C                    -0.037075
      2 S                     0.037075
  ----------------------------------------
  Sum of atomic charges =     0.000000

 -----------------------------------------------------------------
                    Cartesian Multipole Moments
 -----------------------------------------------------------------
    Charge (ESU x 10^10)
                 0.0000
    Dipole Moment (Debye)
         X       0.0000      Y      -0.0001      Z       1.9721
       Tot       1.9721
    Quadrupole Moments (Debye-Ang)
        XX     -18.2777     XY       0.0000     YY     -18.2777
        XZ       0.0001     YZ      -0.0001     ZZ     -16.0847
    Octapole Moments (Debye-Ang^2)
       XXX       0.0001    XXY       0.0000    XYY       0.0000
       YYY      -0.0001    XXZ     -18.4056    XYZ       0.0002
       YYZ     -18.4056    XZZ       0.0001    YZZ      -0.0001
       ZZZ     -48.7125
    Hexadecapole Moments (Debye-Ang^3)
      XXXX     -23.1893   XXXY       0.0001   XXYY      -7.7298
      XYYY       0.0001   YYYY     -23.1893   XXXZ       0.0001
      XXYZ       0.0000   XYYZ       0.0000   YYYZ      -0.0001
      XXZZ     -36.2303   XYZZ       0.0006   YYZZ     -36.2303
      XZZZ       0.0002   YZZZ      -0.0001   ZZZZ    -183.5745
 -----------------------------------------------------------------
 Total job time:  20.60s(wall), 19.61s(cpu) 
 Tue Apr 30 21:23:54 2013

        *************************************************************
        *                                                           *
        *  Thank you very much for using Q-Chem.  Have a nice day.  *
        *                                                           *
        *************************************************************


0 sent ACK to 0 
now end server 0 ... 
 
**********************************************************************
Job 3 of 3 
**********************************************************************
 
Process 0 of 1 is on cl071.stfx.acenet.ca - thread support 1
initial socket setup ...start
initial socket setup ...done 
now start server 0 ... 

cmd = /usr/bin/ssh clhead /usr/local/qchem/bin/get_hostid 1384822354 > /scratch/tmp/5955793.1.short.q/qchem29109/lic.dat
                  Welcome to Q-Chem
     A Quantum Leap Into The Future Of Chemistry

 Y. Shao, L. Fusti-Molnar, Y. Jung, J. Kussmann, C. Ochsenfeld,
 S. T. Brown, A. T. B. Gilbert, L. V. Slipchenko,S. V. Levchenko,
 D. P. O'Neill, R. A. DiStasio Jr., R. C. Lochan, T. Wang,
 G. J. O. Beran, N. A. Besley, J. M. Herbert, C. Y. Lin,
 T. Van Voorhis, S. H. Chien, A. Sodt, R. P. Steele, 
 V. A. Rassolov, P. E. Maslen, P. P. Korambath, R. D. Adamson,
 B. Austin, J. Baker, E. F. C. Byrd, H. Dachsel, R. J. Doerksen,
 A. Dreuw, B. D. Dunietz, A. D. Dutoi, T. R. Furlani,
 S. R. Gwaltney, A. Heyden, S. Hirata, C.-P. Hsu, G. Kedziora,
 R. Z. Khaliullin, P. Klunzinger, A. M. Lee, M. S. Lee, W. Liang,
 I. Lotan, N. Nair, B. Peters, E. I. Proynov, P. A. Pieniazek, 
 Y. M. Rhee, J. Ritchie, E. Rosta, C. D. Sherrill, 
 A. C. Simmonett, J. E. Subotnik, H. L. Woodcock III,
 W. Zhang, A. T. Bell, A. K. Chakraborty, D. M. Chipman,
 F. J. Keil, A. Warshel, W. J. Hehre, H. F. Schaefer III,
 J. Kong, A. I. Krylov, P. M. W. Gill, M. Head-Gordon,
 Q-Chem, Version 3.1, Q-Chem, Inc., Pittsburgh, PA (2007).

 Additional authors for Version 3.1: 
 Z. Gan, Y. Zhao, N. E. Schultz, D. Truhlar, E. Epifanovsky and M. Oana.

 Additional authors for Version 3.2: 
 R. Baer, B. R. Brooks, D. Casanova, J.-D. Chai, C.-L. Cheng, 
 C. Cramer, D. Crittenden, A. Ghysels, G. Hawkins, E. G. Hohenstein, 
 C. Kelley, W. Kurlancheek, D. Liotard, E. Livshits, P. Manohar, 
 A. Marenich, D. Neuhauser, R. Olson, M. A. Rohrdanz, K. S. Thanthiriwatte, 
 A. J. W. Thom, V. Vanovschi, C. F. Williams, Q. Wu and Z.-Q. You. 


 Intel X86 Linux Version

 Q-chem begins on Tue Apr 30 21:23:57 2013  

 Parallel job on  1  processors
Processing $rem in /usr/local/qchem/config/preferences.

theFileMan(): MAXOPENFILES=974 MAX_SUB_FILE_NUM=16
Maximum size of a physical file is 2.0 GB, maximum size of a tmp-file is 32.0 GB


--------------------------------------------------------------
User input:
--------------------------------------------------------------

$molecule
1,2
C
S,1,CS

CS=1.54765317

$end

$comment
positive
$end

$xc_functional
C PBE   1.00
X wPBE  1.00
$end

$rem
SYMMETRY_DECOMPOSITION	0
LRC_DFT                 true
exchange 		general
BASIS                   g3large
omega			280
mem_static              760
max_scf_cycles          200
scf_final_print         1
sym_ignore              true
$end

--------------------------------------------------------------
 Writing REM_CC_EA            2
 ----------------------------------------------------
       Standard Nuclear Orientation (Angstroms)
    I     Atom         X            Y            Z
 ----------------------------------------------------
    1      C       0.000000     0.000000     0.000000
    2      S       0.000000     0.000000     1.547653
 ----------------------------------------------------
 Nuclear Repulsion Energy =    32.8245457196 hartrees
 There are       11 alpha and       10 beta electrons
 Requested basis set is G3large
 There are 29 shells and 108 basis functions

Total QAlloc Memory Limit   2000 MB
Mega-Array Size       743 MB
MEM_STATIC part       760 MB

                       Distance Matrix (Angstroms)
             C (  1)
   S (  2)  1.547653
 
 A cutoff of  1.0D-08 yielded    423 shell pairs
 There are   5944 function pairs (  8263 Cartesian)
Evaluating contribution to one-electron hamiltonian from nuclear
 Smallest overlap matrix eigenvalue = 6.74E-04
 Multipole matrices computed through 2nd order

  Scale SEOQF with 1.000000e-01/1.000000e-01/1.000000e-01

 Standard Electronic Orientation quadrupole field applied
 Nucleus-field energy     =    -0.0000000041 hartrees
 Guess from superposition of atomic densities
 Warning:  Energy on first SCF cycle will be non-variational
 Long-range K will be added via erf
 Coulomb attenuation parameter = 0.28 bohr**(-1)
 An unrestricted Kohn-Sham SCF calculation will be
 performed using Pulay DIIS extrapolation
 Exchange:  wPBE + LR-HF      Correlation:  PBE
 Using SG-1 standard quadrature grid
 SCF converges when DIIS error is below 1.0E-05
 Requested basis set is G3large
 There are 29 shells and 108 basis functions
 A cutoff of  1.0D-08 yielded    423 shell pairs
 There are   5944 function pairs (  8263 Cartesian)
 Warning!  Inaccurate integrated density:
   Number of electrons =    21
   Numerical integral  =    21.999986000584
   Relative error      =     4.7618380980 %
 ---------------------------------------
  Cycle       Energy         DIIS Error
 ---------------------------------------
    1    -436.1351052213      3.22E-02
    2    -435.5476807389      4.47E-03
    3    -435.5737344943      5.08E-03
    4    -435.6118296033      2.00E-03
    5    -435.6195551875      4.79E-04
    6    -435.6217187441      2.08E-04
    7    -435.6227430102      6.49E-05
    8    -435.6230987690      2.12E-05
    9    -435.6232705684      1.70E-05
   10    -435.6234258131      1.15E-05
   11    -435.6235973764      9.67E-06 Convergence criterion met
 ---------------------------------------
 One-Electron    Energy =  -658.1125519344
 Total Coulomb   Energy =   220.1233516740
 Alpha Exchange  Energy =    -1.6441149998
 Beta  Exchange  Energy =    -1.4969232920
 DFT   Exchange  Energy =   -26.5662518087
 DFT Correlation Energy =    -0.7516527309
 Nuclear Repu.   Energy =    32.8245457155
 Nuclear Attr.   Energy = -1092.9621059711
 Kinetic         Energy =   434.8495540367
 <S^2> = 0.8232
 SCF time:  CPU 31.41 s  wall 33.05 s
 Final Alpha MO Eigenvalues
            1           2           3           4           5           6
    1 -88.5962126 -10.5296489  -8.2257788  -6.2444362  -6.2401069  -6.2401014
            7           8           9          10          11          12
    1  -1.2459795  -0.9462390  -0.7938922  -0.7565404  -0.7565269  -0.3351056
           13          14          15          16
    1  -0.3350866  -0.1333514  -0.1026846  -0.0663746
 Final Beta MO Eigenvalues
            1           2           3           4           5           6
    1 -88.5969195 -10.5077001  -8.2263862  -6.2428406  -6.2428363  -6.2415300
            7           8           9          10          11          12
    1  -1.2311560  -0.9020994  -0.7473324  -0.7473277  -0.4266096  -0.3029365
           13          14          15
    1  -0.3029220  -0.1265438  -0.0966548
 Analysis of SCF Wavefunction
 
 --------------------------------------------------------------
                    Orbital Energies (a.u.)
 --------------------------------------------------------------
 
 Alpha MOs
 -- Occupied --
-88.596 -10.530  -8.226  -6.244  -6.240  -6.240  -1.246  -0.946
 -0.794  -0.757  -0.757
 -- Virtual --
 -0.335  -0.335  -0.133  -0.103  -0.066  -0.066  -0.056  -0.016
 -0.014  -0.014   0.028   0.028   0.043   0.112   0.112   0.180
  0.245   0.245   0.245   0.369   0.369   0.382   0.462   0.462
  0.529   0.639   0.639   0.683   0.683   0.691   0.727   0.727
  0.808   0.808   0.825   0.842   0.842   1.103   1.108   1.108
  1.181   1.566   1.566   1.757   2.424   2.424   2.532   2.532
  2.558   2.558   2.603   2.603   2.670   2.835   2.980   2.981
  3.183   3.183   3.200   3.200   3.222   3.222   3.374   3.612
  3.612   3.930   4.209   4.212   4.596   4.596   5.005   8.047
 16.649  16.649  17.115  22.867  22.989  23.079  23.184  23.184
 23.546  26.768  26.768  27.307  30.448  30.448  30.454  30.454
 30.479  30.479  30.520  40.309  40.391  40.584  40.608  40.608
188.564
 
 Beta MOs
 -- Occupied --
-88.597 -10.508  -8.226  -6.243  -6.243  -6.242  -1.231  -0.902
 -0.747  -0.747
 -- Virtual --
 -0.427  -0.303  -0.303  -0.127  -0.097  -0.066  -0.066  -0.046
 -0.012  -0.012  -0.004   0.016   0.016   0.052   0.128   0.128
  0.181   0.243   0.243   0.270   0.390   0.390   0.421   0.483
  0.483   0.550   0.659   0.659   0.672   0.672   0.714   0.714
  0.718   0.825   0.825   0.836   0.856   0.856   1.111   1.135
  1.135   1.239   1.562   1.562   1.775   2.461   2.461   2.584
  2.584   2.596   2.596   2.652   2.652   2.729   2.892   3.063
  3.063   3.161   3.161   3.221   3.221   3.319   3.319   3.488
  3.635   3.635   3.982   4.203   4.206   4.608   4.608   5.021
  8.050  16.644  16.644  17.122  22.884  22.985  23.075  23.185
 23.185  23.557  26.790  26.790  27.348  30.446  30.446  30.454
 30.454  30.480  30.480  30.521  40.330  40.431  40.604  40.640
 40.640 188.563
 --------------------------------------------------------------
 
          Ground-State Mulliken Net Atomic Charges

     Atom                 Charge (a.u.)    Spin (a.u.)
  --------------------------------------------------------
      1 C                     0.554925       1.146984
      2 S                     0.445075      -0.146984
  --------------------------------------------------------
  Sum of atomic charges =     1.000000
  Sum of spin   charges =     1.000000

 -----------------------------------------------------------------
                    Cartesian Multipole Moments
 -----------------------------------------------------------------
    Charge (ESU x 10^10)
                 4.8032
    Dipole Moment (Debye)
         X      -0.0003      Y       0.0004      Z       4.7281
       Tot       4.7281
    Quadrupole Moments (Debye-Ang)
        XX     -15.0759     XY       0.0000     YY     -15.0759
        XZ      -0.0003     YZ       0.0004     ZZ      -4.3249
    Octapole Moments (Debye-Ang^2)
       XXX      -0.0005    XXY       0.0002    XYY      -0.0002
       YYY       0.0006    XXZ     -15.7048    XYZ       0.0000
       YYZ     -15.7048    XZZ      -0.0009    YZZ       0.0012
       ZZZ     -27.5806
    Hexadecapole Moments (Debye-Ang^3)
      XXXX     -15.8106   XXXY       0.0000   XXYY      -5.2702
      XYYY       0.0000   YYYY     -15.8106   XXXZ      -0.0005
      XXYZ       0.0002   XYYZ      -0.0002   YYYZ       0.0005
      XXZZ     -27.9637   XYZZ       0.0001   YYZZ     -27.9637
      XZZZ      -0.0023   YZZZ       0.0028   ZZZZ    -120.3934
 -----------------------------------------------------------------
 Total job time:  33.18s(wall), 31.53s(cpu) 
 Tue Apr 30 21:24:30 2013

        *************************************************************
        *                                                           *
        *  Thank you very much for using Q-Chem.  Have a nice day.  *
        *                                                           *
        *************************************************************


0 sent ACK to 0 
now end server 0 ... 
