Process 0 of 1 is on cl190.stfx.acenet.ca - thread support 1
initial socket setup ...start
initial socket setup ...done 
now start server 0 ... 

cmd = /usr/bin/ssh clhead /usr/local/qchem/bin/get_hostid 1406817511 > /globalscratch/itamblyn/bnl/g297_b3lyp_neut_g03Large_worked/g2g71114/omega300/qchem11467/lic.dat
                  Welcome to Q-Chem
     A Quantum Leap Into The Future Of Chemistry

 Y. Shao, L. Fusti-Molnar, Y. Jung, J. Kussmann, C. Ochsenfeld,
 S. T. Brown, A. T. B. Gilbert, L. V. Slipchenko,S. V. Levchenko,
 D. P. O'Neill, R. A. DiStasio Jr., R. C. Lochan, T. Wang,
 G. J. O. Beran, N. A. Besley, J. M. Herbert, C. Y. Lin,
 T. Van Voorhis, S. H. Chien, A. Sodt, R. P. Steele, 
 V. A. Rassolov, P. E. Maslen, P. P. Korambath, R. D. Adamson,
 B. Austin, J. Baker, E. F. C. Byrd, H. Dachsel, R. J. Doerksen,
 A. Dreuw, B. D. Dunietz, A. D. Dutoi, T. R. Furlani,
 S. R. Gwaltney, A. Heyden, S. Hirata, C.-P. Hsu, G. Kedziora,
 R. Z. Khaliullin, P. Klunzinger, A. M. Lee, M. S. Lee, W. Liang,
 I. Lotan, N. Nair, B. Peters, E. I. Proynov, P. A. Pieniazek, 
 Y. M. Rhee, J. Ritchie, E. Rosta, C. D. Sherrill, 
 A. C. Simmonett, J. E. Subotnik, H. L. Woodcock III,
 W. Zhang, A. T. Bell, A. K. Chakraborty, D. M. Chipman,
 F. J. Keil, A. Warshel, W. J. Hehre, H. F. Schaefer III,
 J. Kong, A. I. Krylov, P. M. W. Gill, M. Head-Gordon,
 Q-Chem, Version 3.1, Q-Chem, Inc., Pittsburgh, PA (2007).

 Additional authors for Version 3.1: 
 Z. Gan, Y. Zhao, N. E. Schultz, D. Truhlar, E. Epifanovsky and M. Oana.

 Additional authors for Version 3.2: 
 R. Baer, B. R. Brooks, D. Casanova, J.-D. Chai, C.-L. Cheng, 
 C. Cramer, D. Crittenden, A. Ghysels, G. Hawkins, E. G. Hohenstein, 
 C. Kelley, W. Kurlancheek, D. Liotard, E. Livshits, P. Manohar, 
 A. Marenich, D. Neuhauser, R. Olson, M. A. Rohrdanz, K. S. Thanthiriwatte, 
 A. J. W. Thom, V. Vanovschi, C. F. Williams, Q. Wu and Z.-Q. You. 


 Intel X86 Linux Version

 Q-chem begins on Tue Apr 12 22:35:27 2011  

 Parallel job on  1  processors
Processing $rem in /usr/local/qchem/config/preferences.

theFileMan(): MAXOPENFILES=974 MAX_SUB_FILE_NUM=16
Maximum size of a physical file is 2.0 GB, maximum size of a tmp-file is 32.0 GB


--------------------------------------------------------------
User input:
--------------------------------------------------------------

$molecule
-1,2
C,0.741167814,0.8054998119,0.
S,0.,-0.8753990055,0.
C,-0.741167814,0.8054998119,0.
H,1.2584073082,1.0850965864,-0.9145221968
H,1.2584073082,1.0850965864,0.9145221968
H,-1.2584073082,1.0850965864,0.9145221968
H,-1.2584073082,1.0850965864,-0.9145221968

$end

$comment
negative
$end

$xc_functional
   X HF 1.0
   X BNL 1.0
   C LYP 1.0
$end

$rem
SYMMETRY_DECOMPOSITION	0
exchange 		general
BASIS                   g3large
omega			300
separate_jk		true
mem_static              760
max_scf_cycles          200
scf_final_print         1
sym_ignore              true
$end

--------------------------------------------------------------
 Writing REM_CC_EA            7
 ----------------------------------------------------
       Standard Nuclear Orientation (Angstroms)
    I     Atom         X            Y            Z
 ----------------------------------------------------
    1      C       0.741168     0.805500     0.000000
    2      S       0.000000    -0.875399     0.000000
    3      C      -0.741168     0.805500     0.000000
    4      H       1.258407     1.085097    -0.914522
    5      H       1.258407     1.085097     0.914522
    6      H      -1.258407     1.085097     0.914522
    7      H      -1.258407     1.085097    -0.914522
 ----------------------------------------------------
 Nuclear Repulsion Energy =   100.4416739056 hartrees
 There are       17 alpha and       16 beta electrons
 Requested basis set is G3large
 There are 63 shells and 190 basis functions

Total QAlloc Memory Limit   2000 MB
Mega-Array Size       743 MB
MEM_STATIC part       760 MB

                       Distance Matrix (Angstroms)
             C (  1)   S (  2)   C (  3)   H (  4)   H (  5)   H (  6)
   S (  2)  1.837049
   C (  3)  1.482336  1.837049
   H (  4)  1.087227  2.502695  2.216490
   H (  5)  1.087227  2.502695  2.216490  1.829044
   H (  6)  2.216490  2.502695  1.087227  3.111231  2.516815
   H (  7)  2.216490  2.502695  1.087227  2.516815  3.111231  1.829044

 
 A cutoff of  1.0D-08 yielded   1912 shell pairs
 There are  17613 function pairs ( 22653 Cartesian)
Evaluating contribution to one-electron hamiltonian from nuclear
 Smallest overlap matrix eigenvalue = 7.97E-05

 Q-Chem warning in module mkSTV.C, line 194:

 Overlap eigenvalue is smaller than square root of threshold

 Multipole matrices computed through 2nd order

  Scale SEOQF with 1.000000e-01/1.000000e-01/1.000000e-01

 Standard Electronic Orientation quadrupole field applied
 Nucleus-field energy     =     0.0000000019 hartrees
 Guess from superposition of atomic densities
 Warning:  Energy on first SCF cycle will be non-variational
 An unrestricted hybrid HF-DFT SCF calculation will be
 performed using Pulay DIIS extrapolation
 Exchange:     1.0000 Hartree-Fock + 1.0000 BNL
 Correlation:  1.0000 LYP
 Using SG-1 standard quadrature grid
 SCF converges when DIIS error is below 1.0E-05
 Warning!  Inaccurate integrated density:
   Number of electrons =    33
   Numerical integral  =    32.000240494725
   Relative error      =    -3.0295742584 %
 ---------------------------------------
  Cycle       Energy         DIIS Error
 ---------------------------------------
    1    -474.6265000552      3.18E-02
    2    -473.8197584071      3.86E-03
    3    -473.8457915143      4.42E-03
    4    -473.9363109272      5.20E-04
    5    -473.9397641958      3.25E-04
    6    -473.9419482403      2.07E-04
    7    -473.9433460232      1.34E-04
    8    -473.9447549683      8.11E-05
    9    -473.9456042091      3.27E-05
   10    -473.9458520329      2.49E-05
   11    -473.9459666723      2.39E-05
   12    -473.9459375260      2.34E-05
   13    -473.9456266734      1.61E-05
   14    -473.9454746452      1.19E-05
   15    -473.9454679234      4.57E-06 Convergence criterion met
 ---------------------------------------
 One-Electron    Energy =  -858.5405480365
 Total Coulomb   Energy =   319.3068406126
 Alpha Exchange  Energy =    -2.5828725022
 Beta  Exchange  Energy =    -2.5132091847
 DFT   Exchange  Energy =   -28.8780184055
 DFT Correlation Energy =    -1.1793343146
 Nuclear Repu.   Energy =   100.4416739075
 Nuclear Attr.   Energy = -1331.5265946377
 Kinetic         Energy =   472.9860466012
 <S^2> = 0.7507
 SCF time:  CPU 219.78 s  wall 269.43 s
 Final Alpha MO Eigenvalues
            1           2           3           4           5           6
    1 -87.6875074  -9.8055338  -9.8052083  -7.6296261  -5.6830291  -5.6796100
            7           8           9          10          11          12
    1  -5.6719405  -0.8014688  -0.5651090  -0.5607601  -0.4387586  -0.3947008
           13          14          15          16          17          18
    1  -0.3200362  -0.2701977  -0.2564118  -0.1719639   0.0427768   0.1331233
           19          20          21          22
    1   0.1574371   0.1767679   0.1773161   0.1934197
 Final Beta MO Eigenvalues
            1           2           3           4           5           6
    1 -87.6873791  -9.8039831  -9.8036195  -7.6294236  -5.6829510  -5.6790985
            7           8           9          10          11          12
    1  -5.6718242  -0.7991939  -0.5635337  -0.5574788  -0.4374809  -0.3921679
           13          14          15          16          17          18
    1  -0.3186286  -0.2664032  -0.2507693  -0.1711113   0.1388012   0.1456570
           19          20          21
    1   0.1504339   0.1728079   0.1732215
 Analysis of SCF Wavefunction
 
 --------------------------------------------------------------
                    Orbital Energies (a.u.)
 --------------------------------------------------------------
 
 Alpha MOs
 -- Occupied --
-87.688  -9.806  -9.805  -7.630  -5.683  -5.680  -5.672  -0.801
 -0.565  -0.561  -0.439  -0.395  -0.320  -0.270  -0.256  -0.172
  0.043
 -- Virtual --
  0.133   0.157   0.177   0.177   0.193   0.233   0.233   0.235
  0.238   0.273   0.280   0.296   0.299   0.303   0.309   0.315
  0.328   0.364   0.403   0.417   0.445   0.476   0.509   0.525
  0.549   0.555   0.562   0.610   0.614   0.645   0.669   0.689
  0.751   0.768   0.769   0.786   0.793   0.795   0.821   0.849
  0.888   0.951   1.002   1.006   1.088   1.088   1.097   1.118
  1.141   1.197   1.197   1.209   1.221   1.239   1.275   1.282
  1.350   1.393   1.417   1.424   1.457   1.459   1.498   1.523
  1.529   1.570   1.580   1.598   1.639   1.650   1.671   1.682
  1.722   1.722   1.770   1.809   1.838   2.111   2.299   2.365
  2.710   2.721   2.883   2.898   3.001   3.016   3.052   3.106
  3.134   3.185   3.250   3.278   3.286   3.327   3.350   3.363
  3.383   3.474   3.536   3.574   3.580   3.612   3.634   3.725
  3.732   3.756   3.782   3.831   3.840   3.842   3.856   3.931
  4.011   4.039   4.171   4.191   4.226   4.304   4.405   4.409
  4.416   4.447   4.526   4.529   4.641   4.732   4.733   4.819
  4.868   5.023   5.119   5.306   5.353   5.438   5.527   5.767
  5.826   5.870   8.599  17.254  17.433  17.600  23.597  23.735
 23.768  23.796  23.866  24.322  24.538  27.634  27.913  28.146
 28.253  28.312  28.617  31.070  31.071  31.076  31.081  31.088
 31.093  31.114  40.968  41.033  41.052  41.155  41.313  41.327
 41.335  41.337  41.413  41.433 189.694
 
 Beta MOs
 -- Occupied --
-87.687  -9.804  -9.804  -7.629  -5.683  -5.679  -5.672  -0.799
 -0.564  -0.557  -0.437  -0.392  -0.319  -0.266  -0.251  -0.171
 -- Virtual --
  0.139   0.146   0.150   0.173   0.173   0.205   0.228   0.231
  0.233   0.235   0.265   0.275   0.292   0.294   0.300   0.301
  0.308   0.326   0.362   0.401   0.415   0.440   0.473   0.508
  0.524   0.546   0.553   0.560   0.608   0.613   0.643   0.667
  0.686   0.748   0.768   0.771   0.783   0.790   0.792   0.818
  0.850   0.888   0.952   1.004   1.006   1.089   1.089   1.097
  1.118   1.141   1.197   1.198   1.209   1.220   1.239   1.275
  1.283   1.350   1.394   1.417   1.422   1.458   1.460   1.499
  1.523   1.530   1.571   1.580   1.598   1.639   1.650   1.671
  1.683   1.723   1.724   1.770   1.809   1.839   2.111   2.301
  2.366   2.711   2.722   2.885   2.898   3.002   3.017   3.053
  3.109   3.135   3.188   3.253   3.279   3.288   3.329   3.352
  3.365   3.385   3.476   3.539   3.576   3.582   3.614   3.636
  3.727   3.735   3.758   3.784   3.832   3.841   3.844   3.858
  3.933   4.011   4.040   4.172   4.192   4.227   4.305   4.406
  4.410   4.417   4.448   4.528   4.530   4.643   4.733   4.734
  4.820   4.869   5.025   5.120   5.308   5.354   5.439   5.529
  5.768   5.828   5.872   8.600  17.254  17.433  17.600  23.597
 23.736  23.768  23.796  23.866  24.324  24.541  27.636  27.915
 28.148  28.255  28.313  28.618  31.071  31.071  31.076  31.081
 31.088  31.093  31.115  40.970  41.034  41.053  41.156  41.315
 41.328  41.336  41.338  41.414  41.434 189.694
 --------------------------------------------------------------
 
          Ground-State Mulliken Net Atomic Charges

     Atom                 Charge (a.u.)    Spin (a.u.)
  --------------------------------------------------------
      1 C                     0.792297      -0.893006
      2 S                    -0.777327       0.510112
      3 C                     0.827970      -0.929234
      4 H                    -0.455530       0.572574
      5 H                    -0.455008       0.572006
      6 H                    -0.466418       0.584007
      7 H                    -0.465984       0.583541
  --------------------------------------------------------
  Sum of atomic charges =    -1.000000
  Sum of spin   charges =     1.000000

 -----------------------------------------------------------------
                    Cartesian Multipole Moments
 -----------------------------------------------------------------
    Charge (ESU x 10^10)
                -4.8032
    Dipole Moment (Debye)
         X       0.0451      Y      -1.4467      Z       0.0003
       Tot       1.4474
    Quadrupole Moments (Debye-Ang)
        XX     -66.9436     XY       0.2167     YY     -48.0515
        XZ       0.0078     YZ       0.0002     ZZ     -44.4880
    Octapole Moments (Debye-Ang^2)
       XXX       0.5464    XXY     -41.0219    XYY       0.3503
       YYY     -38.8591    XXZ       0.0025    XYZ       0.0089
       YYZ       0.0011    XZZ       0.2413    YZZ     -13.0508
       ZZZ       0.0023
    Hexadecapole Moments (Debye-Ang^3)
      XXXX    -731.4083   XXXY       1.8586   XXYY    -217.6716
      XYYY       2.1088   YYYY    -374.7468   XXXZ       0.0807
      XXYZ       0.0028   XYYZ       0.0319   YYYZ       0.0023
      XXZZ    -173.0887   XYZZ       0.6349   YYZZ    -106.8934
      XZZZ       0.0709   YZZZ       0.0027   ZZZZ    -223.6624
 -----------------------------------------------------------------
 Total job time:  271.53s(wall), 220.03s(cpu) 
 Tue Apr 12 22:39:59 2011

        *************************************************************
        *                                                           *
        *  Thank you very much for using Q-Chem.  Have a nice day.  *
        *                                                           *
        *************************************************************


0 sent ACK to 0 
now end server 0 ... 
 
**********************************************************************
Job 2 of 3 
**********************************************************************
 
Process 0 of 1 is on cl190.stfx.acenet.ca - thread support 1
initial socket setup ...start
initial socket setup ...done 
now start server 0 ... 

cmd = /usr/bin/ssh clhead /usr/local/qchem/bin/get_hostid 444930802 > /globalscratch/itamblyn/bnl/g297_b3lyp_neut_g03Large_worked/g2g71114/omega300/qchem11467/lic.dat
                  Welcome to Q-Chem
     A Quantum Leap Into The Future Of Chemistry

 Y. Shao, L. Fusti-Molnar, Y. Jung, J. Kussmann, C. Ochsenfeld,
 S. T. Brown, A. T. B. Gilbert, L. V. Slipchenko,S. V. Levchenko,
 D. P. O'Neill, R. A. DiStasio Jr., R. C. Lochan, T. Wang,
 G. J. O. Beran, N. A. Besley, J. M. Herbert, C. Y. Lin,
 T. Van Voorhis, S. H. Chien, A. Sodt, R. P. Steele, 
 V. A. Rassolov, P. E. Maslen, P. P. Korambath, R. D. Adamson,
 B. Austin, J. Baker, E. F. C. Byrd, H. Dachsel, R. J. Doerksen,
 A. Dreuw, B. D. Dunietz, A. D. Dutoi, T. R. Furlani,
 S. R. Gwaltney, A. Heyden, S. Hirata, C.-P. Hsu, G. Kedziora,
 R. Z. Khaliullin, P. Klunzinger, A. M. Lee, M. S. Lee, W. Liang,
 I. Lotan, N. Nair, B. Peters, E. I. Proynov, P. A. Pieniazek, 
 Y. M. Rhee, J. Ritchie, E. Rosta, C. D. Sherrill, 
 A. C. Simmonett, J. E. Subotnik, H. L. Woodcock III,
 W. Zhang, A. T. Bell, A. K. Chakraborty, D. M. Chipman,
 F. J. Keil, A. Warshel, W. J. Hehre, H. F. Schaefer III,
 J. Kong, A. I. Krylov, P. M. W. Gill, M. Head-Gordon,
 Q-Chem, Version 3.1, Q-Chem, Inc., Pittsburgh, PA (2007).

 Additional authors for Version 3.1: 
 Z. Gan, Y. Zhao, N. E. Schultz, D. Truhlar, E. Epifanovsky and M. Oana.

 Additional authors for Version 3.2: 
 R. Baer, B. R. Brooks, D. Casanova, J.-D. Chai, C.-L. Cheng, 
 C. Cramer, D. Crittenden, A. Ghysels, G. Hawkins, E. G. Hohenstein, 
 C. Kelley, W. Kurlancheek, D. Liotard, E. Livshits, P. Manohar, 
 A. Marenich, D. Neuhauser, R. Olson, M. A. Rohrdanz, K. S. Thanthiriwatte, 
 A. J. W. Thom, V. Vanovschi, C. F. Williams, Q. Wu and Z.-Q. You. 


 Intel X86 Linux Version

 Q-chem begins on Tue Apr 12 22:40:02 2011  

 Parallel job on  1  processors
Processing $rem in /usr/local/qchem/config/preferences.

theFileMan(): MAXOPENFILES=974 MAX_SUB_FILE_NUM=16
Maximum size of a physical file is 2.0 GB, maximum size of a tmp-file is 32.0 GB


--------------------------------------------------------------
User input:
--------------------------------------------------------------

$molecule
0,1
C,0.741167814,0.8054998119,0.
S,0.,-0.8753990055,0.
C,-0.741167814,0.8054998119,0.
H,1.2584073082,1.0850965864,-0.9145221968
H,1.2584073082,1.0850965864,0.9145221968
H,-1.2584073082,1.0850965864,0.9145221968
H,-1.2584073082,1.0850965864,-0.9145221968

$end

$comment
neutral
$end

$xc_functional
   X HF 1.0
   X BNL 1.0
   C LYP 1.0
$end

$rem
SYMMETRY_DECOMPOSITION	0
exchange 		general
BASIS                   g3large
omega			300
separate_jk		true
mem_static              760
max_scf_cycles          200
scf_final_print         1
sym_ignore              true
$end

--------------------------------------------------------------
 Writing REM_CC_EA            7
 ----------------------------------------------------
       Standard Nuclear Orientation (Angstroms)
    I     Atom         X            Y            Z
 ----------------------------------------------------
    1      C       0.741168     0.805500     0.000000
    2      S       0.000000    -0.875399     0.000000
    3      C      -0.741168     0.805500     0.000000
    4      H       1.258407     1.085097    -0.914522
    5      H       1.258407     1.085097     0.914522
    6      H      -1.258407     1.085097     0.914522
    7      H      -1.258407     1.085097    -0.914522
 ----------------------------------------------------
 Nuclear Repulsion Energy =   100.4416739056 hartrees
 There are       16 alpha and       16 beta electrons
 Requested basis set is G3large
 There are 63 shells and 190 basis functions

Total QAlloc Memory Limit   2000 MB
Mega-Array Size       743 MB
MEM_STATIC part       760 MB

                       Distance Matrix (Angstroms)
             C (  1)   S (  2)   C (  3)   H (  4)   H (  5)   H (  6)
   S (  2)  1.837049
   C (  3)  1.482336  1.837049
   H (  4)  1.087227  2.502695  2.216490
   H (  5)  1.087227  2.502695  2.216490  1.829044
   H (  6)  2.216490  2.502695  1.087227  3.111231  2.516815
   H (  7)  2.216490  2.502695  1.087227  2.516815  3.111231  1.829044

 
 A cutoff of  1.0D-08 yielded   1912 shell pairs
 There are  17613 function pairs ( 22653 Cartesian)
Evaluating contribution to one-electron hamiltonian from nuclear
 Smallest overlap matrix eigenvalue = 7.97E-05

 Q-Chem warning in module mkSTV.C, line 194:

 Overlap eigenvalue is smaller than square root of threshold

 Multipole matrices computed through 2nd order

  Scale SEOQF with 1.000000e-01/1.000000e-01/1.000000e-01

 Standard Electronic Orientation quadrupole field applied
 Nucleus-field energy     =     0.0000000019 hartrees
 Guess from superposition of atomic densities
 Warning:  Energy on first SCF cycle will be non-variational
 A restricted hybrid HF-DFT SCF calculation will be
 performed using Pulay DIIS extrapolation
 Exchange:     1.0000 Hartree-Fock + 1.0000 BNL
 Correlation:  1.0000 LYP
 Using SG-1 standard quadrature grid
 SCF converges when DIIS error is below 1.0E-05
 ---------------------------------------
  Cycle       Energy         DIIS Error
 ---------------------------------------
    1    -474.6265000552      3.18E-02
    2    -473.9544677156      2.36E-03
    3    -473.9794076169      1.37E-03
    4    -473.9865551701      4.36E-04
    5    -473.9874941781      1.31E-04
    6    -473.9876187339      4.90E-05
    7    -473.9876354565      1.64E-05
    8    -473.9876368300      6.83E-06 Convergence criterion met
 ---------------------------------------
 One-Electron    Energy =  -853.7410460192
 Total Coulomb   Energy =   314.3664943147
 Alpha Exchange  Energy =    -2.5158077955
 Beta  Exchange  Energy =    -2.5158077955
 DFT   Exchange  Energy =   -28.8528797488
 DFT Correlation Energy =    -1.1702636932
 Nuclear Repu.   Energy =   100.4416739075
 Nuclear Attr.   Energy = -1326.6120022515
 Kinetic         Energy =   472.8709562323
 SCF time:  CPU 91.33 s  wall 125.84 s
 Final Alpha MO Eigenvalues
            1           2           3           4           5           6
    1 -87.8378671  -9.9616868  -9.9615331  -7.7809660  -5.8343498  -5.8313279
            7           8           9          10          11          12
    1  -5.8226013  -0.9533397  -0.7152031  -0.7113438  -0.5889895  -0.5452815
           13          14          15          16          17          18
    1  -0.4703715  -0.4195648  -0.4053615  -0.3198779   0.0328271   0.0398879
           19          20          21
    1   0.0497015   0.0611669   0.0780197
 Analysis of SCF Wavefunction
 
 --------------------------------------------------------------
                    Orbital Energies (a.u.)
 --------------------------------------------------------------
 
 Alpha MOs
 -- Occupied --
-87.838  -9.962  -9.962  -7.781  -5.834  -5.831  -5.823  -0.953
 -0.715  -0.711  -0.589  -0.545  -0.470  -0.420  -0.405  -0.320
 -- Virtual --
  0.033   0.040   0.050   0.061   0.078   0.081   0.110   0.116
  0.119   0.124   0.153   0.156   0.176   0.177   0.182   0.186
  0.190   0.194   0.226   0.266   0.280   0.308   0.335   0.366
  0.385   0.411   0.416   0.428   0.470   0.477   0.502   0.529
  0.550   0.611   0.625   0.626   0.643   0.650   0.652   0.678
  0.703   0.743   0.805   0.855   0.860   0.940   0.942   0.951
  0.971   0.995   1.051   1.051   1.061   1.075   1.092   1.128
  1.135   1.204   1.246   1.272   1.275   1.310   1.313   1.351
  1.379   1.380   1.423   1.432   1.452   1.493   1.501   1.526
  1.536   1.576   1.576   1.624   1.662   1.689   1.965   2.150
  2.215   2.560   2.571   2.731   2.749   2.850   2.866   2.903
  2.956   2.984   3.034   3.099   3.127   3.135   3.176   3.199
  3.212   3.232   3.324   3.385   3.424   3.429   3.460   3.484
  3.574   3.581   3.605   3.632   3.681   3.688   3.691   3.705
  3.780   3.860   3.888   4.020   4.039   4.075   4.153   4.254
  4.258   4.266   4.297   4.375   4.378   4.490   4.581   4.582
  4.668   4.717   4.871   4.969   5.155   5.203   5.286   5.377
  5.616   5.676   5.719   8.449  17.103  17.281  17.449  23.445
 23.584  23.617  23.645  23.714  24.166  24.383  27.478  27.757
 27.991  28.098  28.156  28.461  30.919  30.920  30.924  30.930
 30.937  30.942  30.963  40.812  40.877  40.896  40.999  41.157
 41.171  41.178  41.181  41.257  41.277 189.543
 --------------------------------------------------------------
 
          Ground-State Mulliken Net Atomic Charges

     Atom                 Charge (a.u.)
  ----------------------------------------
      1 C                    -0.152656
      2 S                    -0.222535
      3 C                    -0.152504
      4 H                     0.131943
      5 H                     0.131925
      6 H                     0.131926
      7 H                     0.131900
  ----------------------------------------
  Sum of atomic charges =     0.000000

 -----------------------------------------------------------------
                    Cartesian Multipole Moments
 -----------------------------------------------------------------
    Charge (ESU x 10^10)
                 0.0000
    Dipole Moment (Debye)
         X      -0.0007      Y       1.9650      Z       0.0001
       Tot       1.9650
    Quadrupole Moments (Debye-Ang)
        XX     -25.0350     XY      -0.0001     YY     -26.8429
        XZ       0.0002     YZ      -0.0001     ZZ     -26.8824
    Octapole Moments (Debye-Ang^2)
       XXX      -0.0009    XXY       1.9725    XYY      -0.0015
       YYY      -2.4555    XXZ       0.0001    XYZ      -0.0006
       YYZ       0.0006    XZZ       0.0001    YZZ       4.1654
       ZZZ       0.0002
    Hexadecapole Moments (Debye-Ang^3)
      XXXX     -95.2958   XXXY       0.0007   XXYY     -39.4424
      XYYY      -0.0006   YYYY    -158.0595   XXXZ       0.0002
      XXYZ      -0.0001   XYYZ       0.0005   YYYZ      -0.0007
      XXZZ     -21.0950   XYZZ       0.0001   YYZZ     -35.4166
      XZZZ       0.0003   YZZZ      -0.0002   ZZZZ     -50.8658
 -----------------------------------------------------------------
 Total job time:  130.42s(wall), 91.58s(cpu) 
 Tue Apr 12 22:42:13 2011

        *************************************************************
        *                                                           *
        *  Thank you very much for using Q-Chem.  Have a nice day.  *
        *                                                           *
        *************************************************************


0 sent ACK to 0 
now end server 0 ... 
 
**********************************************************************
Job 3 of 3 
**********************************************************************
 
Process 0 of 1 is on cl190.stfx.acenet.ca - thread support 1
initial socket setup ...start
initial socket setup ...done 
now start server 0 ... 

cmd = /usr/bin/ssh clhead /usr/local/qchem/bin/get_hostid 1260181021 > /globalscratch/itamblyn/bnl/g297_b3lyp_neut_g03Large_worked/g2g71114/omega300/qchem11467/lic.dat
                  Welcome to Q-Chem
     A Quantum Leap Into The Future Of Chemistry

 Y. Shao, L. Fusti-Molnar, Y. Jung, J. Kussmann, C. Ochsenfeld,
 S. T. Brown, A. T. B. Gilbert, L. V. Slipchenko,S. V. Levchenko,
 D. P. O'Neill, R. A. DiStasio Jr., R. C. Lochan, T. Wang,
 G. J. O. Beran, N. A. Besley, J. M. Herbert, C. Y. Lin,
 T. Van Voorhis, S. H. Chien, A. Sodt, R. P. Steele, 
 V. A. Rassolov, P. E. Maslen, P. P. Korambath, R. D. Adamson,
 B. Austin, J. Baker, E. F. C. Byrd, H. Dachsel, R. J. Doerksen,
 A. Dreuw, B. D. Dunietz, A. D. Dutoi, T. R. Furlani,
 S. R. Gwaltney, A. Heyden, S. Hirata, C.-P. Hsu, G. Kedziora,
 R. Z. Khaliullin, P. Klunzinger, A. M. Lee, M. S. Lee, W. Liang,
 I. Lotan, N. Nair, B. Peters, E. I. Proynov, P. A. Pieniazek, 
 Y. M. Rhee, J. Ritchie, E. Rosta, C. D. Sherrill, 
 A. C. Simmonett, J. E. Subotnik, H. L. Woodcock III,
 W. Zhang, A. T. Bell, A. K. Chakraborty, D. M. Chipman,
 F. J. Keil, A. Warshel, W. J. Hehre, H. F. Schaefer III,
 J. Kong, A. I. Krylov, P. M. W. Gill, M. Head-Gordon,
 Q-Chem, Version 3.1, Q-Chem, Inc., Pittsburgh, PA (2007).

 Additional authors for Version 3.1: 
 Z. Gan, Y. Zhao, N. E. Schultz, D. Truhlar, E. Epifanovsky and M. Oana.

 Additional authors for Version 3.2: 
 R. Baer, B. R. Brooks, D. Casanova, J.-D. Chai, C.-L. Cheng, 
 C. Cramer, D. Crittenden, A. Ghysels, G. Hawkins, E. G. Hohenstein, 
 C. Kelley, W. Kurlancheek, D. Liotard, E. Livshits, P. Manohar, 
 A. Marenich, D. Neuhauser, R. Olson, M. A. Rohrdanz, K. S. Thanthiriwatte, 
 A. J. W. Thom, V. Vanovschi, C. F. Williams, Q. Wu and Z.-Q. You. 


 Intel X86 Linux Version

 Q-chem begins on Tue Apr 12 22:42:17 2011  

 Parallel job on  1  processors
Processing $rem in /usr/local/qchem/config/preferences.

theFileMan(): MAXOPENFILES=974 MAX_SUB_FILE_NUM=16
Maximum size of a physical file is 2.0 GB, maximum size of a tmp-file is 32.0 GB


--------------------------------------------------------------
User input:
--------------------------------------------------------------

$molecule
1,2
C,0.741167814,0.8054998119,0.
S,0.,-0.8753990055,0.
C,-0.741167814,0.8054998119,0.
H,1.2584073082,1.0850965864,-0.9145221968
H,1.2584073082,1.0850965864,0.9145221968
H,-1.2584073082,1.0850965864,0.9145221968
H,-1.2584073082,1.0850965864,-0.9145221968

$end

$comment
positive
$end

$xc_functional
   X HF 1.0
   X BNL 1.0
   C LYP 1.0
$end

$rem
SYMMETRY_DECOMPOSITION	0
exchange 		general
BASIS                   g3large
omega			300
separate_jk		true
mem_static              760
max_scf_cycles          200
scf_final_print         1
sym_ignore              true
$end

--------------------------------------------------------------
 Writing REM_CC_EA            7
 ----------------------------------------------------
       Standard Nuclear Orientation (Angstroms)
    I     Atom         X            Y            Z
 ----------------------------------------------------
    1      C       0.741168     0.805500     0.000000
    2      S       0.000000    -0.875399     0.000000
    3      C      -0.741168     0.805500     0.000000
    4      H       1.258407     1.085097    -0.914522
    5      H       1.258407     1.085097     0.914522
    6      H      -1.258407     1.085097     0.914522
    7      H      -1.258407     1.085097    -0.914522
 ----------------------------------------------------
 Nuclear Repulsion Energy =   100.4416739056 hartrees
 There are       16 alpha and       15 beta electrons
 Requested basis set is G3large
 There are 63 shells and 190 basis functions

Total QAlloc Memory Limit   2000 MB
Mega-Array Size       743 MB
MEM_STATIC part       760 MB

                       Distance Matrix (Angstroms)
             C (  1)   S (  2)   C (  3)   H (  4)   H (  5)   H (  6)
   S (  2)  1.837049
   C (  3)  1.482336  1.837049
   H (  4)  1.087227  2.502695  2.216490
   H (  5)  1.087227  2.502695  2.216490  1.829044
   H (  6)  2.216490  2.502695  1.087227  3.111231  2.516815
   H (  7)  2.216490  2.502695  1.087227  2.516815  3.111231  1.829044

 
 A cutoff of  1.0D-08 yielded   1912 shell pairs
 There are  17613 function pairs ( 22653 Cartesian)
Evaluating contribution to one-electron hamiltonian from nuclear
 Smallest overlap matrix eigenvalue = 7.97E-05

 Q-Chem warning in module mkSTV.C, line 194:

 Overlap eigenvalue is smaller than square root of threshold

 Multipole matrices computed through 2nd order

  Scale SEOQF with 1.000000e-01/1.000000e-01/1.000000e-01

 Standard Electronic Orientation quadrupole field applied
 Nucleus-field energy     =     0.0000000019 hartrees
 Guess from superposition of atomic densities
 Warning:  Energy on first SCF cycle will be non-variational
 An unrestricted hybrid HF-DFT SCF calculation will be
 performed using Pulay DIIS extrapolation
 Exchange:     1.0000 Hartree-Fock + 1.0000 BNL
 Correlation:  1.0000 LYP
 Using SG-1 standard quadrature grid
 SCF converges when DIIS error is below 1.0E-05
 Warning!  Inaccurate integrated density:
   Number of electrons =    31
   Numerical integral  =    32.000240494725
   Relative error      =     3.2265822410 %
 ---------------------------------------
  Cycle       Energy         DIIS Error
 ---------------------------------------
    1    -474.6265000552      3.18E-02
    2    -473.5989731251      3.12E-03
    3    -473.6328828563      2.37E-03
    4    -473.6541828881      4.43E-04
    5    -473.6553543851      2.16E-04
    6    -473.6556472261      4.81E-05
    7    -473.6556925846      1.83E-05
    8    -473.6556993810      9.96E-06 Convergence criterion met
 ---------------------------------------
 One-Electron    Energy =  -844.7232081206
 Total Coulomb   Energy =   305.3833758740
 Alpha Exchange  Energy =    -2.5262381060
 Beta  Exchange  Energy =    -2.3711861049
 DFT   Exchange  Energy =   -28.7244086653
 DFT Correlation Energy =    -1.1357081655
 Nuclear Repu.   Energy =   100.4416739075
 Nuclear Attr.   Energy = -1317.3006893322
 Kinetic         Energy =   472.5774812116
 <S^2> = 0.7535
 SCF time:  CPU 112.91 s  wall 152.87 s
 Final Alpha MO Eigenvalues
            1           2           3           4           5           6
    1 -88.1844788 -10.2055058 -10.2053415  -8.1223150  -6.1778282  -6.1712730
            7           8           9          10          11          12
    1  -6.1674858  -1.2312041  -0.9977455  -0.9498082  -0.8370124  -0.7998200
           13          14          15          16          17          18
    1  -0.7035516  -0.6831863  -0.6795401  -0.6485288  -0.1815738  -0.1478416
           19          20          21
    1  -0.1160093  -0.0959785  -0.0864808
 Final Beta MO Eigenvalues
            1           2           3           4           5           6
    1 -88.1784968 -10.2056505 -10.2054887  -8.1160390  -6.1669330  -6.1633183
            7           8           9          10          11          12
    1  -6.1629328  -1.2180795  -0.9718765  -0.9474373  -0.8219535  -0.7923772
           13          14          15          16          17          18
    1  -0.6977307  -0.6742327  -0.6722112  -0.3457197  -0.1770577  -0.1370291
           19          20
    1  -0.1160610  -0.0952378
 Analysis of SCF Wavefunction
 
 --------------------------------------------------------------
                    Orbital Energies (a.u.)
 --------------------------------------------------------------
 
 Alpha MOs
 -- Occupied --
-88.184 -10.206 -10.205  -8.122  -6.178  -6.171  -6.167  -1.231
 -0.998  -0.950  -0.837  -0.800  -0.704  -0.683  -0.680  -0.649
 -- Virtual --
 -0.182  -0.148  -0.116  -0.096  -0.086  -0.062  -0.045  -0.041
 -0.034  -0.033  -0.027   0.007   0.010   0.012   0.020   0.024
  0.029   0.031   0.045   0.058   0.087   0.113   0.124   0.147
  0.158   0.192   0.197   0.218   0.252   0.255   0.297   0.322
  0.351   0.401   0.408   0.414   0.443   0.447   0.451   0.474
  0.482   0.512   0.563   0.610   0.651   0.681   0.682   0.702
  0.720   0.725   0.780   0.786   0.815   0.836   0.852   0.876
  0.908   0.981   1.011   1.023   1.049   1.051   1.066   1.097
  1.126   1.156   1.194   1.200   1.243   1.258   1.263   1.306
  1.307   1.336   1.351   1.401   1.444   1.461   1.654   1.881
  1.937   2.319   2.337   2.488   2.522   2.611   2.627   2.669
  2.713   2.735   2.784   2.846   2.873   2.880   2.909   2.961
  2.968   2.992   3.082   3.145   3.174   3.192   3.223   3.226
  3.249   3.258   3.342   3.359   3.360   3.410   3.423   3.433
  3.484   3.621   3.653   3.763   3.769   3.841   3.908   4.007
  4.013   4.025   4.071   4.127   4.143   4.241   4.326   4.346
  4.348   4.402   4.633   4.671   4.916   4.929   4.986   5.098
  5.382   5.443   5.483   8.117  16.749  16.947  17.115  23.101
 23.237  23.270  23.307  23.382  23.921  24.140  27.234  27.512
 27.746  27.854  27.913  28.218  30.574  30.576  30.587  30.590
 30.596  30.599  30.630  40.568  40.632  40.652  40.755  40.913
 40.926  40.934  40.937  41.014  41.034 189.198
 
 Beta MOs
 -- Occupied --
-88.178 -10.206 -10.205  -8.116  -6.167  -6.163  -6.163  -1.218
 -0.972  -0.947  -0.822  -0.792  -0.698  -0.674  -0.672
 -- Virtual --
 -0.346  -0.177  -0.137  -0.116  -0.095  -0.086  -0.058  -0.042
 -0.041  -0.033  -0.033  -0.026   0.012   0.016   0.019   0.021
  0.024   0.029   0.034   0.046   0.067   0.093   0.113   0.141
  0.148   0.172   0.201   0.205   0.221   0.258   0.264   0.301
  0.326   0.354   0.403   0.410   0.417   0.445   0.447   0.454
  0.479   0.484   0.516   0.572   0.617   0.653   0.694   0.695
  0.718   0.723   0.744   0.793   0.806   0.822   0.839   0.858
  0.883   0.912   0.988   1.020   1.035   1.055   1.059   1.073
  1.108   1.141   1.157   1.196   1.203   1.245   1.262   1.267
  1.309   1.312   1.342   1.354   1.404   1.446   1.463   1.684
  1.889   1.945   2.321   2.339   2.489   2.525   2.613   2.629
  2.672   2.713   2.740   2.787   2.850   2.875   2.884   2.920
  2.964   2.973   2.994   3.088   3.146   3.179   3.194   3.226
  3.241   3.281   3.287   3.349   3.378   3.393   3.418   3.432
  3.439   3.503   3.624   3.655   3.768   3.773   3.843   3.912
  4.010   4.021   4.029   4.075   4.131   4.146   4.247   4.334
  4.349   4.361   4.417   4.633   4.685   4.919   4.940   4.992
  5.106   5.386   5.446   5.487   8.130  16.770  16.953  17.120
 23.112  23.249  23.282  23.315  23.386  23.921  24.139  27.234
 27.511  27.746  27.855  27.914  28.218  30.580  30.581  30.592
 30.594  30.601  30.603  30.632  40.568  40.632  40.653  40.755
 40.913  40.926  40.933  40.937  41.014  41.034 189.205
 --------------------------------------------------------------
 
          Ground-State Mulliken Net Atomic Charges

     Atom                 Charge (a.u.)    Spin (a.u.)
  --------------------------------------------------------
      1 C                    -0.113079      -0.019302
      2 S                     0.427354       0.966033
      3 C                    -0.112960      -0.019156
      4 H                     0.199638       0.017966
      5 H                     0.199738       0.018356
      6 H                     0.199639       0.017918
      7 H                     0.199670       0.018185
  --------------------------------------------------------
  Sum of atomic charges =     1.000000
  Sum of spin   charges =     1.000000

 -----------------------------------------------------------------
                    Cartesian Multipole Moments
 -----------------------------------------------------------------
    Charge (ESU x 10^10)
                 4.8032
    Dipole Moment (Debye)
         X      -0.0004      Y       0.9745      Z       0.0010
       Tot       0.9745
    Quadrupole Moments (Debye-Ang)
        XX     -19.4864     XY       0.0007     YY     -17.7576
        XZ       0.0057     YZ      -0.0031     ZZ     -20.3597
    Octapole Moments (Debye-Ang^2)
       XXX      -0.0002    XXY       4.7378    XYY       0.0004
       YYY      -3.4231    XXZ       0.0008    XYZ      -0.0008
       YYZ       0.0037    XZZ       0.0006    YZZ       2.2019
       ZZZ       0.0012
    Hexadecapole Moments (Debye-Ang^3)
      XXXX     -76.8009   XXXY       0.0017   XXYY     -28.4864
      XYYY       0.0015   YYYY    -124.0748   XXXZ       0.0079
      XXYZ      -0.0003   XYYZ       0.0089   YYYZ      -0.0104
      XXZZ     -13.7468   XYZZ       0.0010   YYZZ     -23.5110
      XZZZ       0.0058   YZZZ      -0.0031   ZZZZ     -33.1265
 -----------------------------------------------------------------
 Total job time:  158.05s(wall), 113.15s(cpu) 
 Tue Apr 12 22:44:55 2011

        *************************************************************
        *                                                           *
        *  Thank you very much for using Q-Chem.  Have a nice day.  *
        *                                                           *
        *************************************************************


0 sent ACK to 0 
now end server 0 ... 
