Process 0 of 1 is on cl046.stfx.acenet.ca - thread support 1
initial socket setup ...start
initial socket setup ...done 
now start server 0 ... 

cmd = /usr/bin/ssh clhead /usr/local/qchem/bin/get_hostid 1299798663 > /scratch/tmp/6067073.1.short.q/qchem28374/lic.dat
                  Welcome to Q-Chem
     A Quantum Leap Into The Future Of Chemistry

 Y. Shao, L. Fusti-Molnar, Y. Jung, J. Kussmann, C. Ochsenfeld,
 S. T. Brown, A. T. B. Gilbert, L. V. Slipchenko,S. V. Levchenko,
 D. P. O'Neill, R. A. DiStasio Jr., R. C. Lochan, T. Wang,
 G. J. O. Beran, N. A. Besley, J. M. Herbert, C. Y. Lin,
 T. Van Voorhis, S. H. Chien, A. Sodt, R. P. Steele, 
 V. A. Rassolov, P. E. Maslen, P. P. Korambath, R. D. Adamson,
 B. Austin, J. Baker, E. F. C. Byrd, H. Dachsel, R. J. Doerksen,
 A. Dreuw, B. D. Dunietz, A. D. Dutoi, T. R. Furlani,
 S. R. Gwaltney, A. Heyden, S. Hirata, C.-P. Hsu, G. Kedziora,
 R. Z. Khaliullin, P. Klunzinger, A. M. Lee, M. S. Lee, W. Liang,
 I. Lotan, N. Nair, B. Peters, E. I. Proynov, P. A. Pieniazek, 
 Y. M. Rhee, J. Ritchie, E. Rosta, C. D. Sherrill, 
 A. C. Simmonett, J. E. Subotnik, H. L. Woodcock III,
 W. Zhang, A. T. Bell, A. K. Chakraborty, D. M. Chipman,
 F. J. Keil, A. Warshel, W. J. Hehre, H. F. Schaefer III,
 J. Kong, A. I. Krylov, P. M. W. Gill, M. Head-Gordon,
 Q-Chem, Version 3.1, Q-Chem, Inc., Pittsburgh, PA (2007).

 Additional authors for Version 3.1: 
 Z. Gan, Y. Zhao, N. E. Schultz, D. Truhlar, E. Epifanovsky and M. Oana.

 Additional authors for Version 3.2: 
 R. Baer, B. R. Brooks, D. Casanova, J.-D. Chai, C.-L. Cheng, 
 C. Cramer, D. Crittenden, A. Ghysels, G. Hawkins, E. G. Hohenstein, 
 C. Kelley, W. Kurlancheek, D. Liotard, E. Livshits, P. Manohar, 
 A. Marenich, D. Neuhauser, R. Olson, M. A. Rohrdanz, K. S. Thanthiriwatte, 
 A. J. W. Thom, V. Vanovschi, C. F. Williams, Q. Wu and Z.-Q. You. 


 Intel X86 Linux Version

 Q-chem begins on Wed Jul 24 15:58:40 2013  

 Parallel job on  1  processors
Processing $rem in /usr/local/qchem/config/preferences.

theFileMan(): MAXOPENFILES=974 MAX_SUB_FILE_NUM=16
Maximum size of a physical file is 2.0 GB, maximum size of a tmp-file is 32.0 GB


--------------------------------------------------------------
User input:
--------------------------------------------------------------

$molecule
0,2
Cl
O,1,R

R=1.61959205

$end


$comment
b3lyp opt
$end

$rem
   EXCHANGE B3LYP
   UNRESTRICTED TRUE
   SYMMETRY_DECOMPOSITION	0
   BASIS                   g3large
   JOBTYPE                 opt
   mem_static              760
   max_scf_cycles          200
   scf_final_print         1
   sym_ignore              true
$end


--------------------------------------------------------------
 Writing REM_CC_EA            2
 ----------------------------------------------------
       Standard Nuclear Orientation (Angstroms)
    I     Atom         X            Y            Z
 ----------------------------------------------------
    1      Cl      0.000000     0.000000     0.000000
    2      O       0.000000     0.000000     1.619592
 ----------------------------------------------------
 Nuclear Repulsion Energy =    44.4359434024 hartrees
 There are       13 alpha and       12 beta electrons
 Requested basis set is G3large
 There are 29 shells and 108 basis functions

Total QAlloc Memory Limit   2000 MB
Mega-Array Size       743 MB
MEM_STATIC part       760 MB
 A cutoff of  1.0D-11 yielded    420 shell pairs
 There are   5939 function pairs (  8258 Cartesian)
Evaluating contribution to one-electron hamiltonian from nuclear
 Smallest overlap matrix eigenvalue = 3.44E-03
 Multipole matrices computed through 2nd order

  Scale SEOQF with 1.000000e-01/1.000000e-01/1.000000e-01

 Standard Electronic Orientation quadrupole field applied
 Nucleus-field energy     =    -0.0000000022 hartrees
 Guess from superposition of atomic densities
 Warning:  Energy on first SCF cycle will be non-variational
 An unrestricted hybrid HF-DFT SCF calculation will be
 performed using Pulay DIIS extrapolation
 Exchange:     0.2000 Hartree-Fock + 0.0800 Slater + 0.7200 Becke88
 Correlation:  0.8100 LYP + 0.1900 VWN1RPA
 Using SG-1 standard quadrature grid
 SCF converges when DIIS error is below 1.0E-08
 ---------------------------------------
  Cycle       Energy         DIIS Error
 ---------------------------------------
    1    -535.4647602670      2.92E-02
    2    -535.2931438658      6.63E-03
    3    -535.0073609378      1.60E-02
    4    -535.3623289187      1.11E-03
    5    -535.3637842986      7.47E-04
    6    -535.3646461688      2.42E-04
    7    -535.3648112821      9.75E-05
    8    -535.3648383671      1.49E-05
    9    -535.3648390940      2.95E-06
   10    -535.3648391741      5.47E-07
   11    -535.3648391905      2.91E-07
   12    -535.3648391923      7.06E-08
   13    -535.3648391938      4.66E-08
   14    -535.3648391942      4.12E-08
   15    -535.3648391943      4.07E-08
   16    -535.3648391943      4.07E-08
   17    -535.3648391942      4.07E-08
   18    -535.3648391946      4.09E-08
   19    -535.3648391944      4.06E-08
   20    -535.3648391946      4.06E-08
   21    -535.3648391946      4.06E-08
   22    -535.3648391949      4.06E-08
   23    -535.3648391958      4.09E-08
   24    -535.3648391957      4.08E-08
   25    -535.3648391959      4.08E-08
   26    -535.3648391959      4.09E-08
   27    -535.3648391965      4.09E-08
   28    -535.3648391932      4.04E-08
   29    -535.3648391934      4.05E-08
   30    -535.3648391933      4.05E-08
   31    -535.3648391931      4.16E-08
   32    -535.3648391930      4.16E-08
   33    -535.3648391931      4.40E-08
   34    -535.3648391930      4.05E-08
   35    -535.3648391935      4.09E-08
   36    -535.3648391955      4.09E-08
   37    -535.3648391902      4.02E-08
   38    -535.3648391795      4.13E-08
   39    -535.3648391796      4.14E-08
   40    -535.3648391796      3.89E-08
   41    -535.3648391797      3.91E-08
   42    -535.3648391798      3.86E-08
   43    -535.3648391799      3.84E-08
   44    -535.3648391800      3.84E-08
   45    -535.3648391788      3.93E-08
   46    -535.3648391791      3.93E-08
   47    -535.3648391779      3.91E-08
   48    -535.3648391780      4.01E-08
   49    -535.3648391780      3.84E-08
   50    -535.3648391781      3.82E-08
   51    -535.3648391784      3.82E-08
   52    -535.3648391775      3.81E-08
   53    -535.3648391758      3.79E-08
   54    -535.3648391716      3.74E-08
   55    -535.3648391597      4.16E-08
   56    -535.3648391461      1.13E-07
   57    -535.3648390553      2.36E-06
   58    -535.3648390664      1.93E-06
   59    -535.3648390740      1.64E-06
   60    -535.3648390713      1.72E-06
   61    -535.3648390667      1.88E-06
   62    -535.3648390672      1.85E-06
   63    -535.3648390688      1.64E-06
   64    -535.3648390608      1.71E-06
   65    -535.3648390652      1.31E-06
   66    -535.3648390687      7.28E-07
   67    -535.3648390704      1.45E-07
   68    -535.3648390706      2.42E-08
   69    -535.3648390705      3.54E-09 Convergence criterion met
 ---------------------------------------
 One-Electron    Energy =  -826.4681150503
 Total Coulomb   Energy =   283.4162303679
 Alpha Exchange  Energy =    -3.6379848470
 Beta  Exchange  Energy =    -3.4914971615
 DFT   Exchange  Energy =   -28.3610735765
 DFT Correlation Energy =    -1.2583422031
 Nuclear Repu.   Energy =    44.4359434002
 Nuclear Attr.   Energy = -1360.9444009410
 Kinetic         Energy =   534.4762858906
 <S^2> = 0.7555
 SCF time:  CPU 131.18 s  wall 137.84 s
 Final Alpha MO Eigenvalues
            1           2           3           4           5           6
    1-101.6166417 -19.2346480  -9.5494655  -7.3121251  -7.3076446  -7.3000416
            7           8           9          10          11          12
    1  -1.0899931  -0.8087742  -0.4961782  -0.4850362  -0.4475932  -0.3425174
           13          14          15          16          17          18
    1  -0.3049907  -0.0789925   0.0165318   0.0625333   0.0654118   0.0815828
 Final Beta MO Eigenvalues
            1           2           3           4           5           6
    1-101.6144683 -19.2138940  -9.5475879  -7.3117001  -7.3004252  -7.2987711
            7           8           9          10          11          12
    1  -1.0530516  -0.7772663  -0.4784462  -0.4378500  -0.4120343  -0.2910578
           13          14          15          16          17
    1  -0.1873586  -0.0670134   0.0177165   0.0646596   0.0656006
 Analysis of SCF Wavefunction
 
 --------------------------------------------------------------
                    Orbital Energies (a.u.)
 --------------------------------------------------------------
 
 Alpha MOs
 -- Occupied --
******* -19.235  -9.549  -7.312  -7.308  -7.300  -1.090  -0.809
 -0.496  -0.485  -0.448  -0.343  -0.305
 -- Virtual --
 -0.079   0.017   0.063   0.065   0.082   0.157   0.180   0.189
  0.228   0.228   0.276   0.295   0.307   0.427   0.439   0.456
  0.466   0.941   0.964   0.969   0.990   0.997   0.998   1.014
  1.014   1.036   1.056   1.078   1.078   1.096   1.164   1.181
  1.465   1.526   1.580   1.581   1.910   1.933   2.146   2.162
  2.181   2.604   4.180   4.220   4.235   4.261   4.262   4.264
  4.264   4.715   4.718   4.744   4.782   4.824   4.901   4.902
  4.960   4.960   5.014   5.018   5.123   5.362   5.390   6.045
  6.650   6.651   6.932   6.978   7.498   9.623  20.501  20.509
 20.767  27.054  27.126  27.158  27.164  27.342  36.824  36.824
 36.824  36.824  36.827  36.832  36.851  43.576  43.631  43.716
 43.747  43.800  45.567  45.597  45.820  49.791 216.094
 
 Beta MOs
 -- Occupied --
******* -19.214  -9.548  -7.312  -7.300  -7.299  -1.053  -0.777
 -0.478  -0.438  -0.412  -0.291
 -- Virtual --
 -0.187  -0.067   0.018   0.065   0.066   0.084   0.159   0.191
  0.198   0.237   0.237   0.279   0.307   0.309   0.430   0.445
  0.466   0.467   0.947   0.973   0.993   0.999   1.010   1.010
  1.021   1.022   1.060   1.069   1.086   1.086   1.099   1.182
  1.183   1.488   1.536   1.614   1.616   1.937   1.938   2.158
  2.184   2.184   2.611   4.188   4.234   4.236   4.273   4.273
  4.278   4.278   4.724   4.749   4.751   4.841   4.859   4.911
  4.912   5.010   5.011   5.048   5.050   5.143   5.394   5.395
  6.060   6.726   6.734   6.991   7.011   7.524   9.627  20.510
 20.511  20.768  27.058  27.130  27.162  27.164  27.343  36.825
 36.825  36.825  36.825  36.829  36.832  36.851  43.621  43.678
 43.754  43.762  43.818  45.607  45.613  45.830  49.811 216.096
 --------------------------------------------------------------
 
          Ground-State Mulliken Net Atomic Charges

     Atom                 Charge (a.u.)    Spin (a.u.)
  --------------------------------------------------------
      1 Cl                    0.157570       0.260321
      2 O                    -0.157570       0.739679
  --------------------------------------------------------
  Sum of atomic charges =     0.000000
  Sum of spin   charges =     1.000000

 -----------------------------------------------------------------
                    Cartesian Multipole Moments
 -----------------------------------------------------------------
    Charge (ESU x 10^10)
                 0.0000
    Dipole Moment (Debye)
         X       0.0000      Y       0.0000      Z      -1.3085
       Tot       1.3085
    Quadrupole Moments (Debye-Ang)
        XX     -17.6823     XY      -0.6593     YY     -17.6822
        XZ       0.0000     YZ       0.0000     ZZ     -18.8425
    Octapole Moments (Debye-Ang^2)
       XXX       0.0000    XXY       0.0000    XYY       0.0000
       YYY       0.0000    XXZ      -8.6112    XYZ      -0.4918
       YYZ      -8.6112    XZZ       0.0000    YZZ       0.0000
       ZZZ     -30.1205
    Hexadecapole Moments (Debye-Ang^3)
      XXXX     -18.0616   XXXY      -0.5490   XXYY      -6.0197
      XYYY      -0.5490   YYYY     -18.0615   XXXZ       0.0000
      XXYZ       0.0000   XYYZ       0.0000   YYYZ       0.0000
      XXZZ     -20.1404   XYZZ      -1.3026   YYZZ     -20.1402
      XZZZ       0.0000   YZZZ       0.0000   ZZZZ    -104.2817
 -----------------------------------------------------------------
 Calculating analytic gradient of the SCF energy
 Gradient of XC Energy
            1           2
    1   0.0000000  -0.0000000
    2  -0.0000000   0.0000000
    3  -0.2081149   0.2081149
 Gradient of SCF Energy
            1           2
    1   0.0000000  -0.0000000
    2  -0.0000000   0.0000000
    3  -0.0237312   0.0237312
 Max gradient component =       2.373E-02
 RMS gradient           =       1.370E-02
 Gradient time:  CPU 9.75 s  wall 9.81 s
 Geometry Optimization Parameters
   NAtoms,    NIC,     NZ,  NCons,   NDum,   NFix, NCnnct, MaxDiis
        2       5       2       0       0       0       0       0


** GEOMETRY OPTIMIZATION IN DELOCALIZED INTERNAL COORDINATES **
   Searching for a Minimum

   Optimization Cycle:   1

                       Coordinates (Angstroms)
     ATOM              X           Y           Z
    1  Cl          0.000000    0.000000    0.000000
    2  O           0.000000    0.000000    1.619592
   Point Group: c1    Number of degrees of freedom:   0


   Energy is   -535.364839070


 Attempting to Generate Delocalized Internal Coordinates

  ***ERROR*** Wrong Number of Internal Coordinates
              Should be:   0  Found:   1
**WARNING** Problems with Internal Coordinates
  Switching to Cartesian Coordinates

 Translations and Rotations Projected Out of Hessian

  1 Hessian modes will be used to form the next step
  Hessian Eigenvalues:
     1.000000

 Minimum Search - Taking Simple RFO Step
 Searching for Lamda that Minimizes Along All modes
 Value Taken    Lamda =  -0.00112507
 Step Taken.  Stepsize is  0.033523

                             Maximum     Tolerance    Cnvgd?
         Gradient           0.023731      0.000300      NO
         Displacement       0.023705      0.001200      NO
         Energy change     *********      0.000001      NO

 Writing REM_CC_EA            2
 ----------------------------------------------------
       Standard Nuclear Orientation (Angstroms)
    I     Atom         X            Y            Z
 ----------------------------------------------------
    1      Cl      0.000000     0.000000     0.012544
    2      O       0.000000     0.000000     1.607048
 ----------------------------------------------------
 Nuclear Repulsion Energy =    45.1350951742 hartrees
 There are       13 alpha and       12 beta electrons
 Applying Cartesian multipole field
    Component          Value
    ---------          -----
     (2,0,0)        1.00000E-11
     (0,2,0)        2.00000E-11
     (0,0,2)       -3.00000E-11
 Nucleus-field energy     =    -0.0000000022 hartrees
 Requested basis set is G3large
 There are 29 shells and 108 basis functions
 A cutoff of  1.0D-11 yielded    421 shell pairs
 There are   5942 function pairs (  8261 Cartesian)
Evaluating contribution to one-electron hamiltonian from nuclear
 Smallest overlap matrix eigenvalue = 3.21E-03
 Multipole matrices computed through 2nd order
 Guess MOs from SCF MO coefficient file
Reading MOs from coefficient file
Reading MOs from coefficient file
 An unrestricted hybrid HF-DFT SCF calculation will be
 performed using Pulay DIIS extrapolation
 Exchange:     0.2000 Hartree-Fock + 0.0800 Slater + 0.7200 Becke88
 Correlation:  0.8100 LYP + 0.1900 VWN1RPA
 Using SG-1 standard quadrature grid
 SCF converges when DIIS error is below 1.0E-08
 ---------------------------------------
  Cycle       Energy         DIIS Error
 ---------------------------------------
    1    -535.3839284995      1.24E-03
    2    -535.3655528216      3.38E-04
    3    -535.3654264106      4.53E-04
    4    -535.3656367501      1.83E-04
    5    -535.3656785624      1.51E-05
    6    -535.3656789508      9.31E-06
    7    -535.3656791845      2.47E-06
    8    -535.3656792085      3.54E-07
    9    -535.3656792095      1.39E-07
   10    -535.3656792101      1.13E-08
   11    -535.3656792102      1.96E-09 Convergence criterion met
 ---------------------------------------
 One-Electron    Energy =  -827.8373659145
 Total Coulomb   Energy =   284.0979725772
 Alpha Exchange  Energy =    -3.6390950037
 Beta  Exchange  Energy =    -3.4930219591
 DFT   Exchange  Energy =   -28.3699766201
 DFT Correlation Energy =    -1.2592874618
 Nuclear Repu.   Energy =    45.1350951720
 Nuclear Attr.   Energy = -1362.3522016798
 Kinetic         Energy =   534.5148357653
 <S^2> = 0.7554
 SCF time:  CPU 21.52 s  wall 21.94 s
 Final Alpha MO Eigenvalues
            1           2           3           4           5           6
    1-101.6176460 -19.2304367  -9.5505748  -7.3131170  -7.3090204  -7.3010634
            7           8           9          10          11          12
    1  -1.0990542  -0.8052786  -0.4980649  -0.4886465  -0.4517787  -0.3393152
           13          14          15          16          17          18
    1  -0.3014810  -0.0705813   0.0162201   0.0621237   0.0650291   0.0839669
 Final Beta MO Eigenvalues
            1           2           3           4           5           6
    1-101.6153445 -19.2101469  -9.5485831  -7.3125728  -7.3014549  -7.2997204
            7           8           9          10          11          12
    1  -1.0636127  -0.7731628  -0.4801448  -0.4421474  -0.4164280  -0.2876516
           13          14          15          16          17
    1  -0.1851812  -0.0591506   0.0174645   0.0643154   0.0652112
 Analysis of SCF Wavefunction
 
 --------------------------------------------------------------
                    Orbital Energies (a.u.)
 --------------------------------------------------------------
 
 Alpha MOs
 -- Occupied --
******* -19.230  -9.551  -7.313  -7.309  -7.301  -1.099  -0.805
 -0.498  -0.489  -0.452  -0.339  -0.301
 -- Virtual --
 -0.071   0.016   0.062   0.065   0.084   0.158   0.182   0.190
  0.227   0.227   0.276   0.297   0.309   0.427   0.445   0.455
  0.466   0.940   0.967   0.970   0.991   0.996   0.997   1.011
  1.012   1.033   1.053   1.076   1.076   1.099   1.172   1.190
  1.468   1.529   1.590   1.591   1.915   1.938   2.170   2.185
  2.190   2.594   4.170   4.189   4.206   4.259   4.260   4.263
  4.264   4.722   4.725   4.748   4.789   4.830   4.894   4.894
  4.961   4.962   5.023   5.026   5.151   5.405   5.432   6.125
  6.657   6.657   6.953   6.998   7.512   9.657  20.500  20.509
 20.776  27.052  27.125  27.163  27.169  27.360  36.823  36.823
 36.823  36.824  36.826  36.831  36.855  43.582  43.636  43.725
 43.756  43.807  45.573  45.602  45.859  49.797 216.115
 
 Beta MOs
 -- Occupied --
******* -19.210  -9.549  -7.313  -7.301  -7.300  -1.064  -0.773
 -0.480  -0.442  -0.416  -0.288
 -- Virtual --
 -0.185  -0.059   0.017   0.064   0.065   0.087   0.160   0.192
  0.198   0.236   0.236   0.279   0.310   0.312   0.430   0.452
  0.465   0.467   0.946   0.977   0.994   0.999   1.010   1.010
  1.019   1.019   1.058   1.066   1.085   1.085   1.102   1.191
  1.192   1.490   1.540   1.623   1.625   1.942   1.942   2.193
  2.193   2.197   2.600   4.178   4.205   4.207   4.273   4.273
  4.277   4.277   4.735   4.753   4.755   4.846   4.863   4.904
  4.906   5.010   5.011   5.054   5.057   5.171   5.436   5.437
  6.139   6.731   6.739   7.010   7.030   7.536   9.661  20.510
 20.511  20.777  27.057  27.129  27.168  27.170  27.362  36.824
 36.824  36.824  36.825  36.828  36.832  36.855  43.626  43.683
 43.762  43.770  43.825  45.612  45.618  45.869  49.817 216.117
 --------------------------------------------------------------
 
          Ground-State Mulliken Net Atomic Charges

     Atom                 Charge (a.u.)    Spin (a.u.)
  --------------------------------------------------------
      1 Cl                    0.169151       0.279542
      2 O                    -0.169151       0.720458
  --------------------------------------------------------
  Sum of atomic charges =     0.000000
  Sum of spin   charges =     1.000000

 -----------------------------------------------------------------
                    Cartesian Multipole Moments
 -----------------------------------------------------------------
    Charge (ESU x 10^10)
                 0.0000
    Dipole Moment (Debye)
         X       0.0000      Y       0.0000      Z      -1.3326
       Tot       1.3326
    Quadrupole Moments (Debye-Ang)
        XX     -17.6411     XY      -0.6679     YY     -17.6410
        XZ       0.0000     YZ       0.0000     ZZ     -18.9549
    Octapole Moments (Debye-Ang^2)
       XXX       0.0000    XXY       0.0000    XYY       0.0000
       YYY       0.0000    XXZ      -8.6641    XYZ      -0.4656
       YYZ      -8.6640    XZZ       0.0000    YZZ       0.0000
       ZZZ     -30.5664
    Hexadecapole Moments (Debye-Ang^3)
      XXXX     -17.9828   XXXY      -0.5656   XXYY      -5.9934
      XYYY      -0.5656   YYYY     -17.9826   XXXZ       0.0000
      XXYZ       0.0000   XYYZ       0.0000   YYYZ       0.0000
      XXZZ     -19.9135   XYZZ      -1.2629   YYZZ     -19.9133
      XZZZ       0.0000   YZZZ       0.0000   ZZZZ    -103.6056
 -----------------------------------------------------------------
 Calculating analytic gradient of the SCF energy
 Gradient of XC Energy
            1           2
    1  -0.0000000   0.0000000
    2  -0.0000000   0.0000000
    3  -0.2146150   0.2146150
 Gradient of SCF Energy
            1           2
    1   0.0000000  -0.0000000
    2  -0.0000000   0.0000000
    3  -0.0113913   0.0113913
 Max gradient component =       1.139E-02
 RMS gradient           =       6.577E-03
 Gradient time:  CPU 9.50 s  wall 10.58 s
 Geometry Optimization Parameters
   NAtoms,    NIC,     NZ,  NCons,   NDum,   NFix, NCnnct, MaxDiis
        2       5       2       0       0       0       0       0

 Cartesian Hessian Update
 Hessian Updated using BFGS Update


** GEOMETRY OPTIMIZATION IN CARTESIAN COORDINATES **
   Searching for a Minimum

   Optimization Cycle:   2

                       Coordinates (Angstroms)
     ATOM              X           Y           Z
    1  Cl          0.000000    0.000000    0.012544
    2  O           0.000000    0.000000    1.607048
   Point Group: c1    Number of degrees of freedom:   0


   Energy is   -535.365679210


 Translations and Rotations Projected Out of Hessian

  1 Hessian modes will be used to form the next step
  Hessian Eigenvalues:
     0.520573

 Minimum Search - Taking Simple RFO Step
 Searching for Lamda that Minimizes Along All modes
 Value Taken    Lamda =  -0.00049853
 Step Taken.  Stepsize is  0.030916

                             Maximum     Tolerance    Cnvgd?
         Gradient           0.011391      0.000300      NO
         Displacement       0.021861      0.001200      NO
         Energy change     -0.000840      0.000001      NO

 Writing REM_CC_EA            2
 ----------------------------------------------------
       Standard Nuclear Orientation (Angstroms)
    I     Atom         X            Y            Z
 ----------------------------------------------------
    1      Cl      0.000000     0.000000     0.024112
    2      O       0.000000     0.000000     1.595480
 ----------------------------------------------------
 Nuclear Repulsion Energy =    45.7996678070 hartrees
 There are       13 alpha and       12 beta electrons
 Applying Cartesian multipole field
    Component          Value
    ---------          -----
     (2,0,0)        1.00000E-11
     (0,2,0)        2.00000E-11
     (0,0,2)       -3.00000E-11
 Nucleus-field energy     =    -0.0000000022 hartrees
 Requested basis set is G3large
 There are 29 shells and 108 basis functions
 A cutoff of  1.0D-11 yielded    421 shell pairs
 There are   5942 function pairs (  8261 Cartesian)
Evaluating contribution to one-electron hamiltonian from nuclear
 Smallest overlap matrix eigenvalue = 3.01E-03
 Multipole matrices computed through 2nd order
 Guess MOs from SCF MO coefficient file
Reading MOs from coefficient file
Reading MOs from coefficient file
 An unrestricted hybrid HF-DFT SCF calculation will be
 performed using Pulay DIIS extrapolation
 Exchange:     0.2000 Hartree-Fock + 0.0800 Slater + 0.7200 Becke88
 Correlation:  0.8100 LYP + 0.1900 VWN1RPA
 Using SG-1 standard quadrature grid
 SCF converges when DIIS error is below 1.0E-08
 ---------------------------------------
  Cycle       Energy         DIIS Error
 ---------------------------------------
    1    -535.3832678459      1.20E-03
    2    -535.3657866024      3.17E-04
    3    -535.3656856401      4.16E-04
    4    -535.3658606999      1.68E-04
    5    -535.3658956169      1.42E-05
    6    -535.3658959486      8.59E-06
    7    -535.3658961406      2.35E-06
    8    -535.3658961613      3.31E-07
    9    -535.3658961621      1.30E-07
   10    -535.3658961627      9.97E-09 Convergence criterion met
 ---------------------------------------
 One-Electron    Energy =  -829.1370619615
 Total Coulomb   Energy =   284.7450808918
 Alpha Exchange  Energy =    -3.6401663265
 Beta  Exchange  Energy =    -3.4945349250
 DFT   Exchange  Energy =   -28.3787072367
 DFT Correlation Energy =    -1.2601744098
 Nuclear Repu.   Energy =    45.7996678048
 Nuclear Attr.   Energy = -1363.6908265925
 Kinetic         Energy =   534.5537646310
 <S^2> = 0.7553
 SCF time:  CPU 20.37 s  wall 21.04 s
 Final Alpha MO Eigenvalues
            1           2           3           4           5           6
    1-101.6185388 -19.2264973  -9.5515744  -7.3140036  -7.3102669  -7.3019823
            7           8           9          10          11          12
    1  -1.1080168  -0.8019006  -0.4997426  -0.4922950  -0.4558889  -0.3361924
           13          14          15          16          17          18
    1  -0.2981553  -0.0630598   0.0159683   0.0617462   0.0646753   0.0863682
 Final Beta MO Eigenvalues
            1           2           3           4           5           6
    1-101.6161216 -19.2066396  -9.5494789  -7.3133557  -7.3023834  -7.3005736
            7           8           9          10          11          12
    1  -1.0739067  -0.7692791  -0.4816389  -0.4463536  -0.4207660  -0.2844333
           13          14          15          16          17
    1  -0.1830771  -0.0521492   0.0172722   0.0640052   0.0648508
 Analysis of SCF Wavefunction
 
 --------------------------------------------------------------
                    Orbital Energies (a.u.)
 --------------------------------------------------------------
 
 Alpha MOs
 -- Occupied --
******* -19.226  -9.552  -7.314  -7.310  -7.302  -1.108  -0.802
 -0.500  -0.492  -0.456  -0.336  -0.298
 -- Virtual --
 -0.063   0.016   0.062   0.065   0.086   0.159   0.183   0.191
  0.225   0.225   0.275   0.299   0.312   0.426   0.454   0.455
  0.465   0.938   0.971   0.972   0.991   0.995   0.996   1.008
  1.010   1.031   1.051   1.075   1.075   1.101   1.180   1.199
  1.470   1.532   1.599   1.600   1.920   1.942   2.177   2.198
  2.221   2.584   4.161   4.163   4.178   4.258   4.258   4.262
  4.263   4.728   4.733   4.754   4.797   4.837   4.886   4.887
  4.963   4.963   5.032   5.034   5.180   5.447   5.474   6.200
  6.663   6.664   6.973   7.017   7.519   9.692  20.499  20.508
 20.788  27.051  27.124  27.168  27.175  27.376  36.822  36.822
 36.822  36.823  36.825  36.831  36.859  43.587  43.642  43.734
 43.764  43.814  45.578  45.607  45.900  49.803 216.137
 
 Beta MOs
 -- Occupied --
******* -19.207  -9.549  -7.313  -7.302  -7.301  -1.074  -0.769
 -0.482  -0.446  -0.421  -0.284
 -- Virtual --
 -0.183  -0.052   0.017   0.064   0.065   0.089   0.161   0.193
  0.199   0.235   0.235   0.278   0.312   0.314   0.429   0.461
  0.465   0.467   0.944   0.982   0.995   0.999   1.009   1.009
  1.017   1.017   1.055   1.063   1.084   1.084   1.105   1.199
  1.200   1.490   1.545   1.631   1.634   1.946   1.947   2.201
  2.201   2.232   2.591   4.172   4.177   4.179   4.273   4.273
  4.276   4.276   4.743   4.759   4.762   4.852   4.868   4.897
  4.899   5.010   5.011   5.061   5.064   5.200   5.478   5.478
  6.214   6.736   6.744   7.029   7.047   7.543   9.697  20.509
 20.510  20.789  27.056  27.129  27.173  27.175  27.378  36.823
 36.823  36.824  36.825  36.827  36.831  36.859  43.630  43.687
 43.770  43.778  43.831  45.617  45.622  45.910  49.822 216.139
 --------------------------------------------------------------
 
          Ground-State Mulliken Net Atomic Charges

     Atom                 Charge (a.u.)    Spin (a.u.)
  --------------------------------------------------------
      1 Cl                    0.179766       0.297426
      2 O                    -0.179766       0.702574
  --------------------------------------------------------
  Sum of atomic charges =     0.000000
  Sum of spin   charges =     1.000000

 -----------------------------------------------------------------
                    Cartesian Multipole Moments
 -----------------------------------------------------------------
    Charge (ESU x 10^10)
                 0.0000
    Dipole Moment (Debye)
         X       0.0000      Y       0.0000      Z      -1.3507
       Tot       1.3507
    Quadrupole Moments (Debye-Ang)
        XX     -17.6025     XY      -0.6765     YY     -17.6024
        XZ       0.0000     YZ       0.0000     ZZ     -19.0538
    Octapole Moments (Debye-Ang^2)
       XXX       0.0000    XXY       0.0000    XYY       0.0000
       YYY       0.0000    XXZ      -8.7076    XYZ      -0.4414
       YYZ      -8.7075    XZZ       0.0000    YZZ       0.0000
       ZZZ     -30.9656
    Hexadecapole Moments (Debye-Ang^3)
      XXXX     -17.9121   XXXY      -0.5822   XXYY      -5.9698
      XYYY      -0.5822   YYYY     -17.9119   XXXZ       0.0000
      XXYZ       0.0000   XYYZ       0.0000   YYYZ       0.0000
      XXZZ     -19.7050   XYZZ      -1.2266   YYZZ     -19.7048
      XZZZ       0.0000   YZZZ       0.0000   ZZZZ    -102.9861
 -----------------------------------------------------------------
 Calculating analytic gradient of the SCF energy
 Gradient of XC Energy
            1           2
    1  -0.0000000   0.0000000
    2   0.0000000  -0.0000000
    3  -0.2207023   0.2207023
 Gradient of SCF Energy
            1           2
    1   0.0000000  -0.0000000
    2  -0.0000000   0.0000000
    3   0.0017626  -0.0017626
 Max gradient component =       1.763E-03
 RMS gradient           =       1.018E-03
 Gradient time:  CPU 9.51 s  wall 9.57 s
 Geometry Optimization Parameters
   NAtoms,    NIC,     NZ,  NCons,   NDum,   NFix, NCnnct, MaxDiis
        2       5       2       0       0       0       0       0

 Cartesian Hessian Update
 Hessian Updated using BFGS Update


** GEOMETRY OPTIMIZATION IN CARTESIAN COORDINATES **
   Searching for a Minimum

   Optimization Cycle:   3

                       Coordinates (Angstroms)
     ATOM              X           Y           Z
    1  Cl          0.000000    0.000000    0.024112
    2  O           0.000000    0.000000    1.595480
   Point Group: c1    Number of degrees of freedom:   0


   Energy is   -535.365896163


 Translations and Rotations Projected Out of Hessian

  1 Hessian modes will be used to form the next step
  Hessian Eigenvalues:
     0.601700

 Minimum Search - Taking Simple RFO Step
 Searching for Lamda that Minimizes Along All modes
 Value Taken    Lamda =  -0.00001033
 Step Taken.  Stepsize is  0.004143

                             Maximum     Tolerance    Cnvgd?
         Gradient           0.001763      0.000300      NO
         Displacement       0.002929      0.001200      NO
         Energy change     -0.000217      0.000001      NO

 Writing REM_CC_EA            2
 ----------------------------------------------------
       Standard Nuclear Orientation (Angstroms)
    I     Atom         X            Y            Z
 ----------------------------------------------------
    1      Cl      0.000000     0.000000     0.022562
    2      O       0.000000     0.000000     1.597030
 ----------------------------------------------------
 Nuclear Repulsion Energy =    45.7094829809 hartrees
 There are       13 alpha and       12 beta electrons
 Applying Cartesian multipole field
    Component          Value
    ---------          -----
     (2,0,0)        1.00000E-11
     (0,2,0)        2.00000E-11
     (0,0,2)       -3.00000E-11
 Nucleus-field energy     =    -0.0000000022 hartrees
 Requested basis set is G3large
 There are 29 shells and 108 basis functions
 A cutoff of  1.0D-11 yielded    421 shell pairs
 There are   5942 function pairs (  8261 Cartesian)
Evaluating contribution to one-electron hamiltonian from nuclear
 Smallest overlap matrix eigenvalue = 3.03E-03
 Multipole matrices computed through 2nd order
 Guess MOs from SCF MO coefficient file
Reading MOs from coefficient file
Reading MOs from coefficient file
 An unrestricted hybrid HF-DFT SCF calculation will be
 performed using Pulay DIIS extrapolation
 Exchange:     0.2000 Hartree-Fock + 0.0800 Slater + 0.7200 Becke88
 Correlation:  0.8100 LYP + 0.1900 VWN1RPA
 Using SG-1 standard quadrature grid
 SCF converges when DIIS error is below 1.0E-08
 ---------------------------------------
  Cycle       Energy         DIIS Error
 ---------------------------------------
    1    -535.3635828111      1.63E-04
    2    -535.3658989730      4.32E-05
    3    -535.3658970835      5.68E-05
    4    -535.3659003315      2.31E-05
    5    -535.3659009929      1.96E-06
    6    -535.3659009992      1.18E-06
    7    -535.3659010029      3.22E-07
    8    -535.3659010026      4.61E-08
    9    -535.3659010029      1.80E-08
   10    -535.3659010026      1.38E-09 Convergence criterion met
 ---------------------------------------
 One-Electron    Energy =  -828.9607916133
 Total Coulomb   Energy =   284.6573157287
 Alpha Exchange  Energy =    -3.6400198891
 Beta  Exchange  Energy =    -3.4943261578
 DFT   Exchange  Energy =   -28.3775072961
 DFT Correlation Energy =    -1.2600547536
 Nuclear Repu.   Energy =    45.7094829787
 Nuclear Attr.   Energy = -1363.5091386551
 Kinetic         Energy =   534.5483470418
 <S^2> = 0.7553
 SCF time:  CPU 19.59 s  wall 20.64 s
 Final Alpha MO Eigenvalues
            1           2           3           4           5           6
    1-101.6184215 -19.2270276  -9.5514422  -7.3138868  -7.3101016  -7.3018609
            7           8           9          10          11          12
    1  -1.1067816  -0.8023614  -0.4995210  -0.4917881  -0.4553237  -0.3366198
           13          14          15          16          17          18
    1  -0.2986057  -0.0640523   0.0159999   0.0617967   0.0647227   0.0860354
 Final Beta MO Eigenvalues
            1           2           3           4           5           6
    1-101.6160196 -19.2071120  -9.5493605  -7.3132524  -7.3022606  -7.3004609
            7           8           9          10          11          12
    1  -1.0724961  -0.7698048  -0.4814427  -0.4457759  -0.4201682  -0.2848688
           13          14          15          16          17
    1  -0.1833645  -0.0530712   0.0172955   0.0640463   0.0648991
 Analysis of SCF Wavefunction
 
 --------------------------------------------------------------
                    Orbital Energies (a.u.)
 --------------------------------------------------------------
 
 Alpha MOs
 -- Occupied --
******* -19.227  -9.551  -7.314  -7.310  -7.302  -1.107  -0.802
 -0.500  -0.492  -0.455  -0.337  -0.299
 -- Virtual --
 -0.064   0.016   0.062   0.065   0.086   0.159   0.183   0.191
  0.226   0.226   0.275   0.299   0.311   0.426   0.452   0.455
  0.465   0.938   0.971   0.971   0.991   0.995   0.996   1.009
  1.010   1.031   1.051   1.075   1.075   1.101   1.179   1.198
  1.470   1.532   1.598   1.599   1.919   1.942   2.176   2.197
  2.217   2.585   4.164   4.164   4.182   4.258   4.258   4.263
  4.263   4.727   4.732   4.754   4.796   4.836   4.887   4.888
  4.962   4.963   5.031   5.033   5.176   5.441   5.468   6.189
  6.663   6.663   6.970   7.014   7.518   9.687  20.499  20.508
 20.786  27.052  27.124  27.168  27.174  27.374  36.822  36.822
 36.822  36.823  36.825  36.831  36.858  43.586  43.641  43.733
 43.763  43.813  45.577  45.606  45.894  49.802 216.134
 
 Beta MOs
 -- Occupied --
******* -19.207  -9.549  -7.313  -7.302  -7.300  -1.072  -0.770
 -0.481  -0.446  -0.420  -0.285
 -- Virtual --
 -0.183  -0.053   0.017   0.064   0.065   0.089   0.161   0.193
  0.199   0.235   0.235   0.278   0.312   0.314   0.429   0.460
  0.465   0.467   0.944   0.981   0.994   0.999   1.009   1.009
  1.017   1.018   1.056   1.064   1.084   1.084   1.105   1.198
  1.199   1.490   1.545   1.630   1.632   1.946   1.946   2.200
  2.200   2.227   2.592   4.172   4.181   4.182   4.273   4.273
  4.276   4.276   4.742   4.758   4.761   4.851   4.867   4.898
  4.900   5.010   5.011   5.060   5.063   5.196   5.472   5.473
  6.204   6.735   6.743   7.026   7.045   7.542   9.692  20.509
 20.510  20.787  27.057  27.129  27.172  27.174  27.376  36.823
 36.823  36.824  36.825  36.827  36.831  36.859  43.630  43.687
 43.769  43.777  43.830  45.616  45.622  45.904  49.821 216.136
 --------------------------------------------------------------
 
          Ground-State Mulliken Net Atomic Charges

     Atom                 Charge (a.u.)    Spin (a.u.)
  --------------------------------------------------------
      1 Cl                    0.178351       0.295023
      2 O                    -0.178351       0.704977
  --------------------------------------------------------
  Sum of atomic charges =     0.000000
  Sum of spin   charges =     1.000000

 -----------------------------------------------------------------
                    Cartesian Multipole Moments
 -----------------------------------------------------------------
    Charge (ESU x 10^10)
                 0.0000
    Dipole Moment (Debye)
         X       0.0000      Y       0.0000      Z      -1.3485
       Tot       1.3485
    Quadrupole Moments (Debye-Ang)
        XX     -17.6077     XY      -0.6753     YY     -17.6076
        XZ       0.0000     YZ       0.0000     ZZ     -19.0409
    Octapole Moments (Debye-Ang^2)
       XXX       0.0000    XXY       0.0000    XYY       0.0000
       YYY       0.0000    XXZ      -8.7020    XYZ      -0.4446
       YYZ      -8.7020    XZZ       0.0000    YZZ       0.0000
       ZZZ     -30.9129
    Hexadecapole Moments (Debye-Ang^3)
      XXXX     -17.9214   XXXY      -0.5799   XXYY      -5.9729
      XYYY      -0.5799   YYYY     -17.9212   XXXZ       0.0000
      XXYZ       0.0000   XYYZ       0.0000   YYYZ       0.0000
      XXZZ     -19.7329   XYZZ      -1.2315   YYZZ     -19.7327
      XZZZ       0.0000   YZZZ       0.0000   ZZZZ    -103.0691
 -----------------------------------------------------------------
 Calculating analytic gradient of the SCF energy
 Gradient of XC Energy
            1           2
    1   0.0000000  -0.0000000
    2  -0.0000000   0.0000000
    3  -0.2198789   0.2198789
 Gradient of SCF Energy
            1           2
    1  -0.0000000   0.0000000
    2   0.0000000  -0.0000000
    3  -0.0001037   0.0001037
 Max gradient component =       1.037E-04
 RMS gradient           =       5.989E-05
 Gradient time:  CPU 9.72 s  wall 9.77 s
 Geometry Optimization Parameters
   NAtoms,    NIC,     NZ,  NCons,   NDum,   NFix, NCnnct, MaxDiis
        2       5       2       0       0       0       0       0

 Cartesian Hessian Update
 Hessian Updated using BFGS Update


** GEOMETRY OPTIMIZATION IN CARTESIAN COORDINATES **
   Searching for a Minimum

   Optimization Cycle:   4

                       Coordinates (Angstroms)
     ATOM              X           Y           Z
    1  Cl          0.000000    0.000000    0.022562
    2  O           0.000000    0.000000    1.597030
   Point Group: c1    Number of degrees of freedom:   0


   Energy is   -535.365901003


 Translations and Rotations Projected Out of Hessian

  1 Hessian modes will be used to form the next step
  Hessian Eigenvalues:
     0.637121

 Minimum Search - Taking Simple RFO Step
 Searching for Lamda that Minimizes Along All modes
 Value Taken    Lamda =   0.00000000
 Step Taken.  Stepsize is  0.000230

                             Maximum     Tolerance    Cnvgd?
         Gradient           0.000104      0.000300     YES
         Displacement       0.000163      0.001200     YES
         Energy change     -0.000005      0.000001      NO


                       Distance Matrix (Angstroms)
             Cl(  1)
   O (  2)  1.574468
 


 ******************************
 **  OPTIMIZATION CONVERGED  **
 ******************************
 Analysis of SCF Wavefunction
 
 --------------------------------------------------------------
                    Orbital Energies (a.u.)
 --------------------------------------------------------------
 
 Alpha MOs
 -- Occupied --
******* -19.227  -9.551  -7.314  -7.310  -7.302  -1.107  -0.802
 -0.500  -0.492  -0.455  -0.337  -0.299
 -- Virtual --
 -0.064   0.016   0.062   0.065   0.086   0.159   0.183   0.191
  0.226   0.226   0.275   0.299   0.311   0.426   0.452   0.455
  0.465   0.938   0.971   0.971   0.991   0.995   0.996   1.009
  1.010   1.031   1.051   1.075   1.075   1.101   1.179   1.198
  1.470   1.532   1.598   1.599   1.919   1.942   2.176   2.197
  2.217   2.585   4.164   4.164   4.182   4.258   4.258   4.263
  4.263   4.727   4.732   4.754   4.796   4.836   4.887   4.888
  4.962   4.963   5.031   5.033   5.176   5.441   5.468   6.189
  6.663   6.663   6.970   7.014   7.518   9.687  20.499  20.508
 20.786  27.052  27.124  27.168  27.174  27.374  36.822  36.822
 36.822  36.823  36.825  36.831  36.858  43.586  43.641  43.733
 43.763  43.813  45.577  45.606  45.894  49.802 216.134
 
 Beta MOs
 -- Occupied --
******* -19.207  -9.549  -7.313  -7.302  -7.300  -1.072  -0.770
 -0.481  -0.446  -0.420  -0.285
 -- Virtual --
 -0.183  -0.053   0.017   0.064   0.065   0.089   0.161   0.193
  0.199   0.235   0.235   0.278   0.312   0.314   0.429   0.460
  0.465   0.467   0.944   0.981   0.994   0.999   1.009   1.009
  1.017   1.018   1.056   1.064   1.084   1.084   1.105   1.198
  1.199   1.490   1.545   1.630   1.632   1.946   1.946   2.200
  2.200   2.227   2.592   4.172   4.181   4.182   4.273   4.273
  4.276   4.276   4.742   4.758   4.761   4.851   4.867   4.898
  4.900   5.010   5.011   5.060   5.063   5.196   5.472   5.473
  6.204   6.735   6.743   7.026   7.045   7.542   9.692  20.509
 20.510  20.787  27.057  27.129  27.172  27.174  27.376  36.823
 36.823  36.824  36.825  36.827  36.831  36.859  43.630  43.687
 43.769  43.777  43.830  45.616  45.622  45.904  49.821 216.136
 --------------------------------------------------------------
 
          Ground-State Mulliken Net Atomic Charges

     Atom                 Charge (a.u.)    Spin (a.u.)
  --------------------------------------------------------
      1 Cl                    0.178351       0.295023
      2 O                    -0.178351       0.704977
  --------------------------------------------------------
  Sum of atomic charges =     0.000000
  Sum of spin   charges =     1.000000

 -----------------------------------------------------------------
                    Cartesian Multipole Moments
 -----------------------------------------------------------------
    Charge (ESU x 10^10)
                 0.0000
    Dipole Moment (Debye)
         X       0.0000      Y       0.0000      Z      -1.3485
       Tot       1.3485
    Quadrupole Moments (Debye-Ang)
        XX     -17.6077     XY      -0.6753     YY     -17.6076
        XZ       0.0000     YZ       0.0000     ZZ     -19.0409
    Octapole Moments (Debye-Ang^2)
       XXX       0.0000    XXY       0.0000    XYY       0.0000
       YYY       0.0000    XXZ      -8.7020    XYZ      -0.4446
       YYZ      -8.7020    XZZ       0.0000    YZZ       0.0000
       ZZZ     -30.9129
    Hexadecapole Moments (Debye-Ang^3)
      XXXX     -17.9214   XXXY      -0.5799   XXYY      -5.9729
      XYYY      -0.5799   YYYY     -17.9212   XXXZ       0.0000
      XXYZ       0.0000   XYYZ       0.0000   YYYZ       0.0000
      XXZZ     -19.7329   XYZZ      -1.2315   YYZZ     -19.7327
      XZZZ       0.0000   YZZZ       0.0000   ZZZZ    -103.0691
 -----------------------------------------------------------------
 Total job time:  241.65s(wall), 231.57s(cpu) 
 Wed Jul 24 16:02:42 2013

        *************************************************************
        *                                                           *
        *  Thank you very much for using Q-Chem.  Have a nice day.  *
        *                                                           *
        *************************************************************


0 sent ACK to 0 
now end server 0 ... 
 
**********************************************************************
Job 2 of 2 
**********************************************************************
 
Process 0 of 1 is on cl046.stfx.acenet.ca - thread support 1
initial socket setup ...start
initial socket setup ...done 
now start server 0 ... 

cmd = /usr/bin/ssh clhead /usr/local/qchem/bin/get_hostid 1185743150 > /scratch/tmp/6067073.1.short.q/qchem28374/lic.dat
                  Welcome to Q-Chem
     A Quantum Leap Into The Future Of Chemistry

 Y. Shao, L. Fusti-Molnar, Y. Jung, J. Kussmann, C. Ochsenfeld,
 S. T. Brown, A. T. B. Gilbert, L. V. Slipchenko,S. V. Levchenko,
 D. P. O'Neill, R. A. DiStasio Jr., R. C. Lochan, T. Wang,
 G. J. O. Beran, N. A. Besley, J. M. Herbert, C. Y. Lin,
 T. Van Voorhis, S. H. Chien, A. Sodt, R. P. Steele, 
 V. A. Rassolov, P. E. Maslen, P. P. Korambath, R. D. Adamson,
 B. Austin, J. Baker, E. F. C. Byrd, H. Dachsel, R. J. Doerksen,
 A. Dreuw, B. D. Dunietz, A. D. Dutoi, T. R. Furlani,
 S. R. Gwaltney, A. Heyden, S. Hirata, C.-P. Hsu, G. Kedziora,
 R. Z. Khaliullin, P. Klunzinger, A. M. Lee, M. S. Lee, W. Liang,
 I. Lotan, N. Nair, B. Peters, E. I. Proynov, P. A. Pieniazek, 
 Y. M. Rhee, J. Ritchie, E. Rosta, C. D. Sherrill, 
 A. C. Simmonett, J. E. Subotnik, H. L. Woodcock III,
 W. Zhang, A. T. Bell, A. K. Chakraborty, D. M. Chipman,
 F. J. Keil, A. Warshel, W. J. Hehre, H. F. Schaefer III,
 J. Kong, A. I. Krylov, P. M. W. Gill, M. Head-Gordon,
 Q-Chem, Version 3.1, Q-Chem, Inc., Pittsburgh, PA (2007).

 Additional authors for Version 3.1: 
 Z. Gan, Y. Zhao, N. E. Schultz, D. Truhlar, E. Epifanovsky and M. Oana.

 Additional authors for Version 3.2: 
 R. Baer, B. R. Brooks, D. Casanova, J.-D. Chai, C.-L. Cheng, 
 C. Cramer, D. Crittenden, A. Ghysels, G. Hawkins, E. G. Hohenstein, 
 C. Kelley, W. Kurlancheek, D. Liotard, E. Livshits, P. Manohar, 
 A. Marenich, D. Neuhauser, R. Olson, M. A. Rohrdanz, K. S. Thanthiriwatte, 
 A. J. W. Thom, V. Vanovschi, C. F. Williams, Q. Wu and Z.-Q. You. 


 Intel X86 Linux Version

 Q-chem begins on Wed Jul 24 16:02:44 2013  

 Parallel job on  1  processors
Processing $rem in /usr/local/qchem/config/preferences.

theFileMan(): MAXOPENFILES=974 MAX_SUB_FILE_NUM=16
Maximum size of a physical file is 2.0 GB, maximum size of a tmp-file is 32.0 GB


--------------------------------------------------------------
User input:
--------------------------------------------------------------

$molecule 
READ 
$end 

$rem
   EXCHANGE B3LYP
   UNRESTRICTED TRUE
   SYMMETRY_DECOMPOSITION       0
   BASIS                   g3large
   JOBTYPE                 freq
   mem_static              760
   max_scf_cycles          200
   scf_final_print         1
   sym_ignore              true
   JOBTYPE                 freq
   IDERIV 1
   SCF_GUESS READ
$end
--------------------------------------------------------------
 Writing REM_CC_EA            2
 ----------------------------------------------------
       Standard Nuclear Orientation (Angstroms)
    I     Atom         X            Y            Z
 ----------------------------------------------------
    1      Cl      0.000000     0.000000     0.022562
    2      O       0.000000     0.000000     1.597030
 ----------------------------------------------------
 Nuclear Repulsion Energy =    45.7094829809 hartrees
 There are       13 alpha and       12 beta electrons
 Requested basis set is G3large
 There are 29 shells and 108 basis functions

Total QAlloc Memory Limit   2000 MB
Mega-Array Size       759 MB
MEM_STATIC part       760 MB

                       Distance Matrix (Angstroms)
             Cl(  1)
   O (  2)  1.574468
 
 A cutoff of  1.0D-11 yielded    421 shell pairs
 There are   5942 function pairs (  8261 Cartesian)
Evaluating contribution to one-electron hamiltonian from nuclear
 Smallest overlap matrix eigenvalue = 3.03E-03
 Multipole matrices computed through 2nd order
 Guess MOs from SCF MO coefficient file
Reading MOs from coefficient file
Reading MOs from coefficient file
 An unrestricted hybrid HF-DFT SCF calculation will be
 performed using Pulay DIIS extrapolation
 Exchange:     0.2000 Hartree-Fock + 0.0800 Slater + 0.7200 Becke88
 Correlation:  0.8100 LYP + 0.1900 VWN1RPA
 Using SG-1 standard quadrature grid
 SCF converges when DIIS error is below 1.0E-08
 ---------------------------------------
  Cycle       Energy         DIIS Error
 ---------------------------------------
    1    -535.3659009996      2.71E-10
    2    -535.3659009996      2.62E-10 Convergence criterion met
 ---------------------------------------
 One-Electron    Energy =  -828.9607920063
 Total Coulomb   Energy =   284.6573161479
 Alpha Exchange  Energy =    -3.6400199050
 Beta  Exchange  Energy =    -3.4943261492
 DFT   Exchange  Energy =   -28.3775073159
 DFT Correlation Energy =    -1.2600547520
 Nuclear Repu.   Energy =    45.7094829809
 Nuclear Attr.   Energy = -1363.5091392859
 Kinetic         Energy =   534.5483472797
 <S^2> = 0.7553
 SCF time:  CPU 3.98 s  wall 4.01 s
 Final Alpha MO Eigenvalues
            1           2           3           4           5           6
    1-101.6184215 -19.2270276  -9.5514422  -7.3138868  -7.3101016  -7.3018609
            7           8           9          10          11          12
    1  -1.1067816  -0.8023613  -0.4995211  -0.4917881  -0.4553237  -0.3366198
           13          14          15          16          17          18
    1  -0.2986057  -0.0640523   0.0159999   0.0617967   0.0647227   0.0860354
 Final Beta MO Eigenvalues
            1           2           3           4           5           6
    1-101.6160196 -19.2071120  -9.5493605  -7.3132524  -7.3022606  -7.3004609
            7           8           9          10          11          12
    1  -1.0724961  -0.7698048  -0.4814427  -0.4457759  -0.4201682  -0.2848688
           13          14          15          16          17
    1  -0.1833645  -0.0530712   0.0172955   0.0640463   0.0648991
 Analysis of SCF Wavefunction
 
 --------------------------------------------------------------
                    Orbital Energies (a.u.)
 --------------------------------------------------------------
 
 Alpha MOs
 -- Occupied --
******* -19.227  -9.551  -7.314  -7.310  -7.302  -1.107  -0.802
 -0.500  -0.492  -0.455  -0.337  -0.299
 -- Virtual --
 -0.064   0.016   0.062   0.065   0.086   0.159   0.183   0.191
  0.226   0.226   0.275   0.299   0.311   0.426   0.452   0.455
  0.465   0.938   0.971   0.971   0.991   0.995   0.996   1.009
  1.010   1.031   1.051   1.075   1.075   1.101   1.179   1.198
  1.470   1.532   1.598   1.599   1.919   1.942   2.176   2.197
  2.217   2.585   4.164   4.164   4.182   4.258   4.258   4.263
  4.263   4.727   4.732   4.754   4.796   4.836   4.887   4.888
  4.962   4.963   5.031   5.033   5.176   5.441   5.468   6.189
  6.663   6.663   6.970   7.014   7.518   9.687  20.499  20.508
 20.786  27.052  27.124  27.168  27.174  27.374  36.822  36.822
 36.822  36.823  36.825  36.831  36.858  43.586  43.641  43.733
 43.763  43.813  45.577  45.606  45.894  49.802 216.134
 
 Beta MOs
 -- Occupied --
******* -19.207  -9.549  -7.313  -7.302  -7.300  -1.072  -0.770
 -0.481  -0.446  -0.420  -0.285
 -- Virtual --
 -0.183  -0.053   0.017   0.064   0.065   0.089   0.161   0.193
  0.199   0.235   0.235   0.278   0.312   0.314   0.429   0.460
  0.465   0.467   0.944   0.981   0.994   0.999   1.009   1.009
  1.017   1.018   1.056   1.064   1.084   1.084   1.105   1.198
  1.199   1.490   1.545   1.630   1.632   1.946   1.946   2.200
  2.200   2.227   2.592   4.172   4.181   4.182   4.273   4.273
  4.276   4.276   4.742   4.758   4.761   4.851   4.867   4.898
  4.900   5.010   5.011   5.060   5.063   5.196   5.472   5.473
  6.204   6.735   6.743   7.026   7.045   7.542   9.692  20.509
 20.510  20.787  27.057  27.129  27.172  27.174  27.376  36.823
 36.823  36.824  36.825  36.827  36.831  36.859  43.630  43.687
 43.769  43.777  43.830  45.616  45.622  45.904  49.821 216.136
 --------------------------------------------------------------
 
          Ground-State Mulliken Net Atomic Charges

     Atom                 Charge (a.u.)    Spin (a.u.)
  --------------------------------------------------------
      1 Cl                    0.178351       0.295022
      2 O                    -0.178351       0.704978
  --------------------------------------------------------
  Sum of atomic charges =     0.000000
  Sum of spin   charges =     1.000000

 -----------------------------------------------------------------
                    Cartesian Multipole Moments
 -----------------------------------------------------------------
    Charge (ESU x 10^10)
                 0.0000
    Dipole Moment (Debye)
         X       0.0000      Y       0.0000      Z      -1.3485
       Tot       1.3485
    Quadrupole Moments (Debye-Ang)
        XX     -17.6077     XY      -0.6753     YY     -17.6076
        XZ       0.0000     YZ       0.0000     ZZ     -19.0409
    Octapole Moments (Debye-Ang^2)
       XXX       0.0000    XXY       0.0000    XYY       0.0000
       YYY       0.0000    XXZ      -8.7020    XYZ      -0.4446
       YYZ      -8.7020    XZZ       0.0000    YZZ       0.0000
       ZZZ     -30.9129
    Hexadecapole Moments (Debye-Ang^3)
      XXXX     -17.9214   XXXY      -0.5799   XXYY      -5.9729
      XYYY      -0.5799   YYYY     -17.9212   XXXZ       0.0000
      XXYZ       0.0000   XYYZ       0.0000   YYYZ       0.0000
      XXZZ     -19.7329   XYZZ      -1.2315   YYZZ     -19.7327
      XZZZ       0.0000   YZZZ       0.0000   ZZZZ    -103.0691
 -----------------------------------------------------------------
 Calculating analytic gradient of the SCF energy
 Gradient of XC Energy
            1           2
    1  -0.0000000   0.0000000
    2   0.0000000  -0.0000000
    3  -0.2198789   0.2198789
 Gradient of SCF Energy
            1           2
    1  -0.0000000   0.0000000
    2   0.0000000  -0.0000000
    3  -0.0001037   0.0001037
 Max gradient component =       1.037E-04
 RMS gradient           =       5.989E-05
 Gradient time:  CPU 8.80 s  wall 8.99 s
 ######################################################
 ######################################################
 # Starting finite difference calculation for IDERIV  #
 Finite diff step size: 1.89e-03 a.u.
 Writing REM_CC_EA            2
 ----------------------------------------------------
       Standard Nuclear Orientation (Angstroms)
    I     Atom         X            Y            Z
 ----------------------------------------------------
    1      Cl      0.001000     0.000000     0.022562
    2      O       0.000000     0.000000     1.597030
 ----------------------------------------------------
 Nuclear Repulsion Energy =    45.7094737614 hartrees
 There are       13 alpha and       12 beta electrons

                       Distance Matrix (Angstroms)
             Cl(  1)
   O (  2)  1.574468
 
 Requested basis set is G3large
 There are 29 shells and 108 basis functions
 A cutoff of  1.0D-11 yielded    421 shell pairs
 There are   5942 function pairs (  8261 Cartesian)
Evaluating contribution to one-electron hamiltonian from nuclear
 Smallest overlap matrix eigenvalue = 3.03E-03
 Multipole matrices computed through 2nd order
 Guess MOs from SCF MO coefficient file
Reading MOs from coefficient file
Reading MOs from coefficient file
 An unrestricted hybrid HF-DFT SCF calculation will be
 performed using Pulay DIIS extrapolation
 Exchange:     0.2000 Hartree-Fock + 0.0800 Slater + 0.7200 Becke88
 Correlation:  0.8100 LYP + 0.1900 VWN1RPA
 Using SG-1 standard quadrature grid
 SCF converges when DIIS error is below 1.0E-08
 ---------------------------------------
  Cycle       Energy         DIIS Error
 ---------------------------------------
    1    -535.3659004507      2.12E-05
    2    -535.3659009913      1.71E-06
    3    -535.3659009994      7.90E-07
    4    -535.3659010005      2.16E-07
    5    -535.3659010009      1.06E-07
    6    -535.3659010006      6.03E-08
    7    -535.3659010010      4.51E-08
    8    -535.3659010008      3.71E-09 Convergence criterion met
 ---------------------------------------
 One-Electron    Energy =  -828.9607740254
 Total Coulomb   Energy =   284.6573072362
 Alpha Exchange  Energy =    -3.6400198966
 Beta  Exchange  Energy =    -3.4943261261
 DFT   Exchange  Energy =   -28.3775072103
 DFT Correlation Energy =    -1.2600547400
 Nuclear Repu.   Energy =    45.7094737614
 Nuclear Attr.   Energy = -1363.5091208330
 Kinetic         Energy =   534.5483468076
 <S^2> = 0.7553
 SCF time:  CPU 15.40 s  wall 15.58 s
 Final Alpha MO Eigenvalues
            1           2           3           4           5           6
    1-101.6184215 -19.2270277  -9.5514422  -7.3138868  -7.3101016  -7.3018609
            7           8           9          10          11          12
    1  -1.1067815  -0.8023614  -0.4995210  -0.4917881  -0.4553236  -0.3366199
           13          14          15          16          17          18
    1  -0.2986057  -0.0640524   0.0159999   0.0617967   0.0647227   0.0860354
 Final Beta MO Eigenvalues
            1           2           3           4           5           6
    1-101.6160196 -19.2071121  -9.5493605  -7.3132524  -7.3022606  -7.3004609
            7           8           9          10          11          12
    1  -1.0724959  -0.7698048  -0.4814427  -0.4457759  -0.4201681  -0.2848688
           13          14          15          16          17
    1  -0.1833645  -0.0530713   0.0172955   0.0640463   0.0648991
 Analysis of SCF Wavefunction
 
 --------------------------------------------------------------
                    Orbital Energies (a.u.)
 --------------------------------------------------------------
 
 Alpha MOs
 -- Occupied --
******* -19.227  -9.551  -7.314  -7.310  -7.302  -1.107  -0.802
 -0.500  -0.492  -0.455  -0.337  -0.299
 -- Virtual --
 -0.064   0.016   0.062   0.065   0.086   0.159   0.183   0.191
  0.226   0.226   0.275   0.299   0.311   0.426   0.452   0.455
  0.465   0.938   0.971   0.971   0.991   0.995   0.996   1.009
  1.010   1.031   1.051   1.075   1.075   1.101   1.179   1.198
  1.470   1.532   1.598   1.599   1.919   1.942   2.176   2.197
  2.217   2.585   4.164   4.164   4.182   4.258   4.258   4.263
  4.263   4.727   4.732   4.754   4.796   4.836   4.887   4.888
  4.962   4.963   5.031   5.033   5.176   5.441   5.468   6.189
  6.663   6.663   6.970   7.014   7.518   9.687  20.499  20.508
 20.786  27.052  27.124  27.168  27.174  27.374  36.822  36.822
 36.822  36.823  36.825  36.831  36.858  43.586  43.641  43.733
 43.763  43.813  45.577  45.606  45.894  49.802 216.134
 
 Beta MOs
 -- Occupied --
******* -19.207  -9.549  -7.313  -7.302  -7.300  -1.072  -0.770
 -0.481  -0.446  -0.420  -0.285
 -- Virtual --
 -0.183  -0.053   0.017   0.064   0.065   0.089   0.161   0.193
  0.199   0.235   0.235   0.278   0.312   0.314   0.429   0.460
  0.465   0.467   0.944   0.981   0.994   0.999   1.009   1.009
  1.017   1.018   1.056   1.064   1.084   1.084   1.105   1.198
  1.199   1.490   1.545   1.630   1.632   1.946   1.946   2.200
  2.200   2.227   2.592   4.172   4.181   4.182   4.273   4.273
  4.276   4.276   4.742   4.758   4.761   4.851   4.867   4.898
  4.900   5.010   5.011   5.060   5.063   5.196   5.472   5.473
  6.204   6.735   6.743   7.026   7.045   7.542   9.692  20.509
 20.510  20.787  27.057  27.129  27.172  27.174  27.376  36.823
 36.823  36.824  36.825  36.827  36.831  36.859  43.630  43.687
 43.769  43.777  43.830  45.616  45.622  45.904  49.821 216.136
 --------------------------------------------------------------
 
          Ground-State Mulliken Net Atomic Charges

     Atom                 Charge (a.u.)    Spin (a.u.)
  --------------------------------------------------------
      1 Cl                    0.178351       0.295022
      2 O                    -0.178351       0.704978
  --------------------------------------------------------
  Sum of atomic charges =     0.000000
  Sum of spin   charges =     1.000000

 -----------------------------------------------------------------
                    Cartesian Multipole Moments
 -----------------------------------------------------------------
    Charge (ESU x 10^10)
                 0.0000
    Dipole Moment (Debye)
         X       0.0009      Y       0.0000      Z      -1.3485
       Tot       1.3485
    Quadrupole Moments (Debye-Ang)
        XX     -17.6077     XY      -0.6753     YY     -17.6076
        XZ      -0.0005     YZ      -0.0004     ZZ     -19.0409
    Octapole Moments (Debye-Ang^2)
       XXX      -0.0370    XXY      -0.0008    XYY      -0.0123
       YYY       0.0000    XXZ      -8.7020    XYZ      -0.4446
       YYZ      -8.7020    XZZ      -0.0107    YZZ      -0.0006
       ZZZ     -30.9129
    Hexadecapole Moments (Debye-Ang^3)
      XXXX     -17.9215   XXXY      -0.5799   XXYY      -5.9730
      XYYY      -0.5799   YYYY     -17.9212   XXXZ      -0.0003
      XXYZ       0.0003   XYYZ      -0.0001   YYYZ      -0.0004
      XXZZ     -19.7329   XYZZ      -1.2315   YYZZ     -19.7327
      XZZZ      -0.0035   YZZZ      -0.0023   ZZZZ    -103.0691
 -----------------------------------------------------------------
 Calculating analytic gradient of the SCF energy
 Gradient of XC Energy
            1           2
    1   0.0001371  -0.0001371
    2   0.0000002  -0.0000002
    3  -0.2198787   0.2198787
 Gradient of SCF Energy
            1           2
    1  -0.0000010   0.0000010
    2  -0.0000000   0.0000000
    3  -0.0001039   0.0001039
 Max gradient component =       1.039E-04
 RMS gradient           =       6.000E-05
 Gradient time:  CPU 8.86 s  wall 8.96 s
 Writing REM_CC_EA            2
 ----------------------------------------------------
       Standard Nuclear Orientation (Angstroms)
    I     Atom         X            Y            Z
 ----------------------------------------------------
    1      Cl     -0.001000     0.000000     0.022562
    2      O       0.000000     0.000000     1.597030
 ----------------------------------------------------
 Nuclear Repulsion Energy =    45.7094737614 hartrees
 There are       13 alpha and       12 beta electrons

                       Distance Matrix (Angstroms)
             Cl(  1)
   O (  2)  1.574468
 
 Requested basis set is G3large
 There are 29 shells and 108 basis functions
 A cutoff of  1.0D-11 yielded    421 shell pairs
 There are   5942 function pairs (  8261 Cartesian)
Evaluating contribution to one-electron hamiltonian from nuclear
 Smallest overlap matrix eigenvalue = 3.03E-03
 Multipole matrices computed through 2nd order
 Guess MOs from SCF MO coefficient file
Reading MOs from coefficient file
Reading MOs from coefficient file
 An unrestricted hybrid HF-DFT SCF calculation will be
 performed using Pulay DIIS extrapolation
 Exchange:     0.2000 Hartree-Fock + 0.0800 Slater + 0.7200 Becke88
 Correlation:  0.8100 LYP + 0.1900 VWN1RPA
 Using SG-1 standard quadrature grid
 SCF converges when DIIS error is below 1.0E-08
 ---------------------------------------
  Cycle       Energy         DIIS Error
 ---------------------------------------
    1    -535.3658997427      4.24E-05
    2    -535.3659009623      3.42E-06
    3    -535.3659009950      1.58E-06
    4    -535.3659009988      4.41E-07
    5    -535.3659010007      2.82E-07
    6    -535.3659010000      2.26E-07
    7    -535.3659010006      6.14E-08
    8    -535.3659010004      7.13E-09 Convergence criterion met
 ---------------------------------------
 One-Electron    Energy =  -828.9607740319
 Total Coulomb   Energy =   284.6573072398
 Alpha Exchange  Energy =    -3.6400198963
 Beta  Exchange  Energy =    -3.4943261257
 DFT   Exchange  Energy =   -28.3775072078
 DFT Correlation Energy =    -1.2600547399
 Nuclear Repu.   Energy =    45.7094737614
 Nuclear Attr.   Energy = -1363.5091208476
 Kinetic         Energy =   534.5483468158
 <S^2> = 0.7553
 SCF time:  CPU 15.64 s  wall 15.83 s
 Final Alpha MO Eigenvalues
            1           2           3           4           5           6
    1-101.6184215 -19.2270277  -9.5514422  -7.3138868  -7.3101016  -7.3018609
            7           8           9          10          11          12
    1  -1.1067815  -0.8023614  -0.4995210  -0.4917881  -0.4553236  -0.3366199
           13          14          15          16          17          18
    1  -0.2986057  -0.0640524   0.0159999   0.0617967   0.0647227   0.0860354
 Final Beta MO Eigenvalues
            1           2           3           4           5           6
    1-101.6160196 -19.2071121  -9.5493605  -7.3132524  -7.3022606  -7.3004609
            7           8           9          10          11          12
    1  -1.0724959  -0.7698048  -0.4814427  -0.4457759  -0.4201681  -0.2848688
           13          14          15          16          17
    1  -0.1833645  -0.0530713   0.0172955   0.0640463   0.0648991
 Analysis of SCF Wavefunction
 
 --------------------------------------------------------------
                    Orbital Energies (a.u.)
 --------------------------------------------------------------
 
 Alpha MOs
 -- Occupied --
******* -19.227  -9.551  -7.314  -7.310  -7.302  -1.107  -0.802
 -0.500  -0.492  -0.455  -0.337  -0.299
 -- Virtual --
 -0.064   0.016   0.062   0.065   0.086   0.159   0.183   0.191
  0.226   0.226   0.275   0.299   0.311   0.426   0.452   0.455
  0.465   0.938   0.971   0.971   0.991   0.995   0.996   1.009
  1.010   1.031   1.051   1.075   1.075   1.101   1.179   1.198
  1.470   1.532   1.598   1.599   1.919   1.942   2.176   2.197
  2.217   2.585   4.164   4.164   4.182   4.258   4.258   4.263
  4.263   4.727   4.732   4.754   4.796   4.836   4.887   4.888
  4.962   4.963   5.031   5.033   5.176   5.441   5.468   6.189
  6.663   6.663   6.970   7.014   7.518   9.687  20.499  20.508
 20.786  27.052  27.124  27.168  27.174  27.374  36.822  36.822
 36.822  36.823  36.825  36.831  36.858  43.586  43.641  43.733
 43.763  43.813  45.577  45.606  45.894  49.802 216.134
 
 Beta MOs
 -- Occupied --
******* -19.207  -9.549  -7.313  -7.302  -7.300  -1.072  -0.770
 -0.481  -0.446  -0.420  -0.285
 -- Virtual --
 -0.183  -0.053   0.017   0.064   0.065   0.089   0.161   0.193
  0.199   0.235   0.235   0.278   0.312   0.314   0.429   0.460
  0.465   0.467   0.944   0.981   0.994   0.999   1.009   1.009
  1.017   1.018   1.056   1.064   1.084   1.084   1.105   1.198
  1.199   1.490   1.545   1.630   1.632   1.946   1.946   2.200
  2.200   2.227   2.592   4.172   4.181   4.182   4.273   4.273
  4.276   4.276   4.742   4.758   4.761   4.851   4.867   4.898
  4.900   5.010   5.011   5.060   5.063   5.196   5.472   5.473
  6.204   6.735   6.743   7.026   7.045   7.542   9.692  20.509
 20.510  20.787  27.057  27.129  27.172  27.174  27.376  36.823
 36.823  36.824  36.825  36.827  36.831  36.859  43.630  43.687
 43.769  43.777  43.830  45.616  45.622  45.904  49.821 216.136
 --------------------------------------------------------------
 
          Ground-State Mulliken Net Atomic Charges

     Atom                 Charge (a.u.)    Spin (a.u.)
  --------------------------------------------------------
      1 Cl                    0.178351       0.295022
      2 O                    -0.178351       0.704978
  --------------------------------------------------------
  Sum of atomic charges =     0.000000
  Sum of spin   charges =     1.000000

 -----------------------------------------------------------------
                    Cartesian Multipole Moments
 -----------------------------------------------------------------
    Charge (ESU x 10^10)
                 0.0000
    Dipole Moment (Debye)
         X      -0.0009      Y       0.0000      Z      -1.3485
       Tot       1.3485
    Quadrupole Moments (Debye-Ang)
        XX     -17.6077     XY      -0.6753     YY     -17.6076
        XZ       0.0005     YZ       0.0004     ZZ     -19.0409
    Octapole Moments (Debye-Ang^2)
       XXX       0.0370    XXY       0.0008    XYY       0.0123
       YYY       0.0000    XXZ      -8.7020    XYZ      -0.4446
       YYZ      -8.7020    XZZ       0.0107    YZZ       0.0006
       ZZZ     -30.9129
    Hexadecapole Moments (Debye-Ang^3)
      XXXX     -17.9215   XXXY      -0.5799   XXYY      -5.9730
      XYYY      -0.5799   YYYY     -17.9212   XXXZ       0.0003
      XXYZ      -0.0003   XYYZ       0.0001   YYYZ       0.0004
      XXZZ     -19.7329   XYZZ      -1.2315   YYZZ     -19.7327
      XZZZ       0.0035   YZZZ       0.0023   ZZZZ    -103.0691
 -----------------------------------------------------------------
 Calculating analytic gradient of the SCF energy
 Gradient of XC Energy
            1           2
    1  -0.0001371   0.0001371
    2  -0.0000002   0.0000002
    3  -0.2198787   0.2198787
 Gradient of SCF Energy
            1           2
    1   0.0000010  -0.0000010
    2   0.0000001  -0.0000001
    3  -0.0001039   0.0001039
 Max gradient component =       1.039E-04
 RMS gradient           =       6.000E-05
 Gradient time:  CPU 10.06 s  wall 10.11 s
 Writing REM_CC_EA            2
 ----------------------------------------------------
       Standard Nuclear Orientation (Angstroms)
    I     Atom         X            Y            Z
 ----------------------------------------------------
    1      Cl      0.000000     0.001000     0.022562
    2      O       0.000000     0.000000     1.597030
 ----------------------------------------------------
 Nuclear Repulsion Energy =    45.7094737614 hartrees
 There are       13 alpha and       12 beta electrons

                       Distance Matrix (Angstroms)
             Cl(  1)
   O (  2)  1.574468
 
 Requested basis set is G3large
 There are 29 shells and 108 basis functions
 A cutoff of  1.0D-11 yielded    421 shell pairs
 There are   5942 function pairs (  8261 Cartesian)
Evaluating contribution to one-electron hamiltonian from nuclear
 Smallest overlap matrix eigenvalue = 3.03E-03
 Multipole matrices computed through 2nd order
 Guess MOs from SCF MO coefficient file
Reading MOs from coefficient file
Reading MOs from coefficient file
 An unrestricted hybrid HF-DFT SCF calculation will be
 performed using Pulay DIIS extrapolation
 Exchange:     0.2000 Hartree-Fock + 0.0800 Slater + 0.7200 Becke88
 Correlation:  0.8100 LYP + 0.1900 VWN1RPA
 Using SG-1 standard quadrature grid
 SCF converges when DIIS error is below 1.0E-08
 ---------------------------------------
  Cycle       Energy         DIIS Error
 ---------------------------------------
    1    -535.3659006024      3.43E-05
    2    -535.3659009917      2.26E-06
    3    -535.3659010003      4.80E-07
    4    -535.3659010003      2.80E-07
    5    -535.3659010008      1.01E-07
    6    -535.3659010005      6.22E-08
    7    -535.3659010007      4.76E-09 Convergence criterion met
 ---------------------------------------
 One-Electron    Energy =  -828.9607741616
 Total Coulomb   Energy =   284.6573073348
 Alpha Exchange  Energy =    -3.6400198919
 Beta  Exchange  Energy =    -3.4943261240
 DFT   Exchange  Energy =   -28.3775071809
 DFT Correlation Energy =    -1.2600547385
 Nuclear Repu.   Energy =    45.7094737614
 Nuclear Attr.   Energy = -1363.5091209320
 Kinetic         Energy =   534.5483467704
 <S^2> = 0.7553
 SCF time:  CPU 13.58 s  wall 14.07 s
 Final Alpha MO Eigenvalues
            1           2           3           4           5           6
    1-101.6184215 -19.2270277  -9.5514422  -7.3138868  -7.3101016  -7.3018609
            7           8           9          10          11          12
    1  -1.1067815  -0.8023614  -0.4995210  -0.4917881  -0.4553236  -0.3366199
           13          14          15          16          17          18
    1  -0.2986057  -0.0640524   0.0159999   0.0617967   0.0647227   0.0860354
 Final Beta MO Eigenvalues
            1           2           3           4           5           6
    1-101.6160196 -19.2071121  -9.5493605  -7.3132523  -7.3022605  -7.3004608
            7           8           9          10          11          12
    1  -1.0724959  -0.7698048  -0.4814427  -0.4457758  -0.4201681  -0.2848688
           13          14          15          16          17
    1  -0.1833645  -0.0530713   0.0172955   0.0640463   0.0648991
 Analysis of SCF Wavefunction
 
 --------------------------------------------------------------
                    Orbital Energies (a.u.)
 --------------------------------------------------------------
 
 Alpha MOs
 -- Occupied --
******* -19.227  -9.551  -7.314  -7.310  -7.302  -1.107  -0.802
 -0.500  -0.492  -0.455  -0.337  -0.299
 -- Virtual --
 -0.064   0.016   0.062   0.065   0.086   0.159   0.183   0.191
  0.226   0.226   0.275   0.299   0.311   0.426   0.452   0.455
  0.465   0.938   0.971   0.971   0.991   0.995   0.996   1.009
  1.010   1.031   1.051   1.075   1.075   1.101   1.179   1.198
  1.470   1.532   1.598   1.599   1.919   1.942   2.176   2.197
  2.217   2.585   4.164   4.164   4.182   4.258   4.258   4.263
  4.263   4.727   4.732   4.754   4.796   4.836   4.887   4.888
  4.962   4.963   5.031   5.033   5.176   5.441   5.468   6.189
  6.663   6.663   6.970   7.014   7.518   9.687  20.499  20.508
 20.786  27.052  27.124  27.168  27.174  27.374  36.822  36.822
 36.822  36.823  36.825  36.831  36.858  43.586  43.641  43.733
 43.763  43.813  45.577  45.606  45.894  49.802 216.134
 
 Beta MOs
 -- Occupied --
******* -19.207  -9.549  -7.313  -7.302  -7.300  -1.072  -0.770
 -0.481  -0.446  -0.420  -0.285
 -- Virtual --
 -0.183  -0.053   0.017   0.064   0.065   0.089   0.161   0.193
  0.199   0.235   0.235   0.278   0.312   0.314   0.429   0.460
  0.465   0.467   0.944   0.981   0.994   0.999   1.009   1.009
  1.017   1.018   1.056   1.064   1.084   1.084   1.105   1.198
  1.199   1.490   1.545   1.630   1.632   1.946   1.946   2.200
  2.200   2.227   2.592   4.172   4.181   4.182   4.273   4.273
  4.276   4.276   4.742   4.758   4.761   4.851   4.867   4.898
  4.900   5.010   5.011   5.060   5.063   5.196   5.472   5.473
  6.204   6.735   6.743   7.026   7.045   7.542   9.692  20.509
 20.510  20.787  27.057  27.129  27.172  27.174  27.376  36.823
 36.823  36.824  36.825  36.827  36.831  36.859  43.630  43.687
 43.769  43.777  43.830  45.616  45.622  45.904  49.821 216.136
 --------------------------------------------------------------
 
          Ground-State Mulliken Net Atomic Charges

     Atom                 Charge (a.u.)    Spin (a.u.)
  --------------------------------------------------------
      1 Cl                    0.178351       0.295022
      2 O                    -0.178351       0.704978
  --------------------------------------------------------
  Sum of atomic charges =     0.000000
  Sum of spin   charges =     1.000000

 -----------------------------------------------------------------
                    Cartesian Multipole Moments
 -----------------------------------------------------------------
    Charge (ESU x 10^10)
                 0.0000
    Dipole Moment (Debye)
         X       0.0000      Y       0.0009      Z      -1.3485
       Tot       1.3485
    Quadrupole Moments (Debye-Ang)
        XX     -17.6077     XY      -0.6753     YY     -17.6076
        XZ      -0.0004     YZ      -0.0005     ZZ     -19.0409
    Octapole Moments (Debye-Ang^2)
       XXX       0.0000    XXY      -0.0123    XYY      -0.0008
       YYY      -0.0370    XXZ      -8.7020    XYZ      -0.4446
       YYZ      -8.7020    XZZ      -0.0006    YZZ      -0.0107
       ZZZ     -30.9129
    Hexadecapole Moments (Debye-Ang^3)
      XXXX     -17.9214   XXXY      -0.5799   XXYY      -5.9730
      XYYY      -0.5799   YYYY     -17.9213   XXXZ      -0.0004
      XXYZ      -0.0001   XYYZ       0.0003   YYYZ      -0.0003
      XXZZ     -19.7329   XYZZ      -1.2315   YYZZ     -19.7327
      XZZZ      -0.0023   YZZZ      -0.0035   ZZZZ    -103.0691
 -----------------------------------------------------------------
 Calculating analytic gradient of the SCF energy
 Gradient of XC Energy
            1           2
    1   0.0000002  -0.0000002
    2   0.0001371  -0.0001371
    3  -0.2198787   0.2198787
 Gradient of SCF Energy
            1           2
    1  -0.0000000   0.0000000
    2  -0.0000010   0.0000010
    3  -0.0001039   0.0001039
 Max gradient component =       1.039E-04
 RMS gradient           =       6.000E-05
 Gradient time:  CPU 10.02 s  wall 10.07 s
 Writing REM_CC_EA            2
 ----------------------------------------------------
       Standard Nuclear Orientation (Angstroms)
    I     Atom         X            Y            Z
 ----------------------------------------------------
    1      Cl      0.000000    -0.001000     0.022562
    2      O       0.000000     0.000000     1.597030
 ----------------------------------------------------
 Nuclear Repulsion Energy =    45.7094737614 hartrees
 There are       13 alpha and       12 beta electrons

                       Distance Matrix (Angstroms)
             Cl(  1)
   O (  2)  1.574468
 
 Requested basis set is G3large
 There are 29 shells and 108 basis functions
 A cutoff of  1.0D-11 yielded    421 shell pairs
 There are   5942 function pairs (  8261 Cartesian)
Evaluating contribution to one-electron hamiltonian from nuclear
 Smallest overlap matrix eigenvalue = 3.03E-03
 Multipole matrices computed through 2nd order
 Guess MOs from SCF MO coefficient file
Reading MOs from coefficient file
Reading MOs from coefficient file
 An unrestricted hybrid HF-DFT SCF calculation will be
 performed using Pulay DIIS extrapolation
 Exchange:     0.2000 Hartree-Fock + 0.0800 Slater + 0.7200 Becke88
 Correlation:  0.8100 LYP + 0.1900 VWN1RPA
 Using SG-1 standard quadrature grid
 SCF converges when DIIS error is below 1.0E-08
 ---------------------------------------
  Cycle       Energy         DIIS Error
 ---------------------------------------
    1    -535.3658997426      4.24E-05
    2    -535.3659009623      3.42E-06
    3    -535.3659009950      1.58E-06
    4    -535.3659009989      4.41E-07
    5    -535.3659010007      2.79E-07
    6    -535.3659010000      2.24E-07
    7    -535.3659010006      6.17E-08
    8    -535.3659010003      7.15E-09 Convergence criterion met
 ---------------------------------------
 One-Electron    Energy =  -828.9607740051
 Total Coulomb   Energy =   284.6573072110
 Alpha Exchange  Energy =    -3.6400198962
 Beta  Exchange  Energy =    -3.4943261255
 DFT   Exchange  Energy =   -28.3775072061
 DFT Correlation Energy =    -1.2600547398
 Nuclear Repu.   Energy =    45.7094737614
 Nuclear Attr.   Energy = -1363.5091208027
 Kinetic         Energy =   534.5483467976
 <S^2> = 0.7553
 SCF time:  CPU 15.43 s  wall 15.97 s
 Final Alpha MO Eigenvalues
            1           2           3           4           5           6
    1-101.6184215 -19.2270277  -9.5514422  -7.3138868  -7.3101016  -7.3018609
            7           8           9          10          11          12
    1  -1.1067815  -0.8023614  -0.4995210  -0.4917881  -0.4553236  -0.3366199
           13          14          15          16          17          18
    1  -0.2986057  -0.0640524   0.0159999   0.0617967   0.0647227   0.0860354
 Final Beta MO Eigenvalues
            1           2           3           4           5           6
    1-101.6160196 -19.2071121  -9.5493605  -7.3132524  -7.3022606  -7.3004609
[...]
       Standard Nuclear Orientation (Angstroms)
    I     Atom         X            Y            Z
 ----------------------------------------------------
    1      Cl      0.000000     0.000000     0.022562
    2      O       0.000000     0.000000     1.598030
 ----------------------------------------------------
 Nuclear Repulsion Energy =    45.6804697010 hartrees
 There are       13 alpha and       12 beta electrons

                       Distance Matrix (Angstroms)
             Cl(  1)
   O (  2)  1.575468
 
 Requested basis set is G3large
 There are 29 shells and 108 basis functions
 A cutoff of  1.0D-11 yielded    421 shell pairs
 There are   5942 function pairs (  8261 Cartesian)
Evaluating contribution to one-electron hamiltonian from nuclear
 Smallest overlap matrix eigenvalue = 3.04E-03
 Multipole matrices computed through 2nd order
 Guess MOs from SCF MO coefficient file
Reading MOs from coefficient file
Reading MOs from coefficient file
 An unrestricted hybrid HF-DFT SCF calculation will be
 performed using Pulay DIIS extrapolation
 Exchange:     0.2000 Hartree-Fock + 0.0800 Slater + 0.7200 Becke88
 Correlation:  0.8100 LYP + 0.1900 VWN1RPA
 Using SG-1 standard quadrature grid
 SCF converges when DIIS error is below 1.0E-08
 ---------------------------------------
  Cycle       Energy         DIIS Error
 ---------------------------------------
    1    -535.3651532478      5.65E-05
    2    -535.3659000202      1.40E-05
    3    -535.3658998175      1.86E-05
    4    -535.3659001685      7.55E-06
    5    -535.3659002390      6.28E-07
    6    -535.3659002396      3.71E-07
    7    -535.3659002405      1.08E-07
    8    -535.3659002399      2.31E-08
    9    -535.3659002402      5.50E-09 Convergence criterion met
 ---------------------------------------
 One-Electron    Energy =  -828.9040788316
 Total Coulomb   Energy =   284.6290795236
 Alpha Exchange  Energy =    -3.6399728947
 Beta  Exchange  Energy =    -3.4942591971
 DFT   Exchange  Energy =   -28.3771223344
 DFT Correlation Energy =    -1.2600162071
 Nuclear Repu.   Energy =    45.6804697010
 Nuclear Attr.   Energy = -1363.4506932785
 Kinetic         Energy =   534.5466144469
 <S^2> = 0.7553
 SCF time:  CPU 17.47 s  wall 18.22 s
 Final Alpha MO Eigenvalues
            1           2           3           4           5           6
    1-101.6183834 -19.2271986  -9.5513994  -7.3138489  -7.3100481  -7.3018216
            7           8           9          10          11          12
    1  -1.1063855  -0.8025094  -0.4994494  -0.4916258  -0.4551424  -0.3367571
           13          14          15          16          17          18
    1  -0.2987507  -0.0643734   0.0160103   0.0618130   0.0647380   0.0859288
 Final Beta MO Eigenvalues
            1           2           3           4           5           6
    1-101.6159865 -19.2072642  -9.5493222  -7.3132189  -7.3022208  -7.3004244
            7           8           9          10          11          12
    1  -1.0720431  -0.7699740  -0.4813791  -0.4455905  -0.4199765  -0.2850089
           13          14          15          16          17
    1  -0.1834568  -0.0533698   0.0173032   0.0640596   0.0649147
 Analysis of SCF Wavefunction
 
 --------------------------------------------------------------
                    Orbital Energies (a.u.)
 --------------------------------------------------------------
 
 Alpha MOs
 -- Occupied --
******* -19.227  -9.551  -7.314  -7.310  -7.302  -1.106  -0.803
 -0.499  -0.492  -0.455  -0.337  -0.299
 -- Virtual --
 -0.064   0.016   0.062   0.065   0.086   0.159   0.183   0.191
  0.226   0.226   0.275   0.298   0.311   0.426   0.452   0.455
  0.465   0.938   0.971   0.971   0.991   0.995   0.996   1.009
  1.010   1.031   1.051   1.075   1.075   1.101   1.179   1.197
  1.470   1.532   1.597   1.599   1.919   1.942   2.176   2.197
  2.215   2.585   4.164   4.166   4.183   4.258   4.258   4.263
  4.263   4.727   4.732   4.753   4.795   4.836   4.888   4.888
  4.962   4.963   5.030   5.032   5.175   5.439   5.466   6.186
  6.662   6.663   6.970   7.014   7.518   9.686  20.499  20.508
 20.786  27.052  27.124  27.167  27.174  27.373  36.822  36.822
 36.822  36.823  36.825  36.831  36.858  43.586  43.641  43.733
 43.763  43.813  45.577  45.606  45.892  49.802 216.133
 
 Beta MOs
 -- Occupied --
******* -19.207  -9.549  -7.313  -7.302  -7.300  -1.072  -0.770
 -0.481  -0.446  -0.420  -0.285
 -- Virtual --
 -0.183  -0.053   0.017   0.064   0.065   0.089   0.161   0.193
  0.199   0.235   0.236   0.278   0.312   0.314   0.429   0.459
  0.465   0.467   0.945   0.981   0.994   0.999   1.009   1.009
  1.017   1.018   1.056   1.064   1.084   1.084   1.105   1.198
  1.199   1.490   1.544   1.630   1.632   1.946   1.946   2.200
  2.200   2.226   2.592   4.172   4.182   4.184   4.273   4.273
  4.276   4.276   4.742   4.758   4.760   4.851   4.867   4.898
  4.900   5.010   5.011   5.060   5.062   5.194   5.470   5.471
  6.201   6.735   6.743   7.025   7.044   7.542   9.690  20.509
 20.510  20.786  27.057  27.129  27.172  27.174  27.375  36.823
 36.823  36.824  36.825  36.827  36.831  36.859  43.630  43.686
 43.769  43.777  43.830  45.616  45.621  45.902  49.821 216.135
 --------------------------------------------------------------
 
          Ground-State Mulliken Net Atomic Charges

     Atom                 Charge (a.u.)    Spin (a.u.)
  --------------------------------------------------------
      1 Cl                    0.177894       0.294247
      2 O                    -0.177894       0.705753
  --------------------------------------------------------
  Sum of atomic charges =     0.000000
  Sum of spin   charges =     1.000000

 -----------------------------------------------------------------
                    Cartesian Multipole Moments
 -----------------------------------------------------------------
    Charge (ESU x 10^10)
                 0.0000
    Dipole Moment (Debye)
         X       0.0000      Y       0.0000      Z      -1.3478
       Tot       1.3478
    Quadrupole Moments (Debye-Ang)
        XX     -17.6093     XY      -0.6750     YY     -17.6092
        XZ       0.0000     YZ       0.0000     ZZ     -19.0380
    Octapole Moments (Debye-Ang^2)
       XXX       0.0000    XXY       0.0000    XYY       0.0000
       YYY       0.0000    XXZ      -8.7090    XYZ      -0.4460
       YYZ      -8.7090    XZZ       0.0000    YZZ       0.0000
       ZZZ     -30.9244
    Hexadecapole Moments (Debye-Ang^3)
      XXXX     -17.9244   XXXY      -0.5792   XXYY      -5.9739
      XYYY      -0.5792   YYYY     -17.9242   XXXZ       0.0000
      XXYZ       0.0000   XYYZ       0.0000   YYYZ       0.0000
      XXZZ     -19.7506   XYZZ      -1.2335   YYZZ     -19.7504
      XZZZ       0.0000   YZZZ       0.0000   ZZZZ    -103.1576
 -----------------------------------------------------------------
 Calculating analytic gradient of the SCF energy
 Gradient of XC Energy
            1           2
    1   0.0000000  -0.0000000
    2  -0.0000000   0.0000000
    3  -0.2196139   0.2196139
 Gradient of SCF Energy
            1           2
    1   0.0000000  -0.0000000
    2  -0.0000000   0.0000000
    3  -0.0006987   0.0006987
 Max gradient component =       6.987E-04
 RMS gradient           =       4.034E-04
 Gradient time:  CPU 9.43 s  wall 9.51 s
 Writing REM_CC_EA            2
 ----------------------------------------------------
       Standard Nuclear Orientation (Angstroms)
    I     Atom         X            Y            Z
 ----------------------------------------------------
    1      Cl      0.000000     0.000000     0.022562
    2      O       0.000000     0.000000     1.596030
 ----------------------------------------------------
 Nuclear Repulsion Energy =    45.7385331390 hartrees
 There are       13 alpha and       12 beta electrons

                       Distance Matrix (Angstroms)
             Cl(  1)
   O (  2)  1.573468
 
 Requested basis set is G3large
 There are 29 shells and 108 basis functions
 A cutoff of  1.0D-11 yielded    421 shell pairs
 There are   5942 function pairs (  8261 Cartesian)
Evaluating contribution to one-electron hamiltonian from nuclear
 Smallest overlap matrix eigenvalue = 3.02E-03
 Multipole matrices computed through 2nd order
 Guess MOs from SCF MO coefficient file
Reading MOs from coefficient file
Reading MOs from coefficient file
 An unrestricted hybrid HF-DFT SCF calculation will be
 performed using Pulay DIIS extrapolation
 Exchange:     0.2000 Hartree-Fock + 0.0800 Slater + 0.7200 Becke88
 Correlation:  0.8100 LYP + 0.1900 VWN1RPA
 Using SG-1 standard quadrature grid
 SCF converges when DIIS error is below 1.0E-08
 ---------------------------------------
  Cycle       Energy         DIIS Error
 ---------------------------------------
    1    -535.3673982977      1.05E-04
    2    -535.3658997884      2.78E-05
    3    -535.3658990096      3.65E-05
    4    -535.3659003503      1.48E-05
    5    -535.3659006239      1.26E-06
    6    -535.3659006265      7.58E-07
    7    -535.3659006280      2.07E-07
    8    -535.3659006283      2.95E-08
    9    -535.3659006288      1.15E-08
   10    -535.3659006290      8.82E-10 Convergence criterion met
 ---------------------------------------
 One-Electron    Energy =  -829.0175746919
 Total Coulomb   Energy =   284.6855878332
 Alpha Exchange  Energy =    -3.6400670093
 Beta  Exchange  Energy =    -3.4943932971
 DFT   Exchange  Energy =   -28.3778932806
 DFT Correlation Energy =    -1.2600933223
 Nuclear Repu.   Energy =    45.7385331390
 Nuclear Attr.   Energy = -1363.5676619771
 Kinetic         Energy =   534.5500872853
 <S^2> = 0.7553
 SCF time:  CPU 18.86 s  wall 19.14 s
 Final Alpha MO Eigenvalues
            1           2           3           4           5           6
    1-101.6184594 -19.2268566  -9.5514849  -7.3139245  -7.3101550  -7.3019001
            7           8           9          10          11          12
    1  -1.1071788  -0.8022130  -0.4995926  -0.4919510  -0.4555055  -0.3364823
           13          14          15          16          17          18
    1  -0.2984606  -0.0637316   0.0159897   0.0617804   0.0647074   0.0861424
 Final Beta MO Eigenvalues
            1           2           3           4           5           6
    1-101.6160526 -19.2069597  -9.5493988  -7.3132858  -7.3023003  -7.3004973
            7           8           9          10          11          12
    1  -1.0729500  -0.7696354  -0.4815061  -0.4459618  -0.4203604  -0.2847285
           13          14          15          16          17
    1  -0.1832720  -0.0527733   0.0172879   0.0640331   0.0648835
 Analysis of SCF Wavefunction
 
 --------------------------------------------------------------
                    Orbital Energies (a.u.)
 --------------------------------------------------------------
 
 Alpha MOs
 -- Occupied --
******* -19.227  -9.551  -7.314  -7.310  -7.302  -1.107  -0.802
 -0.500  -0.492  -0.456  -0.336  -0.298
 -- Virtual --
 -0.064   0.016   0.062   0.065   0.086   0.159   0.183   0.191
  0.226   0.226   0.275   0.299   0.311   0.426   0.453   0.455
  0.465   0.938   0.971   0.972   0.991   0.995   0.996   1.009
  1.010   1.031   1.051   1.075   1.075   1.101   1.180   1.198
  1.470   1.532   1.598   1.599   1.919   1.942   2.177   2.197
  2.218   2.585   4.163   4.164   4.181   4.258   4.258   4.262
  4.263   4.727   4.732   4.754   4.796   4.836   4.887   4.888
  4.962   4.963   5.031   5.033   5.178   5.443   5.470   6.193
  6.663   6.663   6.971   7.015   7.519   9.689  20.499  20.508
 20.787  27.052  27.124  27.168  27.174  27.375  36.822  36.822
 36.822  36.823  36.825  36.831  36.858  43.587  43.641  43.733
 43.763  43.813  45.578  45.607  45.896  49.802 216.135
 
 Beta MOs
 -- Occupied --
******* -19.207  -9.549  -7.313  -7.302  -7.300  -1.073  -0.770
 -0.482  -0.446  -0.420  -0.285
 -- Virtual --
 -0.183  -0.053   0.017   0.064   0.065   0.089   0.161   0.193
  0.199   0.235   0.235   0.278   0.312   0.314   0.429   0.460
  0.465   0.467   0.944   0.982   0.994   0.999   1.009   1.009
  1.017   1.018   1.055   1.064   1.084   1.084   1.105   1.199
  1.199   1.490   1.545   1.631   1.633   1.946   1.946   2.200
  2.200   2.229   2.592   4.172   4.180   4.181   4.273   4.273
  4.276   4.276   4.742   4.758   4.761   4.851   4.868   4.898
  4.900   5.010   5.011   5.060   5.063   5.197   5.474   5.474
  6.207   6.735   6.743   7.027   7.046   7.542   9.693  20.509
 20.510  20.787  27.057  27.129  27.172  27.175  27.377  36.823
 36.823  36.824  36.825  36.827  36.831  36.859  43.630  43.687
 43.770  43.777  43.831  45.616  45.622  45.906  49.821 216.137
 --------------------------------------------------------------
 
          Ground-State Mulliken Net Atomic Charges

     Atom                 Charge (a.u.)    Spin (a.u.)
  --------------------------------------------------------
      1 Cl                    0.178808       0.295798
      2 O                    -0.178808       0.704202
  --------------------------------------------------------
  Sum of atomic charges =     0.000000
  Sum of spin   charges =     1.000000

 -----------------------------------------------------------------
                    Cartesian Multipole Moments
 -----------------------------------------------------------------
    Charge (ESU x 10^10)
                 0.0000
    Dipole Moment (Debye)
         X       0.0000      Y       0.0000      Z      -1.3492
       Tot       1.3492
    Quadrupole Moments (Debye-Ang)
        XX     -17.6060     XY      -0.6757     YY     -17.6059
        XZ       0.0000     YZ       0.0000     ZZ     -19.0437
    Octapole Moments (Debye-Ang^2)
       XXX       0.0000    XXY       0.0000    XYY       0.0000
       YYY       0.0000    XXZ      -8.6950    XYZ      -0.4432
       YYZ      -8.6950    XZZ       0.0000    YZZ       0.0000
       ZZZ     -30.9014
    Hexadecapole Moments (Debye-Ang^3)
      XXXX     -17.9184   XXXY      -0.5807   XXYY      -5.9719
      XYYY      -0.5807   YYYY     -17.9182   XXXZ       0.0000
      XXYZ       0.0000   XYYZ       0.0000   YYYZ       0.0000
      XXZZ     -19.7152   XYZZ      -1.2295   YYZZ     -19.7150
      XZZZ       0.0000   YZZZ       0.0000   ZZZZ    -102.9805
 -----------------------------------------------------------------
 Calculating analytic gradient of the SCF energy
 Gradient of XC Energy
            1           2
    1   0.0000000  -0.0000000
    2   0.0000000  -0.0000000
    3  -0.2201442   0.2201442
 Gradient of SCF Energy
            1           2
    1   0.0000000  -0.0000000
    2  -0.0000000   0.0000000
    3   0.0004947  -0.0004947
 Max gradient component =       4.947E-04
 RMS gradient           =       2.856E-04
 Gradient time:  CPU 9.22 s  wall 9.43 s
Dipole drv :
gprntSymmMtrx error report: 
 Final Hessian.
            1           2           3           4           5           6
    1  -0.0005314  -0.0000256  -0.0000015   0.0005306   0.0000256   0.0000015
    2  -0.0000256  -0.0005312   0.0000009   0.0000261   0.0005311  -0.0000009
    3  -0.0000015   0.0000009   0.3157650   0.0000015  -0.0000015  -0.3157650
    4   0.0005306   0.0000261   0.0000015  -0.0005297  -0.0000261  -0.0000015
    5   0.0000256   0.0005311  -0.0000015  -0.0000261  -0.0005311   0.0000016
    6   0.0000015  -0.0000009  -0.3157650  -0.0000015   0.0000016   0.3157650
 Writing REM_CC_EA            2
 ----------------------------------------------------
       Standard Nuclear Orientation (Angstroms)
    I     Atom         X            Y            Z
 ----------------------------------------------------
    1      Cl      0.000000     0.000000     0.022562
    2      O       0.000000     0.000000     1.597030
 ----------------------------------------------------
 Nuclear Repulsion Energy =    45.7094829809 hartrees
 There are       13 alpha and       12 beta electrons
 old dipole drv.
            1           2           3           4           5           6
    1   0.1787103   0.0000859   0.0000006  -0.1786873  -0.0000842  -0.0000002
    2   0.0001272   0.1786875  -0.0000052  -0.0000936  -0.1786867   0.0000048
    3  -0.0000025  -0.0000021  -0.1488417   0.0000277  -0.0000039   0.1488414
 New transposed dipole drv.
            1           2           3
    1   0.1787103   0.0001272  -0.0000025
    2   0.0000859   0.1786875  -0.0000021
    3   0.0000006  -0.0000052  -0.1488417
    4  -0.1786873  -0.0000936   0.0000277
    5  -0.0000842  -0.1786867  -0.0000039
    6  -0.0000002   0.0000048   0.1488414
FINAL TENSOR RESULT:
Order 2, Length 6
Order 1, Length 6
  -0.0005314  -0.0000256  -0.0000015   0.0005306   0.0000256   0.0000015
Order 1, Length 6
  -0.0000256  -0.0005312   0.0000009   0.0000261   0.0005311  -0.0000009
Order 1, Length 6
  -0.0000015   0.0000009   0.3157650   0.0000015  -0.0000015  -0.3157650
Order 1, Length 6
   0.0005306   0.0000261   0.0000015  -0.0005297  -0.0000261  -0.0000015
Order 1, Length 6
   0.0000256   0.0005311  -0.0000015  -0.0000261  -0.0005311   0.0000016
Order 1, Length 6
   0.0000015  -0.0000009  -0.3157650  -0.0000015   0.0000016   0.3157650


 # Finishing finite difference calculation for IDERIV #
 ######################################################
 ######################################################
 Requested basis set is G3large
 There are 29 shells and 108 basis functions
 **********************************************************************
 **                                                                  **
 **                       VIBRATIONAL ANALYSIS                       **
 **                       --------------------                       **
 **                                                                  **
 **        VIBRATIONAL FREQUENCIES (CM**-1) AND NORMAL MODES         **
 **     FORCE CONSTANTS (mDYN/ANGSTROM) AND REDUCED MASSES (AMU)     **
 **                  INFRARED INTENSITIES (KM/MOL)                   **
 **                                                                  **
 **********************************************************************
 

 Mode:                 1
 Frequency:       871.94
 Force Cnst:      8.6354
 Red. Mass:      19.2778
 IR Active:          YES
 IR Intens:        1.968
 Raman Active:       YES
               X      Y      Z
 Cl         0.000  0.000 -0.416
 O          0.000  0.000  0.909
 TransDip   0.000  0.000  0.045

 STANDARD THERMODYNAMIC QUANTITIES AT   298.18 K  AND     1.00 ATM

   This Molecule has  0 Imaginary Frequencies
   Zero point vibrational energy:        1.247 kcal/mol

   Atom    1 Element Cl Has Mass   34.96885
   Atom    2 Element O  Has Mass   15.99491
   Molecular Mass:    50.963760 amu
   Principal axes and moments of inertia in atomic units:
                             1           2           3
    Eigenvalues --        0.00000    97.15539    97.15539
          X               0.00000     0.00000     1.00000
          Y               0.00000     1.00000     0.00000
          Z               1.00000     0.00000     0.00000
   Rotational Symmetry Number is   1
   The Molecule is a Symmetric Top
   Translational Enthalpy:        0.889 kcal/mol
   Rotational Enthalpy:           0.889 kcal/mol
   Vibrational Enthalpy:          1.284 kcal/mol
   gas constant (RT):             0.593 kcal/mol
   Translational Entropy:        37.709  cal/mol.K
   Rotational Entropy:          -42.776  cal/mol.K
   Vibrational Entropy:           0.156  cal/mol.K

   Total Enthalpy:                3.654 kcal/mol
   Total Entropy:                -4.911  cal/mol.K
 Total job time:  333.00s(wall), 325.48s(cpu) 
 Wed Jul 24 16:08:17 2013

        *************************************************************
        *                                                           *
        *  Thank you very much for using Q-Chem.  Have a nice day.  *
        *                                                           *
        *************************************************************


0 sent ACK to 0 
now end server 0 ... 
