Process 0 of 1 is on cl152.stfx.acenet.ca - thread support 1
initial socket setup ...start
initial socket setup ...done 
now start server 0 ... 

cmd = /usr/bin/ssh clhead /usr/local/qchem/bin/get_hostid 1252052954 > /globalscratch/itamblyn/bnl/g297_b3lyp_neut_g03Large_worked/g2g71129/omega2000/qchem461/lic.dat
                  Welcome to Q-Chem
     A Quantum Leap Into The Future Of Chemistry

 Y. Shao, L. Fusti-Molnar, Y. Jung, J. Kussmann, C. Ochsenfeld,
 S. T. Brown, A. T. B. Gilbert, L. V. Slipchenko,S. V. Levchenko,
 D. P. O'Neill, R. A. DiStasio Jr., R. C. Lochan, T. Wang,
 G. J. O. Beran, N. A. Besley, J. M. Herbert, C. Y. Lin,
 T. Van Voorhis, S. H. Chien, A. Sodt, R. P. Steele, 
 V. A. Rassolov, P. E. Maslen, P. P. Korambath, R. D. Adamson,
 B. Austin, J. Baker, E. F. C. Byrd, H. Dachsel, R. J. Doerksen,
 A. Dreuw, B. D. Dunietz, A. D. Dutoi, T. R. Furlani,
 S. R. Gwaltney, A. Heyden, S. Hirata, C.-P. Hsu, G. Kedziora,
 R. Z. Khaliullin, P. Klunzinger, A. M. Lee, M. S. Lee, W. Liang,
 I. Lotan, N. Nair, B. Peters, E. I. Proynov, P. A. Pieniazek, 
 Y. M. Rhee, J. Ritchie, E. Rosta, C. D. Sherrill, 
 A. C. Simmonett, J. E. Subotnik, H. L. Woodcock III,
 W. Zhang, A. T. Bell, A. K. Chakraborty, D. M. Chipman,
 F. J. Keil, A. Warshel, W. J. Hehre, H. F. Schaefer III,
 J. Kong, A. I. Krylov, P. M. W. Gill, M. Head-Gordon,
 Q-Chem, Version 3.1, Q-Chem, Inc., Pittsburgh, PA (2007).

 Additional authors for Version 3.1: 
 Z. Gan, Y. Zhao, N. E. Schultz, D. Truhlar, E. Epifanovsky and M. Oana.

 Additional authors for Version 3.2: 
 R. Baer, B. R. Brooks, D. Casanova, J.-D. Chai, C.-L. Cheng, 
 C. Cramer, D. Crittenden, A. Ghysels, G. Hawkins, E. G. Hohenstein, 
 C. Kelley, W. Kurlancheek, D. Liotard, E. Livshits, P. Manohar, 
 A. Marenich, D. Neuhauser, R. Olson, M. A. Rohrdanz, K. S. Thanthiriwatte, 
 A. J. W. Thom, V. Vanovschi, C. F. Williams, Q. Wu and Z.-Q. You. 


 Intel X86 Linux Version

 Q-chem begins on Tue Apr 12 22:41:18 2011  

 Parallel job on  1  processors
Processing $rem in /usr/local/qchem/config/preferences.

theFileMan(): MAXOPENFILES=974 MAX_SUB_FILE_NUM=16
Maximum size of a physical file is 2.0 GB, maximum size of a tmp-file is 32.0 GB


--------------------------------------------------------------
User input:
--------------------------------------------------------------

$molecule
-1,2
X
N,1,1.
C,2,rcn,1,a1
C,2,rcn,1,a1,3,120.,0
C,2,rcn,1,a1,3,-120.,0
H,3,rha,2,a2,1,180.,0
H,3,rhb,2,a3,1,t1,0
H,3,rhb,2,a3,1,-t1,0
H,4,rha,2,a2,1,180.,0
H,4,rhb,2,a3,1,t1,0
H,4,rhb,2,a3,1,-t1,0
H,5,rha,2,a2,1,180.,0
H,5,rhb,2,a3,1,t1,0
H,5,rhb,2,a3,1,-t1,0

rcn=1.45475726
rha=1.10926927
rhb=1.09573835
a1=107.30072668
a2=113.31044557
a3=109.72330209
t1=59.30128084

$end

$comment
negative
$end

$xc_functional
   X HF 1.0
   X BNL 1.0
   C LYP 1.0
$end

$rem
SYMMETRY_DECOMPOSITION	0
exchange 		general
BASIS                   g3large
omega			2000
separate_jk		true
mem_static              760
max_scf_cycles          200
scf_final_print         1
sym_ignore              true
$end

--------------------------------------------------------------
 Writing REM_CC_EA           13
 ----------------------------------------------------
       Standard Nuclear Orientation (Angstroms)
    I     Atom         X            Y            Z
 ----------------------------------------------------
    1      N       0.000000     0.000000     1.000000
    2      C       1.388940     0.000000     1.432626
    3      C      -0.694470     1.202857     1.432626
    4      C      -0.694470    -1.202857     1.432626
    5      H       1.505077     0.000000     2.535799
    6      H       1.898596     0.886911     1.039838
    7      H       1.898596    -0.886911     1.039838
    8      H      -0.752539     1.303435     2.535799
    9      H      -1.717385     1.200777     1.039838
   10      H      -0.181211     2.087688     1.039838
   11      H      -0.752539    -1.303435     2.535799
   12      H      -0.181211    -2.087688     1.039838
   13      H      -1.717385    -1.200777     1.039838
 ----------------------------------------------------
 Nuclear Repulsion Energy =   138.2631656399 hartrees
 There are       18 alpha and       17 beta electrons
 Requested basis set is G3large
 There are 94 shells and 258 basis functions

Total QAlloc Memory Limit   2000 MB
Mega-Array Size       743 MB
MEM_STATIC part       760 MB

                       Distance Matrix (Angstroms)
             N (  1)   C (  2)   C (  3)   C (  4)   H (  5)   H (  6)
   C (  2)  1.454757
   C (  3)  1.454757  2.405714
   C (  4)  1.454757  2.405714  2.405714
   H (  5)  2.150334  1.109269  2.738953  2.738953
   H (  6)  2.095916  1.095738  2.641608  3.353416  1.783078
   H (  7)  2.095916  1.095738  3.353416  2.641608  1.783078  1.773822
   H (  8)  2.150334  2.738953  1.109269  2.738953  2.606870  3.072443
   H (  9)  2.095916  3.353416  1.095738  2.641608  3.750204  3.629577
   H ( 10)  2.095916  2.641608  1.095738  3.353416  3.072443  2.401554
   H ( 11)  2.150334  2.738953  2.738953  1.109269  2.606870  3.750204
   H ( 12)  2.095916  2.641608  3.353416  1.095738  3.072443  3.629577
   H ( 13)  2.095916  3.353416  2.641608  1.095738  3.750204  4.175375
             H (  7)   H (  8)   H (  9)   H ( 10)   H ( 11)   H ( 12)
   H (  8)  3.750204
   H (  9)  4.175375  1.783078
   H ( 10)  3.629577  1.783078  1.773822
   H ( 11)  3.072443  2.606870  3.072443  3.750204
   H ( 12)  2.401554  3.750204  3.629577  4.175375  1.783078
   H ( 13)  3.629577  3.072443  2.401554  3.629577  1.783078  1.773822

 
 A cutoff of  1.0D-08 yielded   4168 shell pairs
 There are  31620 function pairs ( 37950 Cartesian)
Evaluating contribution to one-electron hamiltonian from nuclear
 Smallest overlap matrix eigenvalue = 1.56E-04
 Multipole matrices computed through 2nd order

  Scale SEOQF with 1.000000e-01/1.000000e-01/1.000000e-01

 Standard Electronic Orientation quadrupole field applied
 Nucleus-field energy     =    -0.0000000038 hartrees
 Guess from superposition of atomic densities
 Warning:  Energy on first SCF cycle will be non-variational
 An unrestricted hybrid HF-DFT SCF calculation will be
 performed using Pulay DIIS extrapolation
 Exchange:     1.0000 Hartree-Fock + 1.0000 BNL
 Correlation:  1.0000 LYP
 Using SG-1 standard quadrature grid
 SCF converges when DIIS error is below 1.0E-05
 Warning!  Inaccurate integrated density:
   Number of electrons =    35
   Numerical integral  =    33.999936214734
   Relative error      =    -2.8573251008 %
 ---------------------------------------
  Cycle       Energy         DIIS Error
 ---------------------------------------
    1    -174.8795155253      3.00E-02
    2    -173.4799679497      2.46E-03
    3    -173.5578074935      8.38E-04
    4    -173.5668967161      4.35E-04
    5    -173.5692189356      8.78E-05
    6    -173.5695503670      2.94E-05
    7    -173.5696353367      1.33E-05
    8    -173.5696705258      7.73E-06 Convergence criterion met
 ---------------------------------------
 One-Electron    Energy =  -511.7296629240
 Total Coulomb   Energy =   225.5671649280
 Alpha Exchange  Energy =    -8.6221947469
 Beta  Exchange  Energy =    -8.5482892723
 DFT   Exchange  Energy =    -7.4021159008
 DFT Correlation Energy =    -1.0977382459
 Nuclear Repu.   Energy =   138.2631656360
 Nuclear Attr.   Energy =  -683.3588452619
 Kinetic         Energy =   171.6291823379
 <S^2> = 0.7502
 SCF time:  CPU 248.73 s  wall 340.43 s
 Final Alpha MO Eigenvalues
            1           2           3           4           5           6
    1 -14.7041563 -10.6280289 -10.6269732 -10.6255632  -1.1132799  -0.8453943
            7           8           9          10          11          12
    1  -0.8444102  -0.7029803  -0.5431380  -0.5330617  -0.5328663  -0.4453499
           13          14          15          16          17          18
    1  -0.4443737  -0.4184411  -0.4046406  -0.4045141  -0.2587848   0.0360125
           19          20          21          22          23
    1   0.1320606   0.1321083   0.1529053   0.1710364   0.1712238
 Final Beta MO Eigenvalues
            1           2           3           4           5           6
    1 -14.7039321 -10.6275516 -10.6264590 -10.6250009  -1.1124435  -0.8434825
            7           8           9          10          11          12
    1  -0.8423586  -0.7002166  -0.5421605  -0.5320224  -0.5319302  -0.4446609
           13          14          15          16          17          18
    1  -0.4436723  -0.4180649  -0.4041584  -0.4040389  -0.2570392   0.1224005
           19          20          21          22
    1   0.1354584   0.1362159   0.1555777   0.1614153
 Analysis of SCF Wavefunction
 
 --------------------------------------------------------------
                    Orbital Energies (a.u.)
 --------------------------------------------------------------
 
 Alpha MOs
 -- Occupied --
-14.704 -10.628 -10.627 -10.626  -1.113  -0.845  -0.844  -0.703
 -0.543  -0.533  -0.533  -0.445  -0.444  -0.418  -0.405  -0.405
 -0.259   0.036
 -- Virtual --
  0.132   0.132   0.153   0.171   0.171   0.186   0.186   0.206
  0.212   0.261   0.263   0.264   0.271   0.281   0.283   0.297
  0.299   0.320   0.321   0.340   0.377   0.380   0.381   0.393
  0.424   0.426   0.431   0.457   0.474   0.475   0.495   0.496
  0.510   0.551   0.552   0.565   0.633   0.634   0.694   0.756
  0.756   0.784   0.787   0.787   0.826   0.827   0.828   0.834
  0.844   0.864   0.864   0.875   0.936   0.937   0.943   0.944
  0.950   0.972   0.973   1.064   1.103   1.104   1.132   1.160
  1.160   1.250   1.251   1.256   1.276   1.350   1.373   1.373
  1.428   1.438   1.439   1.472   1.478   1.478   1.508   1.516
  1.518   1.569   1.607   1.608   1.623   1.650   1.650   1.663
  1.700   1.700   1.729   1.730   1.761   1.762   1.763   1.778
  1.872   1.907   1.916   1.917   1.958   1.959   1.961   2.151
  2.151   2.184   2.378   2.378   2.813   2.815   2.918   2.918
  2.956   2.977   3.082   3.196   3.197   3.334   3.334   3.351
  3.352   3.358   3.381   3.437   3.446   3.446   3.486   3.486
  3.554   3.580   3.580   3.584   3.699   3.700   3.701   3.743
  3.763   3.763   3.812   3.820   3.829   3.829   3.878   3.878
  3.960   4.014   4.015   4.055   4.079   4.079   4.169   4.171
  4.171   4.284   4.285   4.320   4.346   4.359   4.359   4.460
  4.461   4.486   4.507   4.575   4.599   4.600   4.674   4.675
  4.704   4.713   4.713   4.719   4.736   4.737   4.856   4.856
  4.930   4.945   4.945   4.957   4.967   5.115   5.230   5.230
  5.345   5.346   5.416   5.535   5.536   5.671   5.895   5.895
  5.910   6.141   6.147   6.148   6.215   6.216   6.261   6.281
  6.432   6.432   6.515   6.515  25.152  25.197  25.199  28.811
 28.812  28.865  28.876  28.877  28.884  28.981  28.982  29.016
 36.668  38.486  39.035  39.036  41.392  41.451  41.500  41.546
 41.606  41.738  41.758  41.758  41.765  41.807  41.815  41.931
 41.937  41.948  41.971  41.976  41.997  42.027  42.063  42.080
 
 Beta MOs
 -- Occupied --
-14.704 -10.628 -10.626 -10.625  -1.112  -0.843  -0.842  -0.700
 -0.542  -0.532  -0.532  -0.445  -0.444  -0.418  -0.404  -0.404
 -0.257
 -- Virtual --
  0.122   0.135   0.136   0.156   0.161   0.162   0.175   0.175
  0.191   0.203   0.248   0.249   0.250   0.265   0.270   0.271
  0.287   0.288   0.307   0.308   0.324   0.371   0.373   0.375
  0.385   0.417   0.419   0.426   0.449   0.466   0.467   0.486
  0.488   0.501   0.547   0.548   0.559   0.628   0.628   0.690
  0.752   0.752   0.780   0.782   0.782   0.821   0.821   0.822
  0.828   0.840   0.859   0.860   0.872   0.933   0.934   0.939
  0.939   0.945   0.971   0.972   1.062   1.102   1.102   1.132
  1.159   1.159   1.250   1.250   1.254   1.275   1.349   1.371
  1.372   1.425   1.436   1.436   1.471   1.476   1.476   1.506
  1.515   1.516   1.567   1.606   1.606   1.620   1.649   1.649
  1.660   1.698   1.698   1.727   1.728   1.758   1.759   1.760
  1.777   1.871   1.905   1.914   1.915   1.957   1.957   1.960
  2.151   2.151   2.184   2.378   2.378   2.813   2.814   2.917
  2.918   2.955   2.976   3.081   3.196   3.196   3.334   3.334
  3.351   3.352   3.358   3.381   3.437   3.445   3.446   3.487
  3.487   3.554   3.580   3.580   3.584   3.699   3.700   3.700
  3.743   3.763   3.763   3.812   3.820   3.829   3.829   3.878
  3.878   3.959   4.014   4.015   4.055   4.079   4.079   4.169
  4.171   4.171   4.284   4.284   4.320   4.346   4.359   4.359
  4.460   4.461   4.486   4.507   4.575   4.599   4.599   4.674
  4.675   4.704   4.712   4.713   4.719   4.736   4.737   4.856
  4.856   4.930   4.945   4.945   4.956   4.967   5.115   5.230
  5.230   5.344   5.345   5.416   5.535   5.536   5.671   5.895
  5.895   5.910   6.141   6.147   6.148   6.215   6.216   6.262
  6.281   6.432   6.432   6.515   6.515  25.153  25.198  25.199
 28.811  28.812  28.865  28.876  28.878  28.884  28.981  28.982
 29.016  36.668  38.486  39.035  39.036  41.393  41.451  41.500
 41.546  41.606  41.738  41.758  41.758  41.766  41.807  41.816
 41.932  41.937  41.948  41.971  41.977  41.997  42.027  42.063
 42.081
 --------------------------------------------------------------
 
          Ground-State Mulliken Net Atomic Charges

     Atom                 Charge (a.u.)    Spin (a.u.)
  --------------------------------------------------------
      1 N                    -0.662576       0.629207
      2 C                     1.272229      -1.454784
      3 C                     1.421816      -1.602592
      4 C                     1.161674      -1.345439
      5 H                    -0.486458       0.548598
      6 H                    -0.461222       0.528864
      7 H                    -0.436790       0.500411
      8 H                    -0.537133       0.599765
      9 H                    -0.494427       0.559623
     10 H                    -0.506909       0.574052
     11 H                    -0.448911       0.510675
     12 H                    -0.404629       0.468748
     13 H                    -0.416664       0.482871
  --------------------------------------------------------
  Sum of atomic charges =    -1.000000
  Sum of spin   charges =     1.000000

 -----------------------------------------------------------------
                    Cartesian Multipole Moments
 -----------------------------------------------------------------
    Charge (ESU x 10^10)
                -4.8032
    Dipole Moment (Debye)
         X       0.0601      Y      -0.8296      Z      -8.3020
       Tot       8.3435
    Quadrupole Moments (Debye-Ang)
        XX     -61.8775     XY       0.1903     YY     -62.0008
        XZ       0.0992     YZ      -1.2757     ZZ     -70.9595
    Octapole Moments (Debye-Ang^2)
       XXX       4.1497    XXY      -4.4834    XYY      -2.8254
       YYY     -13.4595    XXZ     -92.8320    XYZ       0.5237
       YYZ     -93.0260    XZZ       0.4429    YZZ      -5.7656
       ZZZ    -298.4794
    Hexadecapole Moments (Debye-Ang^3)
      XXXX    -772.2586   XXXY       3.7208   XXYY    -257.8683
      XYYY       2.3574   YYYY    -775.4561   XXXZ       3.4769
      XXYZ      -6.3252   XYYZ      -1.5037   YYYZ     -18.9856
      XXZZ    -331.2610   XYZZ       2.2498   YYZZ    -332.0609
      XZZZ       1.6800   YZZZ     -21.3715   ZZZZ   -1327.2009
 -----------------------------------------------------------------
 Total job time:  348.95s(wall), 249.10s(cpu) 
 Tue Apr 12 22:47:07 2011

        *************************************************************
        *                                                           *
        *  Thank you very much for using Q-Chem.  Have a nice day.  *
        *                                                           *
        *************************************************************


0 sent ACK to 0 
now end server 0 ... 
 
**********************************************************************
Job 2 of 3 
**********************************************************************
 
Process 0 of 1 is on cl152.stfx.acenet.ca - thread support 1
initial socket setup ...start
initial socket setup ...done 
now start server 0 ... 

cmd = /usr/bin/ssh clhead /usr/local/qchem/bin/get_hostid 962197620 > /globalscratch/itamblyn/bnl/g297_b3lyp_neut_g03Large_worked/g2g71129/omega2000/qchem461/lic.dat
                  Welcome to Q-Chem
     A Quantum Leap Into The Future Of Chemistry

 Y. Shao, L. Fusti-Molnar, Y. Jung, J. Kussmann, C. Ochsenfeld,
 S. T. Brown, A. T. B. Gilbert, L. V. Slipchenko,S. V. Levchenko,
 D. P. O'Neill, R. A. DiStasio Jr., R. C. Lochan, T. Wang,
 G. J. O. Beran, N. A. Besley, J. M. Herbert, C. Y. Lin,
 T. Van Voorhis, S. H. Chien, A. Sodt, R. P. Steele, 
 V. A. Rassolov, P. E. Maslen, P. P. Korambath, R. D. Adamson,
 B. Austin, J. Baker, E. F. C. Byrd, H. Dachsel, R. J. Doerksen,
 A. Dreuw, B. D. Dunietz, A. D. Dutoi, T. R. Furlani,
 S. R. Gwaltney, A. Heyden, S. Hirata, C.-P. Hsu, G. Kedziora,
 R. Z. Khaliullin, P. Klunzinger, A. M. Lee, M. S. Lee, W. Liang,
 I. Lotan, N. Nair, B. Peters, E. I. Proynov, P. A. Pieniazek, 
 Y. M. Rhee, J. Ritchie, E. Rosta, C. D. Sherrill, 
 A. C. Simmonett, J. E. Subotnik, H. L. Woodcock III,
 W. Zhang, A. T. Bell, A. K. Chakraborty, D. M. Chipman,
 F. J. Keil, A. Warshel, W. J. Hehre, H. F. Schaefer III,
 J. Kong, A. I. Krylov, P. M. W. Gill, M. Head-Gordon,
 Q-Chem, Version 3.1, Q-Chem, Inc., Pittsburgh, PA (2007).

 Additional authors for Version 3.1: 
 Z. Gan, Y. Zhao, N. E. Schultz, D. Truhlar, E. Epifanovsky and M. Oana.

 Additional authors for Version 3.2: 
 R. Baer, B. R. Brooks, D. Casanova, J.-D. Chai, C.-L. Cheng, 
 C. Cramer, D. Crittenden, A. Ghysels, G. Hawkins, E. G. Hohenstein, 
 C. Kelley, W. Kurlancheek, D. Liotard, E. Livshits, P. Manohar, 
 A. Marenich, D. Neuhauser, R. Olson, M. A. Rohrdanz, K. S. Thanthiriwatte, 
 A. J. W. Thom, V. Vanovschi, C. F. Williams, Q. Wu and Z.-Q. You. 


 Intel X86 Linux Version

 Q-chem begins on Tue Apr 12 22:47:13 2011  

 Parallel job on  1  processors
Processing $rem in /usr/local/qchem/config/preferences.

theFileMan(): MAXOPENFILES=974 MAX_SUB_FILE_NUM=16
Maximum size of a physical file is 2.0 GB, maximum size of a tmp-file is 32.0 GB


--------------------------------------------------------------
User input:
--------------------------------------------------------------

$molecule
0,1
X
N,1,1.
C,2,rcn,1,a1
C,2,rcn,1,a1,3,120.,0
C,2,rcn,1,a1,3,-120.,0
H,3,rha,2,a2,1,180.,0
H,3,rhb,2,a3,1,t1,0
H,3,rhb,2,a3,1,-t1,0
H,4,rha,2,a2,1,180.,0
H,4,rhb,2,a3,1,t1,0
H,4,rhb,2,a3,1,-t1,0
H,5,rha,2,a2,1,180.,0
H,5,rhb,2,a3,1,t1,0
H,5,rhb,2,a3,1,-t1,0

rcn=1.45475726
rha=1.10926927
rhb=1.09573835
a1=107.30072668
a2=113.31044557
a3=109.72330209
t1=59.30128084

$end

$comment
neutral
$end

$xc_functional
   X HF 1.0
   X BNL 1.0
   C LYP 1.0
$end

$rem
SYMMETRY_DECOMPOSITION	0
exchange 		general
BASIS                   g3large
omega			2000
separate_jk		true
mem_static              760
max_scf_cycles          200
scf_final_print         1
sym_ignore              true
$end

--------------------------------------------------------------
 Writing REM_CC_EA           13
 ----------------------------------------------------
       Standard Nuclear Orientation (Angstroms)
    I     Atom         X            Y            Z
 ----------------------------------------------------
    1      N       0.000000     0.000000     1.000000
    2      C       1.388940     0.000000     1.432626
    3      C      -0.694470     1.202857     1.432626
    4      C      -0.694470    -1.202857     1.432626
    5      H       1.505077     0.000000     2.535799
    6      H       1.898596     0.886911     1.039838
    7      H       1.898596    -0.886911     1.039838
    8      H      -0.752539     1.303435     2.535799
    9      H      -1.717385     1.200777     1.039838
   10      H      -0.181211     2.087688     1.039838
   11      H      -0.752539    -1.303435     2.535799
   12      H      -0.181211    -2.087688     1.039838
   13      H      -1.717385    -1.200777     1.039838
 ----------------------------------------------------
 Nuclear Repulsion Energy =   138.2631656399 hartrees
 There are       17 alpha and       17 beta electrons
 Requested basis set is G3large
 There are 94 shells and 258 basis functions

Total QAlloc Memory Limit   2000 MB
Mega-Array Size       743 MB
MEM_STATIC part       760 MB

                       Distance Matrix (Angstroms)
             N (  1)   C (  2)   C (  3)   C (  4)   H (  5)   H (  6)
   C (  2)  1.454757
   C (  3)  1.454757  2.405714
   C (  4)  1.454757  2.405714  2.405714
   H (  5)  2.150334  1.109269  2.738953  2.738953
   H (  6)  2.095916  1.095738  2.641608  3.353416  1.783078
   H (  7)  2.095916  1.095738  3.353416  2.641608  1.783078  1.773822
   H (  8)  2.150334  2.738953  1.109269  2.738953  2.606870  3.072443
   H (  9)  2.095916  3.353416  1.095738  2.641608  3.750204  3.629577
   H ( 10)  2.095916  2.641608  1.095738  3.353416  3.072443  2.401554
   H ( 11)  2.150334  2.738953  2.738953  1.109269  2.606870  3.750204
   H ( 12)  2.095916  2.641608  3.353416  1.095738  3.072443  3.629577
   H ( 13)  2.095916  3.353416  2.641608  1.095738  3.750204  4.175375
             H (  7)   H (  8)   H (  9)   H ( 10)   H ( 11)   H ( 12)
   H (  8)  3.750204
   H (  9)  4.175375  1.783078
   H ( 10)  3.629577  1.783078  1.773822
   H ( 11)  3.072443  2.606870  3.072443  3.750204
   H ( 12)  2.401554  3.750204  3.629577  4.175375  1.783078
   H ( 13)  3.629577  3.072443  2.401554  3.629577  1.783078  1.773822

 
 A cutoff of  1.0D-08 yielded   4168 shell pairs
 There are  31620 function pairs ( 37950 Cartesian)
Evaluating contribution to one-electron hamiltonian from nuclear
 Smallest overlap matrix eigenvalue = 1.56E-04
 Multipole matrices computed through 2nd order

  Scale SEOQF with 1.000000e-01/1.000000e-01/1.000000e-01

 Standard Electronic Orientation quadrupole field applied
 Nucleus-field energy     =    -0.0000000038 hartrees
 Guess from superposition of atomic densities
 Warning:  Energy on first SCF cycle will be non-variational
 A restricted hybrid HF-DFT SCF calculation will be
 performed using Pulay DIIS extrapolation
 Exchange:     1.0000 Hartree-Fock + 1.0000 BNL
 Correlation:  1.0000 LYP
 Using SG-1 standard quadrature grid
 SCF converges when DIIS error is below 1.0E-05
 ---------------------------------------
  Cycle       Energy         DIIS Error
 ---------------------------------------
    1    -174.8795155253      3.00E-02
    2    -173.5318335551      2.43E-03
    3    -173.5981177941      7.30E-04
    4    -173.6038973613      3.88E-04
    5    -173.6051598835      7.45E-05
    6    -173.6052451832      1.71E-05
    7    -173.6052513407      4.08E-06 Convergence criterion met
 ---------------------------------------
 One-Electron    Energy =  -507.4647701131
 Total Coulomb   Energy =   221.2019114861
 Alpha Exchange  Energy =    -8.5563344851
 Beta  Exchange  Energy =    -8.5563344851
 DFT   Exchange  Energy =    -7.4009558885
 DFT Correlation Energy =    -1.0919334910
 Nuclear Repu.   Energy =   138.2631656360
 Nuclear Attr.   Energy =  -679.0269009411
 Kinetic         Energy =   171.5621308279
 SCF time:  CPU 166.53 s  wall 251.19 s
 Final Alpha MO Eigenvalues
            1           2           3           4           5           6
    1 -14.8298822 -10.7540320 -10.7539680 -10.7539380  -1.2389243  -0.9700031
            7           8           9          10          11          12
    1  -0.9699927  -0.8276788  -0.6691809  -0.6587733  -0.6587707  -0.5717048
           13          14          15          16          17          18
    1  -0.5716960  -0.5447398  -0.5304841  -0.5304740  -0.3835126   0.0333343
           19          20          21          22
    1   0.0509057   0.0509193   0.0634553   0.0772919
 Analysis of SCF Wavefunction
 
 --------------------------------------------------------------
                    Orbital Energies (a.u.)
 --------------------------------------------------------------
 
 Alpha MOs
 -- Occupied --
-14.830 -10.754 -10.754 -10.754  -1.239  -0.970  -0.970  -0.828
 -0.669  -0.659  -0.659  -0.572  -0.572  -0.545  -0.530  -0.530
 -0.384
 -- Virtual --
  0.033   0.051   0.051   0.063   0.077   0.077   0.089   0.089
  0.105   0.111   0.147   0.156   0.156   0.167   0.167   0.167
  0.191   0.191   0.208   0.208   0.226   0.255   0.262   0.262
  0.274   0.303   0.303   0.314   0.337   0.356   0.356   0.375
  0.375   0.391   0.429   0.429   0.440   0.510   0.510   0.570
  0.633   0.633   0.660   0.664   0.664   0.701   0.704   0.704
  0.710   0.720   0.740   0.740   0.749   0.812   0.812   0.819
  0.819   0.825   0.846   0.846   0.939   0.978   0.978   1.007
  1.035   1.035   1.124   1.124   1.133   1.150   1.224   1.248
  1.248   1.301   1.313   1.313   1.347   1.352   1.352   1.381
  1.391   1.391   1.443   1.481   1.481   1.498   1.524   1.524
  1.538   1.574   1.574   1.604   1.604   1.634   1.636   1.636
  1.651   1.746   1.782   1.791   1.791   1.833   1.833   1.834
  2.025   2.025   2.059   2.253   2.253   2.688   2.688   2.792
  2.792   2.830   2.851   2.955   3.070   3.070   3.207   3.207
  3.225   3.225   3.232   3.254   3.311   3.320   3.320   3.360
  3.360   3.427   3.453   3.453   3.457   3.573   3.574   3.574
  3.617   3.637   3.637   3.686   3.693   3.703   3.703   3.751
  3.751   3.834   3.889   3.889   3.929   3.953   3.953   4.042
  4.045   4.045   4.158   4.158   4.194   4.220   4.233   4.233
  4.334   4.334   4.359   4.381   4.449   4.473   4.473   4.548
  4.548   4.577   4.586   4.586   4.593   4.610   4.610   4.730
  4.730   4.804   4.818   4.818   4.830   4.840   4.988   5.104
  5.104   5.219   5.219   5.290   5.409   5.409   5.545   5.769
  5.769   5.784   6.014   6.021   6.021   6.089   6.089   6.136
  6.155   6.306   6.306   6.389   6.389  25.025  25.071  25.071
 28.684  28.684  28.738  28.749  28.749  28.756  28.855  28.855
 28.889  36.543  38.360  38.910  38.911  41.267  41.325  41.374
 41.420  41.480  41.611  41.631  41.631  41.638  41.680  41.688
 41.804  41.810  41.821  41.844  41.849  41.870  41.900  41.936
 41.953
 --------------------------------------------------------------
 
          Ground-State Mulliken Net Atomic Charges

     Atom                 Charge (a.u.)
  ----------------------------------------
      1 N                    -0.058936
      2 C                    -0.189040
      3 C                    -0.189032
      4 C                    -0.189177
      5 H                     0.062014
      6 H                     0.073331
      7 H                     0.073319
      8 H                     0.062080
      9 H                     0.073372
     10 H                     0.073366
     11 H                     0.062030
     12 H                     0.073371
     13 H                     0.073301
  ----------------------------------------
  Sum of atomic charges =     0.000000

 -----------------------------------------------------------------
                    Cartesian Multipole Moments
 -----------------------------------------------------------------
    Charge (ESU x 10^10)
                 0.0000
    Dipole Moment (Debye)
         X       0.0000      Y       0.0009      Z       0.7944
       Tot       0.7944
    Quadrupole Moments (Debye-Ang)
        XX     -25.9363     XY      -0.0012     YY     -25.9361
        XZ       0.0000     YZ       0.0016     ZZ     -27.2154
    Octapole Moments (Debye-Ang^2)
       XXX      -1.0216    XXY       0.0012    XYY       1.0209
       YYY       0.0036    XXZ     -37.9029    XYZ      -0.0018
       YYZ     -37.9026    XZZ      -0.0004    YZZ       0.0034
       ZZZ    -114.1747
    Hexadecapole Moments (Debye-Ang^3)
      XXXX    -189.2937   XXXY      -0.0041   XXYY     -63.0979
      XYYY      -0.0043   YYYY    -189.2920   XXXZ       0.1202
      XXYZ       0.0020   XYYZ      -0.1216   YYYZ       0.0062
      XXZZ     -97.5507   XYZZ      -0.0036   YYZZ     -97.5496
      XZZZ      -0.0016   YZZZ       0.0087   ZZZZ    -370.4983
 -----------------------------------------------------------------
 Total job time:  263.03s(wall), 166.88s(cpu) 
 Tue Apr 12 22:51:36 2011

        *************************************************************
        *                                                           *
        *  Thank you very much for using Q-Chem.  Have a nice day.  *
        *                                                           *
        *************************************************************


0 sent ACK to 0 
now end server 0 ... 
 
**********************************************************************
Job 3 of 3 
**********************************************************************
 
Process 0 of 1 is on cl152.stfx.acenet.ca - thread support 1
initial socket setup ...start
initial socket setup ...done 
now start server 0 ... 

cmd = /usr/bin/ssh clhead /usr/local/qchem/bin/get_hostid 2142164045 > /globalscratch/itamblyn/bnl/g297_b3lyp_neut_g03Large_worked/g2g71129/omega2000/qchem461/lic.dat
                  Welcome to Q-Chem
     A Quantum Leap Into The Future Of Chemistry

 Y. Shao, L. Fusti-Molnar, Y. Jung, J. Kussmann, C. Ochsenfeld,
 S. T. Brown, A. T. B. Gilbert, L. V. Slipchenko,S. V. Levchenko,
 D. P. O'Neill, R. A. DiStasio Jr., R. C. Lochan, T. Wang,
 G. J. O. Beran, N. A. Besley, J. M. Herbert, C. Y. Lin,
 T. Van Voorhis, S. H. Chien, A. Sodt, R. P. Steele, 
 V. A. Rassolov, P. E. Maslen, P. P. Korambath, R. D. Adamson,
 B. Austin, J. Baker, E. F. C. Byrd, H. Dachsel, R. J. Doerksen,
 A. Dreuw, B. D. Dunietz, A. D. Dutoi, T. R. Furlani,
 S. R. Gwaltney, A. Heyden, S. Hirata, C.-P. Hsu, G. Kedziora,
 R. Z. Khaliullin, P. Klunzinger, A. M. Lee, M. S. Lee, W. Liang,
 I. Lotan, N. Nair, B. Peters, E. I. Proynov, P. A. Pieniazek, 
 Y. M. Rhee, J. Ritchie, E. Rosta, C. D. Sherrill, 
 A. C. Simmonett, J. E. Subotnik, H. L. Woodcock III,
 W. Zhang, A. T. Bell, A. K. Chakraborty, D. M. Chipman,
 F. J. Keil, A. Warshel, W. J. Hehre, H. F. Schaefer III,
 J. Kong, A. I. Krylov, P. M. W. Gill, M. Head-Gordon,
 Q-Chem, Version 3.1, Q-Chem, Inc., Pittsburgh, PA (2007).

 Additional authors for Version 3.1: 
 Z. Gan, Y. Zhao, N. E. Schultz, D. Truhlar, E. Epifanovsky and M. Oana.

 Additional authors for Version 3.2: 
 R. Baer, B. R. Brooks, D. Casanova, J.-D. Chai, C.-L. Cheng, 
 C. Cramer, D. Crittenden, A. Ghysels, G. Hawkins, E. G. Hohenstein, 
 C. Kelley, W. Kurlancheek, D. Liotard, E. Livshits, P. Manohar, 
 A. Marenich, D. Neuhauser, R. Olson, M. A. Rohrdanz, K. S. Thanthiriwatte, 
 A. J. W. Thom, V. Vanovschi, C. F. Williams, Q. Wu and Z.-Q. You. 


 Intel X86 Linux Version

 Q-chem begins on Tue Apr 12 22:51:39 2011  

 Parallel job on  1  processors
Processing $rem in /usr/local/qchem/config/preferences.

theFileMan(): MAXOPENFILES=974 MAX_SUB_FILE_NUM=16
Maximum size of a physical file is 2.0 GB, maximum size of a tmp-file is 32.0 GB


--------------------------------------------------------------
User input:
--------------------------------------------------------------

$molecule
1,2
X
N,1,1.
C,2,rcn,1,a1
C,2,rcn,1,a1,3,120.,0
C,2,rcn,1,a1,3,-120.,0
H,3,rha,2,a2,1,180.,0
H,3,rhb,2,a3,1,t1,0
H,3,rhb,2,a3,1,-t1,0
H,4,rha,2,a2,1,180.,0
H,4,rhb,2,a3,1,t1,0
H,4,rhb,2,a3,1,-t1,0
H,5,rha,2,a2,1,180.,0
H,5,rhb,2,a3,1,t1,0
H,5,rhb,2,a3,1,-t1,0

rcn=1.45475726
rha=1.10926927
rhb=1.09573835
a1=107.30072668
a2=113.31044557
a3=109.72330209
t1=59.30128084

$end

$comment
positive
$end

$xc_functional
   X HF 1.0
   X BNL 1.0
   C LYP 1.0
$end

$rem
SYMMETRY_DECOMPOSITION	0
exchange 		general
BASIS                   g3large
omega			2000
separate_jk		true
mem_static              760
max_scf_cycles          200
scf_final_print         1
sym_ignore              true
$end

--------------------------------------------------------------
 Writing REM_CC_EA           13
 ----------------------------------------------------
       Standard Nuclear Orientation (Angstroms)
    I     Atom         X            Y            Z
 ----------------------------------------------------
    1      N       0.000000     0.000000     1.000000
    2      C       1.388940     0.000000     1.432626
    3      C      -0.694470     1.202857     1.432626
    4      C      -0.694470    -1.202857     1.432626
    5      H       1.505077     0.000000     2.535799
    6      H       1.898596     0.886911     1.039838
    7      H       1.898596    -0.886911     1.039838
    8      H      -0.752539     1.303435     2.535799
    9      H      -1.717385     1.200777     1.039838
   10      H      -0.181211     2.087688     1.039838
   11      H      -0.752539    -1.303435     2.535799
   12      H      -0.181211    -2.087688     1.039838
   13      H      -1.717385    -1.200777     1.039838
 ----------------------------------------------------
 Nuclear Repulsion Energy =   138.2631656399 hartrees
 There are       17 alpha and       16 beta electrons
 Requested basis set is G3large
 There are 94 shells and 258 basis functions

Total QAlloc Memory Limit   2000 MB
Mega-Array Size       743 MB
MEM_STATIC part       760 MB

                       Distance Matrix (Angstroms)
             N (  1)   C (  2)   C (  3)   C (  4)   H (  5)   H (  6)
   C (  2)  1.454757
   C (  3)  1.454757  2.405714
   C (  4)  1.454757  2.405714  2.405714
   H (  5)  2.150334  1.109269  2.738953  2.738953
   H (  6)  2.095916  1.095738  2.641608  3.353416  1.783078
   H (  7)  2.095916  1.095738  3.353416  2.641608  1.783078  1.773822
   H (  8)  2.150334  2.738953  1.109269  2.738953  2.606870  3.072443
   H (  9)  2.095916  3.353416  1.095738  2.641608  3.750204  3.629577
   H ( 10)  2.095916  2.641608  1.095738  3.353416  3.072443  2.401554
   H ( 11)  2.150334  2.738953  2.738953  1.109269  2.606870  3.750204
   H ( 12)  2.095916  2.641608  3.353416  1.095738  3.072443  3.629577
   H ( 13)  2.095916  3.353416  2.641608  1.095738  3.750204  4.175375
             H (  7)   H (  8)   H (  9)   H ( 10)   H ( 11)   H ( 12)
   H (  8)  3.750204
   H (  9)  4.175375  1.783078
   H ( 10)  3.629577  1.783078  1.773822
   H ( 11)  3.072443  2.606870  3.072443  3.750204
   H ( 12)  2.401554  3.750204  3.629577  4.175375  1.783078
   H ( 13)  3.629577  3.072443  2.401554  3.629577  1.783078  1.773822

 
 A cutoff of  1.0D-08 yielded   4168 shell pairs
 There are  31620 function pairs ( 37950 Cartesian)
Evaluating contribution to one-electron hamiltonian from nuclear
 Smallest overlap matrix eigenvalue = 1.56E-04
 Multipole matrices computed through 2nd order

  Scale SEOQF with 1.000000e-01/1.000000e-01/1.000000e-01

 Standard Electronic Orientation quadrupole field applied
 Nucleus-field energy     =    -0.0000000038 hartrees
 Guess from superposition of atomic densities
 Warning:  Energy on first SCF cycle will be non-variational
 An unrestricted hybrid HF-DFT SCF calculation will be
 performed using Pulay DIIS extrapolation
 Exchange:     1.0000 Hartree-Fock + 1.0000 BNL
 Correlation:  1.0000 LYP
 Using SG-1 standard quadrature grid
 SCF converges when DIIS error is below 1.0E-05
 Warning!  Inaccurate integrated density:
   Number of electrons =    33
   Numerical integral  =    33.999936214734
   Relative error      =     3.0301097416 %
 ---------------------------------------
  Cycle       Energy         DIIS Error
 ---------------------------------------
    1    -174.8795155253      3.00E-02
    2    -173.1679621035      3.06E-03
    3    -173.2759093560      1.41E-03
    4    -173.2965595786      5.16E-04
    5    -173.3014980560      1.22E-04
    6    -173.3021901894      5.74E-05
    7    -173.3023794872      1.57E-05
    8    -173.3024120622      3.98E-06 Convergence criterion met
 ---------------------------------------
 One-Electron    Energy =  -498.8340298374
 Total Coulomb   Energy =   212.5704110046
 Alpha Exchange  Energy =    -8.6817815118
 Beta  Exchange  Energy =    -8.1677719537
 DFT   Exchange  Energy =    -7.3972223219
 DFT Correlation Energy =    -1.0551830781
 Nuclear Repu.   Energy =   138.2631656360
 Nuclear Attr.   Energy =  -670.1613583806
 Kinetic         Energy =   171.3273285432
 <S^2> = 0.7604
 SCF time:  CPU 242.93 s  wall 271.60 s
 Final Alpha MO Eigenvalues
            1           2           3           4           5           6
    1 -15.2106053 -10.9872276 -10.9872096 -10.9871820  -1.5684693  -1.2233713
            7           8           9          10          11          12
    1  -1.2233581  -1.0883850  -0.9673478  -0.9232321  -0.9232151  -0.8106891
           13          14          15          16          17          18
    1  -0.8106847  -0.7768630  -0.7768388  -0.7697020  -0.7331627  -0.1034674
           19          20          21          22
    1  -0.0740327  -0.0740224  -0.0711775  -0.0520011
 Final Beta MO Eigenvalues
            1           2           3           4           5           6
    1 -15.1849199 -10.9881306 -10.9881251 -10.9880896  -1.5000255  -1.2173508
            7           8           9          10          11          12
    1  -1.2173318  -1.0470429  -0.9082431  -0.9082365  -0.8721881  -0.7972509
           13          14          15          16          17          18
    1  -0.7972345  -0.7691651  -0.7691469  -0.7678817  -0.2347526  -0.1009134
           19          20          21
    1  -0.0739423  -0.0739321  -0.0718884
 Analysis of SCF Wavefunction
 
 --------------------------------------------------------------
                    Orbital Energies (a.u.)
 --------------------------------------------------------------
 
 Alpha MOs
 -- Occupied --
-15.211 -10.987 -10.987 -10.987  -1.568  -1.223  -1.223  -1.088
 -0.967  -0.923  -0.923  -0.811  -0.811  -0.777  -0.777  -0.770
 -0.733
 -- Virtual --
 -0.103  -0.074  -0.074  -0.071  -0.052  -0.048  -0.047  -0.033
 -0.033  -0.011   0.000   0.014   0.014   0.015   0.015   0.032
  0.053   0.054   0.069   0.069   0.077   0.094   0.094   0.094
  0.094   0.112   0.124   0.124   0.166   0.171   0.171   0.185
  0.185   0.209   0.218   0.218   0.237   0.318   0.318   0.368
  0.435   0.435   0.467   0.474   0.474   0.501   0.506   0.506
  0.510   0.520   0.520   0.530   0.530   0.582   0.582   0.623
  0.623   0.627   0.627   0.628   0.712   0.755   0.755   0.797
  0.814   0.814   0.848   0.902   0.902   0.946   1.000   1.028
  1.028   1.091   1.099   1.099   1.105   1.133   1.133   1.169
  1.181   1.181   1.205   1.260   1.260   1.276   1.291   1.291
  1.334   1.356   1.356   1.381   1.382   1.407   1.425   1.425
  1.434   1.492   1.576   1.576   1.576   1.612   1.612   1.614
  1.752   1.752   1.777   1.972   1.972   2.462   2.462   2.564
  2.564   2.591   2.622   2.725   2.833   2.833   2.952   2.952
  2.983   2.993   2.993   3.026   3.049   3.079   3.079   3.129
  3.129   3.179   3.207   3.207   3.224   3.329   3.335   3.335
  3.392   3.403   3.403   3.435   3.435   3.447   3.458   3.510
  3.510   3.579   3.639   3.639   3.695   3.715   3.715   3.763
  3.788   3.788   3.924   3.924   3.941   3.965   3.997   3.997
  4.091   4.091   4.112   4.130   4.196   4.223   4.223   4.320
  4.320   4.334   4.343   4.344   4.344   4.379   4.379   4.493
  4.493   4.572   4.574   4.581   4.581   4.612   4.732   4.835
  4.835   4.968   4.968   5.000   5.118   5.118   5.272   5.428
  5.429   5.437   5.774   5.780   5.780   5.836   5.844   5.844
  5.916   6.003   6.003   6.073   6.073  24.791  24.836  24.836
 28.449  28.449  28.505  28.517  28.517  28.525  28.622  28.622
 28.654  36.167  37.966  38.545  38.546  40.870  40.953  40.989
 41.040  41.113  41.377  41.397  41.398  41.405  41.445  41.453
 41.571  41.576  41.587  41.612  41.617  41.634  41.667  41.700
 41.717
 
 Beta MOs
 -- Occupied --
-15.185 -10.988 -10.988 -10.988  -1.500  -1.217  -1.217  -1.047
 -0.908  -0.908  -0.872  -0.797  -0.797  -0.769  -0.769  -0.768
 -- Virtual --
 -0.235  -0.101  -0.074  -0.074  -0.072  -0.048  -0.048  -0.048
 -0.034  -0.034  -0.007   0.000   0.015   0.015   0.015   0.015
  0.034   0.055   0.055   0.069   0.069   0.077   0.093   0.093
  0.094   0.105   0.124   0.126   0.126   0.166   0.171   0.171
  0.191   0.191   0.223   0.223   0.223   0.246   0.319   0.319
  0.375   0.438   0.438   0.468   0.474   0.474   0.503   0.508
  0.508   0.519   0.520   0.533   0.533   0.550   0.589   0.589
  0.626   0.626   0.630   0.631   0.632   0.716   0.759   0.759
  0.797   0.817   0.817   0.881   0.907   0.907   0.947   1.001
  1.031   1.031   1.092   1.100   1.100   1.121   1.134   1.134
  1.172   1.183   1.183   1.223   1.262   1.262   1.286   1.295
  1.295   1.334   1.359   1.359   1.385   1.385   1.410   1.425
  1.425   1.434   1.499   1.576   1.577   1.577   1.614   1.614
  1.614   1.772   1.772   1.804   1.984   1.984   2.465   2.465
  2.567   2.567   2.600   2.623   2.730   2.837   2.837   2.957
  2.957   2.984   2.995   2.995   3.027   3.056   3.079   3.079
  3.130   3.130   3.181   3.212   3.212   3.227   3.333   3.337
  3.337   3.392   3.404   3.404   3.442   3.442   3.453   3.457
  3.513   3.513   3.589   3.642   3.642   3.694   3.718   3.718
  3.782   3.794   3.794   3.926   3.926   3.948   3.970   3.999
  3.999   4.094   4.094   4.125   4.131   4.205   4.229   4.229
  4.323   4.323   4.344   4.347   4.349   4.349   4.383   4.383
  4.496   4.496   4.575   4.583   4.585   4.585   4.614   4.740
  4.843   4.843   4.973   4.973   5.013   5.129   5.129   5.276
  5.463   5.463   5.479   5.779   5.784   5.784   5.849   5.849
  5.849   5.917   6.016   6.016   6.087   6.087  24.790  24.836
 24.836  28.448  28.448  28.504  28.516  28.516  28.524  28.622
 28.622  28.653  36.188  37.996  38.557  38.557  40.908  40.972
 41.018  41.065  41.129  41.376  41.397  41.397  41.404  41.444
 41.452  41.570  41.576  41.586  41.611  41.616  41.634  41.666
 41.700  41.716
 --------------------------------------------------------------
 
          Ground-State Mulliken Net Atomic Charges

     Atom                 Charge (a.u.)    Spin (a.u.)
  --------------------------------------------------------
      1 N                     0.237921       0.891023
      2 C                    -0.168595      -0.044548
      3 C                    -0.168665      -0.043958
      4 C                    -0.168763      -0.045108
      5 H                     0.160159       0.064609
      6 H                     0.131218       0.008105
      7 H                     0.131267       0.008129
      8 H                     0.160178       0.064418
      9 H                     0.131233       0.007988
     10 H                     0.131264       0.008012
     11 H                     0.160197       0.064901
     12 H                     0.131302       0.008242
     13 H                     0.131281       0.008186
  --------------------------------------------------------
  Sum of atomic charges =     1.000000
  Sum of spin   charges =     1.000000

 -----------------------------------------------------------------
                    Cartesian Multipole Moments
 -----------------------------------------------------------------
    Charge (ESU x 10^10)
                 4.8032
    Dipole Moment (Debye)
         X      -0.0001      Y      -0.0005      Z       7.1356
       Tot       7.1356
    Quadrupole Moments (Debye-Ang)
        XX     -17.3830     XY      -0.0004     YY     -17.3824
        XZ      -0.0006     YZ       0.0001     ZZ     -11.9369
    Octapole Moments (Debye-Ang^2)
       XXX       2.6790    XXY      -0.0009    XYY      -2.6795
       YYY      -0.0026    XXZ     -24.5525    XYZ      -0.0005
       YYZ     -24.5513    XZZ      -0.0016    YZZ       0.0012
       ZZZ     -73.0004
    Hexadecapole Moments (Debye-Ang^3)
      XXXX    -145.0505   XXXY      -0.0008   XXYY     -48.3499
      XYYY      -0.0008   YYYY    -145.0472   XXXZ       7.2171
      XXYZ      -0.0003   XYYZ      -7.2194   YYYZ      -0.0008
      XXZZ     -67.4178   XYZZ      -0.0012   YYZZ     -67.4148
      XZZZ      -0.0044   YZZZ       0.0042   ZZZZ    -247.9915
 -----------------------------------------------------------------
 Total job time:  276.14s(wall), 243.28s(cpu) 
 Tue Apr 12 22:56:15 2011

        *************************************************************
        *                                                           *
        *  Thank you very much for using Q-Chem.  Have a nice day.  *
        *                                                           *
        *************************************************************


0 sent ACK to 0 
now end server 0 ... 
