Process 0 of 1 is on cl134 - thread support 1
initial socket setup ...start
initial socket setup ...done 
now start server 0 ... 

cmd = /usr/bin/ssh clhead /usr/local/qchem/bin/get_hostid 1710944126 > /tmp/1591942.1.medium.q/qchem3439/lic.dat

cmd = /usr/bin/ssh clhead /usr/local/qchem/bin/get_hostid 1710944126 > /tmp/1591942.1.medium.q/qchem3439/lic.dat

cmd = /usr/bin/ssh clhead /usr/local/qchem/bin/get_hostid 1710944126 > /tmp/1591942.1.medium.q/qchem3439/lic.dat

cmd = /usr/bin/ssh clhead /usr/local/qchem/bin/get_hostid 1710944126 > /tmp/1591942.1.medium.q/qchem3439/lic.dat

cmd = /usr/bin/ssh clhead /usr/local/qchem/bin/get_hostid 1710944126 > /tmp/1591942.1.medium.q/qchem3439/lic.dat
                  Welcome to Q-Chem
     A Quantum Leap Into The Future Of Chemistry

 Y. Shao, L. Fusti-Molnar, Y. Jung, J. Kussmann, C. Ochsenfeld,
 S. T. Brown, A. T. B. Gilbert, L. V. Slipchenko,S. V. Levchenko,
 D. P. O'Neill, R. A. DiStasio Jr., R. C. Lochan, T. Wang,
 G. J. O. Beran, N. A. Besley, J. M. Herbert, C. Y. Lin,
 T. Van Voorhis, S. H. Chien, A. Sodt, R. P. Steele, 
 V. A. Rassolov, P. E. Maslen, P. P. Korambath, R. D. Adamson,
 B. Austin, J. Baker, E. F. C. Byrd, H. Dachsel, R. J. Doerksen,
 A. Dreuw, B. D. Dunietz, A. D. Dutoi, T. R. Furlani,
 S. R. Gwaltney, A. Heyden, S. Hirata, C.-P. Hsu, G. Kedziora,
 R. Z. Khaliullin, P. Klunzinger, A. M. Lee, M. S. Lee, W. Liang,
 I. Lotan, N. Nair, B. Peters, E. I. Proynov, P. A. Pieniazek, 
 Y. M. Rhee, J. Ritchie, E. Rosta, C. D. Sherrill, 
 A. C. Simmonett, J. E. Subotnik, H. L. Woodcock III,
 W. Zhang, A. T. Bell, A. K. Chakraborty, D. M. Chipman,
 F. J. Keil, A. Warshel, W. J. Hehre, H. F. Schaefer III,
 J. Kong, A. I. Krylov, P. M. W. Gill, M. Head-Gordon,
 Q-Chem, Version 3.1, Q-Chem, Inc., Pittsburgh, PA (2007).

 Additional authors for Version 3.1: 
 Z. Gan, Y. Zhao, N. E. Schultz, D. Truhlar, E. Epifanovsky and M. Oana.

 Additional authors for Version 3.2: 
 R. Baer, B. R. Brooks, D. Casanova, J.-D. Chai, C.-L. Cheng, 
 C. Cramer, D. Crittenden, A. Ghysels, G. Hawkins, E. G. Hohenstein, 
 C. Kelley, W. Kurlancheek, D. Liotard, E. Livshits, P. Manohar, 
 A. Marenich, D. Neuhauser, R. Olson, M. A. Rohrdanz, K. S. Thanthiriwatte, 
 A. J. W. Thom, V. Vanovschi, C. F. Williams, Q. Wu and Z.-Q. You. 


 Intel X86 Linux Version

 Q-chem begins on Tue Mar 18 15:06:57 2014  

 Parallel job on  1  processors
Processing $rem in /usr/local/qchem/config/preferences.

theFileMan(): MAXOPENFILES=974 MAX_SUB_FILE_NUM=16
Maximum size of a physical file is 2.0 GB, maximum size of a tmp-file is 32.0 GB


--------------------------------------------------------------
User input:
--------------------------------------------------------------

$molecule
-1,2
C         -0.00006        0.00015        0.99980
C          1.26532        0.76004        0.98857
C          1.26516       -0.76001        0.98799
C         -1.27231       -0.00021        0.25137
C         -1.25820        0.00027        1.77153
H          1.57504        1.26150        1.90176
H          1.55860        1.26345        0.07108
H          1.57486       -1.26190        1.90095
H          1.55826       -1.26313        0.07027
H         -1.57794       -0.91602       -0.24774
H         -1.57802        0.91521       -0.24839
H         -1.55535       -0.91513        2.27650
H         -1.55537        0.91578        2.27629
$end

$comment
negative
$end

$xc_functional
C PBE   1.00
X wPBE  1.00
$end

$rem
SYMMETRY_DECOMPOSITION	0
exchange 		general
LRC_DFT                 true
BASIS                   g3large
omega			200
mem_static              760
max_scf_cycles          200
scf_final_print         1
sym_ignore              true
$end

--------------------------------------------------------------
 Writing REM_CC_EA           13
 ----------------------------------------------------
       Standard Nuclear Orientation (Angstroms)
    I     Atom         X            Y            Z
 ----------------------------------------------------
    1      C      -0.000060     0.000150     0.999800
    2      C       1.265320     0.760040     0.988570
    3      C       1.265160    -0.760010     0.987990
    4      C      -1.272310    -0.000210     0.251370
    5      C      -1.258200     0.000270     1.771530
    6      H       1.575040     1.261500     1.901760
    7      H       1.558600     1.263450     0.071080
    8      H       1.574860    -1.261900     1.900950
    9      H       1.558260    -1.263130     0.070270
   10      H      -1.577940    -0.916020    -0.247740
   11      H      -1.578020     0.915210    -0.248390
   12      H      -1.555350    -0.915130     2.276500
   13      H      -1.555370     0.915780     2.276290
 ----------------------------------------------------
 Nuclear Repulsion Energy =   170.9200549349 hartrees
 There are       20 alpha and       19 beta electrons
 Requested basis set is G3large
 There are 98 shells and 290 basis functions

Total QAlloc Memory Limit   2000 MB
Mega-Array Size       743 MB
MEM_STATIC part       760 MB

                       Distance Matrix (Angstroms)
             C (  1)   C (  2)   C (  3)   C (  4)   C (  5)   H (  6)
   C (  2)  1.476057
   C (  3)  1.476064  1.520050
   C (  4)  1.476065  2.749729  2.749302
   C (  5)  1.475969  2.749260  2.749419  1.520226
   H (  6)  2.210311  1.086878  2.239979  3.524642  3.104015
   H (  7)  2.210852  1.086841  2.240808  3.105381  3.524417  1.830755
   H (  8)  2.210252  2.239753  1.086878  3.524110  3.104199  2.523400
   H (  9)  2.210942  2.241050  1.086852  3.104817  3.524615  3.119037
   H ( 10)  2.210301  3.524453  3.103963  1.086843  2.240373  4.393544
   H ( 11)  2.210265  3.104630  3.524013  1.086836  2.240419  3.832082
   H ( 12)  2.210572  3.524363  3.104770  2.240166  1.086853  3.831121
   H ( 13)  2.210609  3.104637  3.524681  2.240416  1.086854  3.171634
             H (  7)   H (  8)   H (  9)   H ( 10)   H ( 11)   H ( 12)
   H (  8)  3.118667
   H (  9)  2.526580  1.830756
   H ( 10)  3.832704  3.831012  3.171335
   H ( 11)  3.172021  4.393190  3.831835  1.831230
   H ( 12)  4.393947  3.171672  3.831856  2.524341  3.118610
   H ( 13)  3.831532  3.831646  4.394185  3.118770  2.524782  1.830910

 
 A cutoff of  1.0D-08 yielded   4435 shell pairs
 There are  39245 function pairs ( 48051 Cartesian)
Evaluating contribution to one-electron hamiltonian from nuclear
 Smallest overlap matrix eigenvalue = 2.59E-05

 Q-Chem warning in module mkSTV.C, line 194:

 Overlap eigenvalue is smaller than square root of threshold

 Multipole matrices computed through 2nd order

  Scale SEOQF with 1.000000e-01/1.000000e-01/1.000000e-01

 Standard Electronic Orientation quadrupole field applied
 Nucleus-field energy     =    -0.0000000026 hartrees
 Guess from superposition of atomic densities
 Warning:  Energy on first SCF cycle will be non-variational
 Long-range K will be added via erf
 Coulomb attenuation parameter = 0.2 bohr**(-1)
 An unrestricted Kohn-Sham SCF calculation will be
 performed using Pulay DIIS extrapolation
 Exchange:  wPBE + LR-HF      Correlation:  PBE
 Using SG-1 standard quadrature grid
 SCF converges when DIIS error is below 1.0E-05
 Requested basis set is G3large
 There are 98 shells and 290 basis functions
 A cutoff of  1.0D-08 yielded   4435 shell pairs
 There are  39245 function pairs ( 48051 Cartesian)
 Warning!  Inaccurate integrated density:
   Number of electrons =    39
   Numerical integral  =    37.999764099938
   Relative error      =    -2.5647074361 %
 ---------------------------------------
  Cycle       Energy         DIIS Error
 ---------------------------------------
    1    -196.6644419607      2.88E-02
    2    -194.8115104363      3.95E-03
    3    -194.8188099504      4.84E-03
    4    -195.0769565015      5.14E-04
    5    -195.0841223753      3.13E-04
    6    -195.0871855280      7.93E-05
    7    -195.0886336416      3.98E-05
    8    -195.0893728279      2.81E-05
    9    -195.0898609637      2.39E-05
   10    -195.0903542063      1.78E-05
   11    -195.0906382040      1.30E-05
   12    -195.0908944731      9.20E-06 Convergence criterion met
 ---------------------------------------
 One-Electron    Energy =  -604.2490501195
 Total Coulomb   Energy =   268.2781961999
 Alpha Exchange  Energy =    -2.1073626294
 Beta  Exchange  Energy =    -2.0539393105
 DFT   Exchange  Energy =   -24.6271520918
 DFT Correlation Energy =    -1.2516414541
 Nuclear Repu.   Energy =   170.9200549324
 Nuclear Attr.   Energy =  -798.5786319475
 Kinetic         Energy =   194.3295818279
 <S^2> = 0.7501
 SCF time:  CPU 563.46 s  wall 566.73 s
 Final Alpha MO Eigenvalues
            1           2           3           4           5           6
    1  -9.8825802  -9.8731170  -9.8680369  -9.8671413  -9.8665749  -0.8022288
            7           8           9          10          11          12
    1  -0.7228336  -0.5316893  -0.5295904  -0.4727827  -0.4208994  -0.4083485
           13          14          15          16          17          18
    1  -0.4060075  -0.3046969  -0.2912949  -0.2901721  -0.2259808  -0.2252655
           19          20          21          22          23          24
    1  -0.2152907   0.0313505   0.1251046   0.1255900   0.1267850   0.1551018
           25
    1   0.1551372
 Final Beta MO Eigenvalues
            1           2           3           4           5           6
    1  -9.8825917  -9.8730031  -9.8678162  -9.8668921  -9.8662672  -0.8021441
            7           8           9          10          11          12
    1  -0.7226820  -0.5310083  -0.5288260  -0.4720613  -0.4202630  -0.4079709
           13          14          15          16          17          18
    1  -0.4054639  -0.3042065  -0.2907718  -0.2896683  -0.2256456  -0.2249463
           19          20          21          22          23          24
    1  -0.2147555   0.1233690   0.1364265   0.1382113   0.1408743   0.1574051
 Analysis of SCF Wavefunction
 
 --------------------------------------------------------------
                    Orbital Energies (a.u.)
 --------------------------------------------------------------
 
 Alpha MOs
 -- Occupied --
 -9.883  -9.873  -9.868  -9.867  -9.867  -0.802  -0.723  -0.532
 -0.530  -0.473  -0.421  -0.408  -0.406  -0.305  -0.291  -0.290
 -0.226  -0.225  -0.215   0.031
 -- Virtual --
  0.125   0.126   0.127   0.155   0.155   0.160   0.178   0.186
  0.214   0.238   0.240   0.249   0.256   0.257   0.258   0.271
  0.276   0.278   0.287   0.299   0.299   0.314   0.325   0.327
  0.328   0.328   0.340   0.341   0.353   0.391   0.392   0.399
  0.426   0.442   0.445   0.461   0.475   0.508   0.509   0.519
  0.524   0.582   0.630   0.647   0.648   0.653   0.674   0.676
  0.708   0.728   0.729   0.750   0.755   0.763   0.773   0.774
  0.789   0.789   0.810   0.815   0.830   0.831   0.839   0.849
  0.882   0.931   0.975   0.975   0.980   0.997   1.025   1.057
  1.079   1.090   1.091   1.156   1.209   1.210   1.234   1.262
  1.282   1.283   1.289   1.307   1.308   1.349   1.356   1.357
  1.412   1.413   1.471   1.477   1.478   1.498   1.523   1.524
  1.547   1.550   1.572   1.578   1.582   1.620   1.621   1.639
  1.644   1.668   1.716   1.732   1.733   1.747   1.759   1.762
  1.764   1.821   1.926   1.959   1.960   1.989   2.622   2.624
  2.702   2.745   2.772   2.773   2.792   2.805   2.836   2.836
  2.846   2.892   2.932   2.933   2.977   3.032   3.047   3.048
  3.054   3.083   3.139   3.139   3.158   3.161   3.212   3.213
  3.231   3.232   3.241   3.277   3.281   3.321   3.347   3.377
  3.377   3.397   3.428   3.493   3.493   3.503   3.534   3.536
  3.589   3.590   3.599   3.615   3.646   3.647   3.694   3.695
  3.709   3.747   3.747   3.763   3.836   3.932   3.960   4.011
  4.029   4.029   4.086   4.087   4.113   4.201   4.248   4.250
  4.252   4.256   4.287   4.289   4.379   4.404   4.409   4.412
  4.492   4.495   4.497   4.507   4.508   4.549   4.550   4.640
  4.641   4.669   4.674   4.677   4.710   4.750   4.852   4.872
  5.046   5.047   5.116   5.117   5.238   5.403   5.532   5.590
  5.592   5.635   5.741   5.746   5.750   5.783   5.893   5.894
  5.925  24.168  24.189  24.442  24.444  24.515  27.545  27.605
 27.658  27.659  28.043  28.134  28.162  28.163  28.180  28.205
 28.205  28.219  28.607  28.609  29.046  40.919  40.936  40.957
 41.020  41.027  41.030  41.032  41.071  41.074  41.076  41.199
 41.205  41.205  41.211  41.212  41.224  41.246  41.259  41.307
 41.310  41.318  41.319  41.339  41.410  41.411
 
 Beta MOs
 -- Occupied --
 -9.883  -9.873  -9.868  -9.867  -9.866  -0.802  -0.723  -0.531
 -0.529  -0.472  -0.420  -0.408  -0.405  -0.304  -0.291  -0.290
 -0.226  -0.225  -0.215
 -- Virtual --
  0.123   0.136   0.138   0.141   0.157   0.161   0.165   0.180
  0.184   0.212   0.236   0.236   0.244   0.253   0.254   0.254
  0.271   0.272   0.277   0.286   0.298   0.298   0.311   0.322
  0.323   0.323   0.324   0.336   0.337   0.352   0.391   0.392
  0.396   0.426   0.442   0.445   0.457   0.473   0.506   0.507
  0.519   0.524   0.582   0.629   0.645   0.646   0.652   0.673
  0.675   0.706   0.727   0.728   0.748   0.754   0.761   0.773
  0.773   0.788   0.789   0.809   0.815   0.829   0.830   0.836
  0.849   0.882   0.931   0.976   0.976   0.981   0.998   1.026
  1.057   1.080   1.090   1.091   1.157   1.210   1.211   1.235
  1.262   1.283   1.284   1.289   1.307   1.309   1.349   1.356
  1.357   1.412   1.413   1.471   1.477   1.478   1.498   1.523
  1.524   1.547   1.549   1.573   1.578   1.582   1.621   1.622
  1.640   1.645   1.668   1.717   1.733   1.734   1.749   1.759
  1.763   1.765   1.823   1.926   1.960   1.961   1.989   2.622
  2.624   2.702   2.745   2.772   2.773   2.792   2.805   2.836
  2.836   2.846   2.892   2.933   2.933   2.977   3.032   3.047
  3.048   3.054   3.083   3.139   3.140   3.158   3.162   3.212
  3.213   3.232   3.233   3.242   3.277   3.281   3.321   3.347
  3.377   3.378   3.398   3.428   3.493   3.494   3.504   3.535
  3.536   3.590   3.590   3.599   3.615   3.646   3.648   3.695
  3.695   3.709   3.747   3.748   3.763   3.837   3.933   3.960
  4.011   4.029   4.030   4.087   4.087   4.114   4.202   4.249
  4.250   4.253   4.257   4.288   4.290   4.379   4.404   4.409
  4.413   4.492   4.496   4.498   4.507   4.509   4.550   4.551
  4.640   4.641   4.670   4.675   4.677   4.710   4.750   4.853
  4.872   5.046   5.048   5.117   5.118   5.238   5.404   5.532
  5.591   5.592   5.635   5.741   5.746   5.751   5.784   5.893
  5.895   5.925  24.168  24.189  24.442  24.444  24.515  27.545
 27.605  27.658  27.659  28.044  28.135  28.162  28.164  28.180
 28.205  28.205  28.219  28.607  28.609  29.046  40.919  40.937
 40.957  41.020  41.027  41.030  41.032  41.071  41.074  41.076
 41.199  41.205  41.206  41.211  41.212  41.224  41.246  41.259
 41.307  41.310  41.318  41.319  41.340  41.410  41.411
 --------------------------------------------------------------
 
          Ground-State Mulliken Net Atomic Charges

     Atom                 Charge (a.u.)    Spin (a.u.)
  --------------------------------------------------------
      1 C                    -3.696318       4.318562
      2 C                     2.973503      -3.349690
      3 C                    -0.059564      -0.264798
      4 C                     1.695639      -2.046813
      5 C                     1.269106      -1.615898
      6 H                    -0.582806       0.690743
      7 H                    -0.656563       0.768341
      8 H                    -0.077503       0.157462
      9 H                    -0.111078       0.194511
     10 H                    -0.184585       0.267252
     11 H                    -0.773213       0.890853
     12 H                    -0.135803       0.214657
     13 H                    -0.660814       0.774817
  --------------------------------------------------------
  Sum of atomic charges =    -1.000000
  Sum of spin   charges =     1.000000

 -----------------------------------------------------------------
                    Cartesian Multipole Moments
 -----------------------------------------------------------------
    Charge (ESU x 10^10)
                -4.8032
    Dipole Moment (Debye)
         X       1.0459      Y      -5.9994      Z      -4.0760
       Tot       7.3280
    Quadrupole Moments (Debye-Ang)
        XX     -73.6374     XY       0.4567     YY     -64.6921
        XZ       0.8288     YZ      -5.3404     ZZ     -64.5545
    Octapole Moments (Debye-Ang^2)
       XXX      15.9705    XXY     -37.0605    XYY       7.4757
       YYY     -81.8587    XXZ     -69.1182    XYZ       0.3285
       YYZ     -60.5913    XZZ       4.5825    YZZ     -37.6231
       ZZZ    -176.2601
    Hexadecapole Moments (Debye-Ang^3)
      XXXX   -1057.1624   XXXY      -5.9710   XXYY    -286.1909
      XYYY       0.9362   YYYY    -583.8881   XXXZ      12.7246
      XXYZ     -33.8243   XYYZ       6.6670   YYYZ     -74.8518
      XXZZ    -335.0221   XYZZ       1.6841   YYZZ    -254.1661
      XZZZ      10.5930   YZZZ     -95.7902   ZZZZ    -848.2103
 -----------------------------------------------------------------
 Total job time:  567.17s(wall), 563.85s(cpu) 
 Tue Mar 18 15:16:24 2014

        *************************************************************
        *                                                           *
        *  Thank you very much for using Q-Chem.  Have a nice day.  *
        *                                                           *
        *************************************************************


0 sent ACK to 0 
now end server 0 ... 
 
**********************************************************************
Job 2 of 3 
**********************************************************************
 
Process 0 of 1 is on cl134 - thread support 1
initial socket setup ...start
initial socket setup ...done 
now start server 0 ... 

cmd = /usr/bin/ssh clhead /usr/local/qchem/bin/get_hostid 22901221 > /tmp/1591942.1.medium.q/qchem3439/lic.dat

cmd = /usr/bin/ssh clhead /usr/local/qchem/bin/get_hostid 22901221 > /tmp/1591942.1.medium.q/qchem3439/lic.dat

cmd = /usr/bin/ssh clhead /usr/local/qchem/bin/get_hostid 22901221 > /tmp/1591942.1.medium.q/qchem3439/lic.dat

cmd = /usr/bin/ssh clhead /usr/local/qchem/bin/get_hostid 22901221 > /tmp/1591942.1.medium.q/qchem3439/lic.dat

cmd = /usr/bin/ssh clhead /usr/local/qchem/bin/get_hostid 22901221 > /tmp/1591942.1.medium.q/qchem3439/lic.dat
                  Welcome to Q-Chem
     A Quantum Leap Into The Future Of Chemistry

 Y. Shao, L. Fusti-Molnar, Y. Jung, J. Kussmann, C. Ochsenfeld,
 S. T. Brown, A. T. B. Gilbert, L. V. Slipchenko,S. V. Levchenko,
 D. P. O'Neill, R. A. DiStasio Jr., R. C. Lochan, T. Wang,
 G. J. O. Beran, N. A. Besley, J. M. Herbert, C. Y. Lin,
 T. Van Voorhis, S. H. Chien, A. Sodt, R. P. Steele, 
 V. A. Rassolov, P. E. Maslen, P. P. Korambath, R. D. Adamson,
 B. Austin, J. Baker, E. F. C. Byrd, H. Dachsel, R. J. Doerksen,
 A. Dreuw, B. D. Dunietz, A. D. Dutoi, T. R. Furlani,
 S. R. Gwaltney, A. Heyden, S. Hirata, C.-P. Hsu, G. Kedziora,
 R. Z. Khaliullin, P. Klunzinger, A. M. Lee, M. S. Lee, W. Liang,
 I. Lotan, N. Nair, B. Peters, E. I. Proynov, P. A. Pieniazek, 
 Y. M. Rhee, J. Ritchie, E. Rosta, C. D. Sherrill, 
 A. C. Simmonett, J. E. Subotnik, H. L. Woodcock III,
 W. Zhang, A. T. Bell, A. K. Chakraborty, D. M. Chipman,
 F. J. Keil, A. Warshel, W. J. Hehre, H. F. Schaefer III,
 J. Kong, A. I. Krylov, P. M. W. Gill, M. Head-Gordon,
 Q-Chem, Version 3.1, Q-Chem, Inc., Pittsburgh, PA (2007).

 Additional authors for Version 3.1: 
 Z. Gan, Y. Zhao, N. E. Schultz, D. Truhlar, E. Epifanovsky and M. Oana.

 Additional authors for Version 3.2: 
 R. Baer, B. R. Brooks, D. Casanova, J.-D. Chai, C.-L. Cheng, 
 C. Cramer, D. Crittenden, A. Ghysels, G. Hawkins, E. G. Hohenstein, 
 C. Kelley, W. Kurlancheek, D. Liotard, E. Livshits, P. Manohar, 
 A. Marenich, D. Neuhauser, R. Olson, M. A. Rohrdanz, K. S. Thanthiriwatte, 
 A. J. W. Thom, V. Vanovschi, C. F. Williams, Q. Wu and Z.-Q. You. 


 Intel X86 Linux Version

 Q-chem begins on Tue Mar 18 15:16:29 2014  

 Parallel job on  1  processors
Processing $rem in /usr/local/qchem/config/preferences.

theFileMan(): MAXOPENFILES=974 MAX_SUB_FILE_NUM=16
Maximum size of a physical file is 2.0 GB, maximum size of a tmp-file is 32.0 GB


--------------------------------------------------------------
User input:
--------------------------------------------------------------

$molecule
0,1
C         -0.00006        0.00015        0.99980
C          1.26532        0.76004        0.98857
C          1.26516       -0.76001        0.98799
C         -1.27231       -0.00021        0.25137
C         -1.25820        0.00027        1.77153
H          1.57504        1.26150        1.90176
H          1.55860        1.26345        0.07108
H          1.57486       -1.26190        1.90095
H          1.55826       -1.26313        0.07027
H         -1.57794       -0.91602       -0.24774
H         -1.57802        0.91521       -0.24839
H         -1.55535       -0.91513        2.27650
H         -1.55537        0.91578        2.27629
$end

$comment
neutral
$end

$xc_functional
C PBE   1.00
X wPBE  1.00
$end


$rem
SYMMETRY_DECOMPOSITION	0
LRC_DFT                 true
exchange 		general
BASIS                   g3large
omega			200
mem_static              760
max_scf_cycles          200
scf_final_print         1
sym_ignore              true
$end

--------------------------------------------------------------
 Writing REM_CC_EA           13
 ----------------------------------------------------
       Standard Nuclear Orientation (Angstroms)
    I     Atom         X            Y            Z
 ----------------------------------------------------
    1      C      -0.000060     0.000150     0.999800
    2      C       1.265320     0.760040     0.988570
    3      C       1.265160    -0.760010     0.987990
    4      C      -1.272310    -0.000210     0.251370
    5      C      -1.258200     0.000270     1.771530
    6      H       1.575040     1.261500     1.901760
    7      H       1.558600     1.263450     0.071080
    8      H       1.574860    -1.261900     1.900950
    9      H       1.558260    -1.263130     0.070270
   10      H      -1.577940    -0.916020    -0.247740
   11      H      -1.578020     0.915210    -0.248390
   12      H      -1.555350    -0.915130     2.276500
   13      H      -1.555370     0.915780     2.276290
 ----------------------------------------------------
 Nuclear Repulsion Energy =   170.9200549349 hartrees
 There are       19 alpha and       19 beta electrons
 Requested basis set is G3large
 There are 98 shells and 290 basis functions

Total QAlloc Memory Limit   2000 MB
Mega-Array Size       743 MB
MEM_STATIC part       760 MB

                       Distance Matrix (Angstroms)
             C (  1)   C (  2)   C (  3)   C (  4)   C (  5)   H (  6)
   C (  2)  1.476057
   C (  3)  1.476064  1.520050
   C (  4)  1.476065  2.749729  2.749302
   C (  5)  1.475969  2.749260  2.749419  1.520226
   H (  6)  2.210311  1.086878  2.239979  3.524642  3.104015
   H (  7)  2.210852  1.086841  2.240808  3.105381  3.524417  1.830755
   H (  8)  2.210252  2.239753  1.086878  3.524110  3.104199  2.523400
   H (  9)  2.210942  2.241050  1.086852  3.104817  3.524615  3.119037
   H ( 10)  2.210301  3.524453  3.103963  1.086843  2.240373  4.393544
   H ( 11)  2.210265  3.104630  3.524013  1.086836  2.240419  3.832082
   H ( 12)  2.210572  3.524363  3.104770  2.240166  1.086853  3.831121
   H ( 13)  2.210609  3.104637  3.524681  2.240416  1.086854  3.171634
             H (  7)   H (  8)   H (  9)   H ( 10)   H ( 11)   H ( 12)
   H (  8)  3.118667
   H (  9)  2.526580  1.830756
   H ( 10)  3.832704  3.831012  3.171335
   H ( 11)  3.172021  4.393190  3.831835  1.831230
   H ( 12)  4.393947  3.171672  3.831856  2.524341  3.118610
   H ( 13)  3.831532  3.831646  4.394185  3.118770  2.524782  1.830910

 
 A cutoff of  1.0D-08 yielded   4435 shell pairs
 There are  39245 function pairs ( 48051 Cartesian)
Evaluating contribution to one-electron hamiltonian from nuclear
 Smallest overlap matrix eigenvalue = 2.59E-05

 Q-Chem warning in module mkSTV.C, line 194:

 Overlap eigenvalue is smaller than square root of threshold

 Multipole matrices computed through 2nd order

  Scale SEOQF with 1.000000e-01/1.000000e-01/1.000000e-01

 Standard Electronic Orientation quadrupole field applied
 Nucleus-field energy     =    -0.0000000026 hartrees
 Guess from superposition of atomic densities
 Warning:  Energy on first SCF cycle will be non-variational
 Long-range K will be added via erf
 Coulomb attenuation parameter = 0.2 bohr**(-1)
 A restricted Kohn-Sham SCF calculation will be
 performed using Pulay DIIS extrapolation
 Exchange:  wPBE + LR-HF      Correlation:  PBE
 Using SG-1 standard quadrature grid
 SCF converges when DIIS error is below 1.0E-05
 Requested basis set is G3large
 There are 98 shells and 290 basis functions
 A cutoff of  1.0D-08 yielded   4435 shell pairs
 There are  39245 function pairs ( 48051 Cartesian)
 ---------------------------------------
  Cycle       Energy         DIIS Error
 ---------------------------------------
    1    -196.6644419607      2.88E-02
    2    -195.0193380200      3.03E-03
    3    -195.0454397075      2.78E-03
    4    -195.1239482884      2.86E-04
    5    -195.1246318638      1.54E-04
    6    -195.1248452395      2.67E-05
    7    -195.1248540617      7.36E-06 Convergence criterion met
 ---------------------------------------
 One-Electron    Energy =  -599.6227092555
 Total Coulomb   Energy =   263.5431797780
 Alpha Exchange  Energy =    -2.0544141415
 Beta  Exchange  Energy =    -2.0544141415
 DFT   Exchange  Energy =   -24.6119699900
 DFT Correlation Energy =    -1.2445812436
 Nuclear Repu.   Energy =   170.9200549324
 Nuclear Attr.   Energy =  -793.8819568832
 Kinetic         Energy =   194.2592476277
 SCF time:  CPU 240.26 s  wall 241.99 s
 Final Alpha MO Eigenvalues
            1           2           3           4           5           6
    1 -10.0050997  -9.9922569  -9.9920777  -9.9919744  -9.9917577  -0.9248665
            7           8           9          10          11          12
    1  -0.8453668  -0.6529974  -0.6529645  -0.5949158  -0.5427886  -0.5297910
           13          14          15          16          17          18
    1  -0.5297392  -0.4270293  -0.4135689  -0.4128078  -0.3480955  -0.3479875
           19          20          21          22          23          24
    1  -0.3376165   0.0373740   0.0493681   0.0494027   0.0533907   0.0726073
 Analysis of SCF Wavefunction
 
 --------------------------------------------------------------
                    Orbital Energies (a.u.)
 --------------------------------------------------------------
 
 Alpha MOs
 -- Occupied --
-10.005  -9.992  -9.992  -9.992  -9.992  -0.925  -0.845  -0.653
 -0.653  -0.595  -0.543  -0.530  -0.530  -0.427  -0.414  -0.413
 -0.348  -0.348  -0.338
 -- Virtual --
  0.037   0.049   0.049   0.053   0.073   0.073   0.079   0.095
  0.096   0.115   0.140   0.140   0.154   0.156   0.159   0.160
  0.172   0.174   0.174   0.183   0.193   0.193   0.209   0.224
  0.225   0.225   0.227   0.233   0.233   0.241   0.278   0.278
  0.285   0.311   0.329   0.329   0.354   0.359   0.397   0.397
  0.408   0.413   0.467   0.516   0.534   0.534   0.536   0.559
  0.559   0.592   0.612   0.612   0.634   0.640   0.645   0.656
  0.656   0.671   0.671   0.694   0.698   0.714   0.714   0.721
  0.728   0.766   0.810   0.855   0.855   0.859   0.875   0.904
  0.936   0.958   0.969   0.969   1.036   1.089   1.089   1.113
  1.141   1.162   1.162   1.168   1.188   1.188   1.228   1.236
  1.236   1.293   1.293   1.350   1.357   1.357   1.377   1.403
  1.403   1.427   1.430   1.453   1.457   1.463   1.501   1.501
  1.520   1.523   1.549   1.596   1.613   1.613   1.627   1.641
  1.641   1.643   1.700   1.804   1.838   1.838   1.867   2.501
  2.501   2.580   2.624   2.651   2.651   2.670   2.682   2.714
  2.714   2.724   2.770   2.810   2.811   2.854   2.909   2.925
  2.925   2.932   2.960   3.017   3.017   3.036   3.039   3.090
  3.090   3.109   3.109   3.119   3.154   3.158   3.199   3.225
  3.255   3.255   3.275   3.306   3.371   3.371   3.381   3.413
  3.413   3.467   3.467   3.476   3.492   3.523   3.525   3.573
  3.573   3.587   3.625   3.625   3.640   3.714   3.810   3.837
  3.888   3.907   3.907   3.964   3.964   3.991   4.079   4.127
  4.127   4.130   4.134   4.166   4.166   4.257   4.282   4.286
  4.290   4.369   4.374   4.375   4.385   4.385   4.427   4.427
  4.518   4.518   4.547   4.553   4.553   4.587   4.628   4.730
  4.749   4.924   4.924   4.994   4.995   5.115   5.281   5.409
  5.468   5.469   5.513   5.622   5.622   5.626   5.661   5.771
  5.771   5.802  24.045  24.066  24.319  24.320  24.391  27.422
 27.482  27.536  27.536  27.920  28.011  28.040  28.040  28.057
 28.082  28.082  28.095  28.485  28.485  28.923  40.797  40.813
 40.834  40.898  40.905  40.906  40.908  40.949  40.952  40.952
 41.077  41.082  41.082  41.088  41.088  41.100  41.122  41.135
 41.186  41.186  41.194  41.195  41.216  41.288  41.288
 --------------------------------------------------------------
 
          Ground-State Mulliken Net Atomic Charges

     Atom                 Charge (a.u.)
  ----------------------------------------
      1 C                     0.551050
      2 C                    -0.328714
      3 C                    -0.329040
      4 C                    -0.329017
      5 C                    -0.329612
      6 H                     0.095739
      7 H                     0.095652
      8 H                     0.095612
      9 H                     0.095635
     10 H                     0.095620
     11 H                     0.095708
     12 H                     0.095654
     13 H                     0.095715
  ----------------------------------------
  Sum of atomic charges =     0.000000

 -----------------------------------------------------------------
                    Cartesian Multipole Moments
 -----------------------------------------------------------------
    Charge (ESU x 10^10)
                 0.0000
    Dipole Moment (Debye)
         X       0.0001      Y      -0.0016      Z       0.0001
       Tot       0.0016
    Quadrupole Moments (Debye-Ang)
        XX     -33.0664     XY       0.0014     YY     -30.9580
        XZ       0.0189     YZ      -0.0003     ZZ     -30.9618
    Octapole Moments (Debye-Ang^2)
       XXX       0.0033    XXY       0.0001    XYY      -0.6865
       YYY      -0.0016    XXZ     -33.0462    XYZ       0.0018
       YYZ     -30.9564    XZZ       0.7250    YZZ       0.0027
       ZZZ     -92.8931
    Hexadecapole Moments (Debye-Ang^3)
      XXXX    -352.1849   XXXY       0.0123   XXYY     -68.4806
      XYYY       0.0063   YYYY    -116.9648   XXXZ       1.3304
      XXYZ      -0.0019   XYYZ      -0.3793   YYYZ      -0.0162
      XXZZ    -101.5231   XYZZ       0.0100   YYZZ     -64.6081
      XZZZ       2.9270   YZZZ      -0.0082   ZZZZ    -302.7896
 -----------------------------------------------------------------
 Total job time:  242.45s(wall), 240.66s(cpu) 
 Tue Mar 18 15:20:31 2014

        *************************************************************
        *                                                           *
        *  Thank you very much for using Q-Chem.  Have a nice day.  *
        *                                                           *
        *************************************************************


0 sent ACK to 0 
now end server 0 ... 
 
**********************************************************************
Job 3 of 3 
**********************************************************************
 
Process 0 of 1 is on cl134 - thread support 1
initial socket setup ...start
initial socket setup ...done 
now start server 0 ... 

cmd = /usr/bin/ssh clhead /usr/local/qchem/bin/get_hostid 1141516786 > /tmp/1591942.1.medium.q/qchem3439/lic.dat

cmd = /usr/bin/ssh clhead /usr/local/qchem/bin/get_hostid 1141516786 > /tmp/1591942.1.medium.q/qchem3439/lic.dat

cmd = /usr/bin/ssh clhead /usr/local/qchem/bin/get_hostid 1141516786 > /tmp/1591942.1.medium.q/qchem3439/lic.dat

cmd = /usr/bin/ssh clhead /usr/local/qchem/bin/get_hostid 1141516786 > /tmp/1591942.1.medium.q/qchem3439/lic.dat

cmd = /usr/bin/ssh clhead /usr/local/qchem/bin/get_hostid 1141516786 > /tmp/1591942.1.medium.q/qchem3439/lic.dat
                  Welcome to Q-Chem
     A Quantum Leap Into The Future Of Chemistry

 Y. Shao, L. Fusti-Molnar, Y. Jung, J. Kussmann, C. Ochsenfeld,
 S. T. Brown, A. T. B. Gilbert, L. V. Slipchenko,S. V. Levchenko,
 D. P. O'Neill, R. A. DiStasio Jr., R. C. Lochan, T. Wang,
 G. J. O. Beran, N. A. Besley, J. M. Herbert, C. Y. Lin,
 T. Van Voorhis, S. H. Chien, A. Sodt, R. P. Steele, 
 V. A. Rassolov, P. E. Maslen, P. P. Korambath, R. D. Adamson,
 B. Austin, J. Baker, E. F. C. Byrd, H. Dachsel, R. J. Doerksen,
 A. Dreuw, B. D. Dunietz, A. D. Dutoi, T. R. Furlani,
 S. R. Gwaltney, A. Heyden, S. Hirata, C.-P. Hsu, G. Kedziora,
 R. Z. Khaliullin, P. Klunzinger, A. M. Lee, M. S. Lee, W. Liang,
 I. Lotan, N. Nair, B. Peters, E. I. Proynov, P. A. Pieniazek, 
 Y. M. Rhee, J. Ritchie, E. Rosta, C. D. Sherrill, 
 A. C. Simmonett, J. E. Subotnik, H. L. Woodcock III,
 W. Zhang, A. T. Bell, A. K. Chakraborty, D. M. Chipman,
 F. J. Keil, A. Warshel, W. J. Hehre, H. F. Schaefer III,
 J. Kong, A. I. Krylov, P. M. W. Gill, M. Head-Gordon,
 Q-Chem, Version 3.1, Q-Chem, Inc., Pittsburgh, PA (2007).

 Additional authors for Version 3.1: 
 Z. Gan, Y. Zhao, N. E. Schultz, D. Truhlar, E. Epifanovsky and M. Oana.

 Additional authors for Version 3.2: 
 R. Baer, B. R. Brooks, D. Casanova, J.-D. Chai, C.-L. Cheng, 
 C. Cramer, D. Crittenden, A. Ghysels, G. Hawkins, E. G. Hohenstein, 
 C. Kelley, W. Kurlancheek, D. Liotard, E. Livshits, P. Manohar, 
 A. Marenich, D. Neuhauser, R. Olson, M. A. Rohrdanz, K. S. Thanthiriwatte, 
 A. J. W. Thom, V. Vanovschi, C. F. Williams, Q. Wu and Z.-Q. You. 


 Intel X86 Linux Version

 Q-chem begins on Tue Mar 18 15:20:42 2014  

 Parallel job on  1  processors
Processing $rem in /usr/local/qchem/config/preferences.

theFileMan(): MAXOPENFILES=974 MAX_SUB_FILE_NUM=16
Maximum size of a physical file is 2.0 GB, maximum size of a tmp-file is 32.0 GB


--------------------------------------------------------------
User input:
--------------------------------------------------------------

$molecule
1,2
C         -0.00006        0.00015        0.99980
C          1.26532        0.76004        0.98857
C          1.26516       -0.76001        0.98799
C         -1.27231       -0.00021        0.25137
C         -1.25820        0.00027        1.77153
H          1.57504        1.26150        1.90176
H          1.55860        1.26345        0.07108
H          1.57486       -1.26190        1.90095
H          1.55826       -1.26313        0.07027
H         -1.57794       -0.91602       -0.24774
H         -1.57802        0.91521       -0.24839
H         -1.55535       -0.91513        2.27650
H         -1.55537        0.91578        2.27629
$end

$comment
positive
$end

$xc_functional
C PBE   1.00
X wPBE  1.00
$end

$rem
SYMMETRY_DECOMPOSITION	0
LRC_DFT                 true
exchange 		general
BASIS                   g3large
omega			200
mem_static              760
max_scf_cycles          200
scf_final_print         1
sym_ignore              true
$end

--------------------------------------------------------------
 Writing REM_CC_EA           13
 ----------------------------------------------------
       Standard Nuclear Orientation (Angstroms)
    I     Atom         X            Y            Z
 ----------------------------------------------------
    1      C      -0.000060     0.000150     0.999800
    2      C       1.265320     0.760040     0.988570
    3      C       1.265160    -0.760010     0.987990
    4      C      -1.272310    -0.000210     0.251370
    5      C      -1.258200     0.000270     1.771530
    6      H       1.575040     1.261500     1.901760
    7      H       1.558600     1.263450     0.071080
    8      H       1.574860    -1.261900     1.900950
    9      H       1.558260    -1.263130     0.070270
   10      H      -1.577940    -0.916020    -0.247740
   11      H      -1.578020     0.915210    -0.248390
   12      H      -1.555350    -0.915130     2.276500
   13      H      -1.555370     0.915780     2.276290
 ----------------------------------------------------
 Nuclear Repulsion Energy =   170.9200549349 hartrees
 There are       19 alpha and       18 beta electrons
 Requested basis set is G3large
 There are 98 shells and 290 basis functions

Total QAlloc Memory Limit   2000 MB
Mega-Array Size       743 MB
MEM_STATIC part       760 MB

                       Distance Matrix (Angstroms)
             C (  1)   C (  2)   C (  3)   C (  4)   C (  5)   H (  6)
   C (  2)  1.476057
   C (  3)  1.476064  1.520050
   C (  4)  1.476065  2.749729  2.749302
   C (  5)  1.475969  2.749260  2.749419  1.520226
   H (  6)  2.210311  1.086878  2.239979  3.524642  3.104015
   H (  7)  2.210852  1.086841  2.240808  3.105381  3.524417  1.830755
   H (  8)  2.210252  2.239753  1.086878  3.524110  3.104199  2.523400
   H (  9)  2.210942  2.241050  1.086852  3.104817  3.524615  3.119037
   H ( 10)  2.210301  3.524453  3.103963  1.086843  2.240373  4.393544
   H ( 11)  2.210265  3.104630  3.524013  1.086836  2.240419  3.832082
   H ( 12)  2.210572  3.524363  3.104770  2.240166  1.086853  3.831121
   H ( 13)  2.210609  3.104637  3.524681  2.240416  1.086854  3.171634
             H (  7)   H (  8)   H (  9)   H ( 10)   H ( 11)   H ( 12)
   H (  8)  3.118667
   H (  9)  2.526580  1.830756
   H ( 10)  3.832704  3.831012  3.171335
   H ( 11)  3.172021  4.393190  3.831835  1.831230
   H ( 12)  4.393947  3.171672  3.831856  2.524341  3.118610
   H ( 13)  3.831532  3.831646  4.394185  3.118770  2.524782  1.830910

 
 A cutoff of  1.0D-08 yielded   4435 shell pairs
 There are  39245 function pairs ( 48051 Cartesian)
Evaluating contribution to one-electron hamiltonian from nuclear
 Smallest overlap matrix eigenvalue = 2.59E-05

 Q-Chem warning in module mkSTV.C, line 194:

 Overlap eigenvalue is smaller than square root of threshold

 Multipole matrices computed through 2nd order

  Scale SEOQF with 1.000000e-01/1.000000e-01/1.000000e-01

 Standard Electronic Orientation quadrupole field applied
 Nucleus-field energy     =    -0.0000000026 hartrees
 Guess from superposition of atomic densities
 Warning:  Energy on first SCF cycle will be non-variational
 Long-range K will be added via erf
 Coulomb attenuation parameter = 0.2 bohr**(-1)
 An unrestricted Kohn-Sham SCF calculation will be
 performed using Pulay DIIS extrapolation
 Exchange:  wPBE + LR-HF      Correlation:  PBE
 Using SG-1 standard quadrature grid
 SCF converges when DIIS error is below 1.0E-05
 Requested basis set is G3large
 There are 98 shells and 290 basis functions
 A cutoff of  1.0D-08 yielded   4435 shell pairs
 There are  39245 function pairs ( 48051 Cartesian)
 Warning!  Inaccurate integrated density:
   Number of electrons =    37
   Numerical integral  =    37.999764099938
   Relative error      =     2.7020651350 %
 ---------------------------------------
  Cycle       Energy         DIIS Error
 ---------------------------------------
    1    -196.6644419607      2.88E-02
    2    -194.6824380717      2.40E-03
    3    -194.6932535738      2.53E-03
    4    -194.7557437190      3.80E-04
    5    -194.7577112944      2.52E-04
    6    -194.7587761961      6.67E-05
    7    -194.7592203623      6.42E-05
    8    -194.7596362175      5.35E-05
    9    -194.7601692573      4.49E-05
   10    -194.7608255352      3.81E-05
   11    -194.7615819463      3.28E-05
   12    -194.7626905878      3.25E-05
   13    -194.7633073471      2.63E-05
   14    -194.7637121161      4.62E-05
   15    -194.7637024580      7.05E-05
   16    -194.7637693437      8.53E-05
   17    -194.7637923145      7.56E-05
   18    -194.7638365844      4.81E-05
   19    -194.7638644273      1.94E-05
   20    -194.7638661918      5.12E-06 Convergence criterion met
 ---------------------------------------
 One-Electron    Energy =  -590.5500968195
 Total Coulomb   Energy =   254.5161170036
 Alpha Exchange  Energy =    -2.0587057026
 Beta  Exchange  Energy =    -1.9436246880
 DFT   Exchange  Energy =   -24.4411645447
 DFT Correlation Energy =    -1.2064463730
 Nuclear Repu.   Energy =   170.9200549324
 Nuclear Attr.   Energy =  -784.6682191599
 Kinetic         Energy =   194.1181223404
 <S^2> = 0.7545
 SCF time:  CPU 899.56 s  wall 906.22 s
 Final Alpha MO Eigenvalues
            1           2           3           4           5           6
    1 -10.2534284 -10.2452684 -10.2451418 -10.2450191 -10.2450075  -1.1762906
            7           8           9          10          11          12
    1  -1.0993406  -0.8870574  -0.8870076  -0.8305614  -0.7758513  -0.7606036
           13          14          15          16          17          18
    1  -0.7605343  -0.6687373  -0.6509221  -0.6369231  -0.5978392  -0.5870153
           19          20          21          22          23          24
    1  -0.5869005  -0.0988215  -0.0947997  -0.0947938  -0.0832052  -0.0624192
 Final Beta MO Eigenvalues
            1           2           3           4           5           6
    1 -10.2530156 -10.2413336 -10.2412203 -10.2411089 -10.2411033  -1.1670045
            7           8           9          10          11          12
    1  -1.0857006  -0.8762527  -0.8762106  -0.8198912  -0.7701596  -0.7571627
           13          14          15          16          17          18
    1  -0.7570852  -0.6484424  -0.6344635  -0.6281629  -0.5801948  -0.5800635
           19          20          21          22          23
    1  -0.3853547  -0.0973564  -0.0902594  -0.0902526  -0.0813007
 Analysis of SCF Wavefunction
 
 --------------------------------------------------------------
                    Orbital Energies (a.u.)
 --------------------------------------------------------------
 
 Alpha MOs
 -- Occupied --
-10.253 -10.245 -10.245 -10.245 -10.245  -1.176  -1.099  -0.887
 -0.887  -0.831  -0.776  -0.761  -0.761  -0.669  -0.651  -0.637
 -0.598  -0.587  -0.587
 -- Virtual --
 -0.099  -0.095  -0.095  -0.083  -0.062  -0.062  -0.053  -0.038
 -0.037  -0.028  -0.028  -0.008   0.001   0.008   0.008   0.009
  0.027   0.027   0.034   0.038   0.046   0.046   0.059   0.059
  0.063   0.067   0.082   0.082   0.086   0.087   0.100   0.100
  0.102   0.130   0.145   0.145   0.157   0.192   0.201   0.213
  0.213   0.252   0.277   0.333   0.346   0.354   0.354   0.364
  0.365   0.399   0.417   0.417   0.427   0.440   0.457   0.457
  0.457   0.471   0.472   0.492   0.513   0.525   0.526   0.532
  0.532   0.586   0.594   0.648   0.648   0.660   0.679   0.685
  0.728   0.748   0.763   0.763   0.839   0.889   0.889   0.910
  0.928   0.946   0.959   0.959   0.984   0.984   1.029   1.029
  1.034   1.080   1.080   1.142   1.149   1.149   1.154   1.190
  1.190   1.217   1.217   1.241   1.245   1.266   1.298   1.298
  1.314   1.321   1.349   1.387   1.409   1.410   1.420   1.436
  1.437   1.438   1.486   1.571   1.613   1.613   1.650   2.266
  2.266   2.327   2.405   2.413   2.428   2.428   2.459   2.471
  2.471   2.503   2.524   2.579   2.579   2.621   2.659   2.685
  2.686   2.687   2.715   2.784   2.784   2.794   2.801   2.848
  2.848   2.867   2.870   2.870   2.923   2.935   2.959   2.990
  3.023   3.023   3.044   3.068   3.135   3.136   3.153   3.171
  3.171   3.231   3.231   3.237   3.247   3.280   3.290   3.338
  3.338   3.358   3.387   3.387   3.412   3.478   3.580   3.598
  3.643   3.678   3.678   3.725   3.726   3.755   3.846   3.897
  3.897   3.899   3.904   3.939   3.939   4.032   4.055   4.067
  4.070   4.133   4.135   4.135   4.156   4.157   4.195   4.195
  4.283   4.283   4.318   4.324   4.324   4.346   4.390   4.487
  4.513   4.682   4.683   4.760   4.760   4.886   5.042   5.179
  5.222   5.222   5.284   5.397   5.397   5.401   5.436   5.537
  5.538   5.560  23.797  23.814  24.067  24.067  24.141  27.163
 27.223  27.285  27.285  27.669  27.760  27.788  27.788  27.806
 27.829  27.829  27.845  28.234  28.234  28.674  40.546  40.557
 40.581  40.644  40.651  40.651  40.654  40.695  40.696  40.698
 40.827  40.827  40.827  40.832  40.832  40.844  40.869  40.880
 40.935  40.935  40.944  40.945  40.960  41.036  41.036
 
 Beta MOs
 -- Occupied --
-10.253 -10.241 -10.241 -10.241 -10.241  -1.167  -1.086  -0.876
 -0.876  -0.820  -0.770  -0.757  -0.757  -0.648  -0.634  -0.628
 -0.580  -0.580
 -- Virtual --
 -0.385  -0.097  -0.090  -0.090  -0.081  -0.061  -0.061  -0.052
 -0.038  -0.036  -0.019  -0.019  -0.008   0.003   0.010   0.010
  0.012   0.028   0.028   0.036   0.041   0.047   0.047   0.064
  0.066   0.066   0.069   0.084   0.084   0.087   0.088   0.104
  0.104   0.109   0.131   0.146   0.146   0.164   0.195   0.209
  0.216   0.217   0.253   0.281   0.337   0.347   0.356   0.356
  0.370   0.370   0.406   0.423   0.423   0.438   0.449   0.459
  0.462   0.462   0.474   0.474   0.498   0.517   0.529   0.530
  0.536   0.536   0.588   0.600   0.653   0.653   0.662   0.679
  0.697   0.735   0.757   0.768   0.768   0.839   0.892   0.892
  0.914   0.929   0.957   0.962   0.963   0.986   0.986   1.036
  1.037   1.037   1.088   1.088   1.147   1.154   1.154   1.164
  1.202   1.202   1.223   1.225   1.247   1.248   1.268   1.301
  1.301   1.319   1.323   1.353   1.391   1.412   1.412   1.422
  1.438   1.438   1.442   1.492   1.581   1.619   1.619   1.651
  2.276   2.277   2.347   2.408   2.431   2.432   2.441   2.467
  2.479   2.479   2.507   2.540   2.584   2.585   2.626   2.677
  2.696   2.696   2.704   2.727   2.792   2.792   2.806   2.812
  2.859   2.859   2.884   2.884   2.886   2.928   2.937   2.967
  2.996   3.032   3.032   3.046   3.077   3.147   3.147   3.159
  3.186   3.186   3.244   3.244   3.247   3.270   3.289   3.296
  3.346   3.347   3.365   3.396   3.397   3.413   3.488   3.583
  3.609   3.656   3.681   3.682   3.736   3.736   3.764   3.850
  3.901   3.901   3.905   3.909   3.945   3.945   4.038   4.061
  4.068   4.073   4.142   4.146   4.150   4.162   4.162   4.202
  4.202   4.291   4.291   4.325   4.332   4.332   4.353   4.398
  4.495   4.522   4.689   4.689   4.765   4.765   4.890   5.052
  5.180   5.236   5.236   5.289   5.399   5.400   5.404   5.438
  5.541   5.541   5.566  23.799  23.819  24.072  24.072  24.144
 27.175  27.235  27.288  27.288  27.672  27.763  27.792  27.793
 27.809  27.835  27.835  27.847  28.237  28.237  28.677  40.548
 40.565  40.585  40.650  40.657  40.657  40.660  40.701  40.703
 40.703  40.828  40.834  40.834  40.840  40.840  40.852  40.874
 40.887  40.937  40.937  40.945  40.946  40.968  41.040  41.040
 --------------------------------------------------------------
 
          Ground-State Mulliken Net Atomic Charges

     Atom                 Charge (a.u.)    Spin (a.u.)
  --------------------------------------------------------
      1 C                     0.483654      -0.034349
      2 C                    -0.194818       0.269134
      3 C                    -0.195241       0.269839
      4 C                    -0.195184       0.268692
      5 C                    -0.195029       0.270554
      6 H                     0.161911      -0.005420
      7 H                     0.162026      -0.005523
      8 H                     0.162091      -0.005443
      9 H                     0.161975      -0.005582
     10 H                     0.162165      -0.005371
     11 H                     0.162086      -0.005426
     12 H                     0.162168      -0.005546
     13 H                     0.162198      -0.005559
  --------------------------------------------------------
  Sum of atomic charges =     1.000000
  Sum of spin   charges =     1.000000

 -----------------------------------------------------------------
                    Cartesian Multipole Moments
 -----------------------------------------------------------------
    Charge (ESU x 10^10)
                 4.8032
    Dipole Moment (Debye)
         X      -0.0004      Y      -0.0008      Z       4.8050
       Tot       4.8050
    Quadrupole Moments (Debye-Ang)
        XX     -18.3558     XY      -0.0002     YY     -23.9473
        XZ      -0.0549     YZ       0.0016     ZZ     -19.1436
    Octapole Moments (Debye-Ang^2)
       XXX       0.0013    XXY      -0.0002    XYY       2.3091
       YYY      -0.0039    XXZ     -18.3900    XYZ       0.0002
       YYZ     -23.9725    XZZ      -2.4187    YZZ       0.0032
       ZZZ     -66.9679
    Hexadecapole Moments (Debye-Ang^3)
      XXXX    -275.7704   XXXY      -0.0030   XXYY     -48.9316
      XYYY      -0.0004   YYYY     -92.0522   XXXZ       1.1483
      XXYZ       0.0001   XYYZ       2.5301   YYYZ      -0.0155
      XXZZ     -67.3744   XYZZ      -0.0011   YYZZ     -47.1864
      XZZZ      -6.5873   YZZZ      -0.0084   ZZZZ    -230.6624
 -----------------------------------------------------------------
 Total job time:  906.64s(wall), 899.94s(cpu) 
 Tue Mar 18 15:35:48 2014

        *************************************************************
        *                                                           *
        *  Thank you very much for using Q-Chem.  Have a nice day.  *
        *                                                           *
        *************************************************************


0 sent ACK to 0 
now end server 0 ... 
