Process 0 of 1 is on cl156.stfx.acenet.ca - thread support 1
initial socket setup ...start
initial socket setup ...done 
now start server 0 ... 

cmd = /usr/bin/ssh clhead /usr/local/qchem/bin/get_hostid 326404582 > /globalscratch/itamblyn/bnl/g297_b3lyp_neut_g03Large/g2g71061/omega600/qchem5902/lic.dat
                  Welcome to Q-Chem
     A Quantum Leap Into The Future Of Chemistry

 Y. Shao, L. Fusti-Molnar, Y. Jung, J. Kussmann, C. Ochsenfeld,
 S. T. Brown, A. T. B. Gilbert, L. V. Slipchenko,S. V. Levchenko,
 D. P. O'Neill, R. A. DiStasio Jr., R. C. Lochan, T. Wang,
 G. J. O. Beran, N. A. Besley, J. M. Herbert, C. Y. Lin,
 T. Van Voorhis, S. H. Chien, A. Sodt, R. P. Steele, 
 V. A. Rassolov, P. E. Maslen, P. P. Korambath, R. D. Adamson,
 B. Austin, J. Baker, E. F. C. Byrd, H. Dachsel, R. J. Doerksen,
 A. Dreuw, B. D. Dunietz, A. D. Dutoi, T. R. Furlani,
 S. R. Gwaltney, A. Heyden, S. Hirata, C.-P. Hsu, G. Kedziora,
 R. Z. Khaliullin, P. Klunzinger, A. M. Lee, M. S. Lee, W. Liang,
 I. Lotan, N. Nair, B. Peters, E. I. Proynov, P. A. Pieniazek, 
 Y. M. Rhee, J. Ritchie, E. Rosta, C. D. Sherrill, 
 A. C. Simmonett, J. E. Subotnik, H. L. Woodcock III,
 W. Zhang, A. T. Bell, A. K. Chakraborty, D. M. Chipman,
 F. J. Keil, A. Warshel, W. J. Hehre, H. F. Schaefer III,
 J. Kong, A. I. Krylov, P. M. W. Gill, M. Head-Gordon,
 Q-Chem, Version 3.1, Q-Chem, Inc., Pittsburgh, PA (2007).

 Additional authors for Version 3.1: 
 Z. Gan, Y. Zhao, N. E. Schultz, D. Truhlar, E. Epifanovsky and M. Oana.

 Additional authors for Version 3.2: 
 R. Baer, B. R. Brooks, D. Casanova, J.-D. Chai, C.-L. Cheng, 
 C. Cramer, D. Crittenden, A. Ghysels, G. Hawkins, E. G. Hohenstein, 
 C. Kelley, W. Kurlancheek, D. Liotard, E. Livshits, P. Manohar, 
 A. Marenich, D. Neuhauser, R. Olson, M. A. Rohrdanz, K. S. Thanthiriwatte, 
 A. J. W. Thom, V. Vanovschi, C. F. Williams, Q. Wu and Z.-Q. You. 


 Intel X86 Linux Version

 Q-chem begins on Mon Apr 11 17:48:47 2011  

 Parallel job on  1  processors
Processing $rem in /usr/local/qchem/config/preferences.

theFileMan(): MAXOPENFILES=974 MAX_SUB_FILE_NUM=16
Maximum size of a physical file is 2.0 GB, maximum size of a tmp-file is 32.0 GB


--------------------------------------------------------------
User input:
--------------------------------------------------------------

$molecule
-1,2
S
C,1,r1
X,2,1.,1,90.
S,2,r1,3,90.,1,180.,0

 r1=1.5631656

$end

$comment
negative
$end

$xc_functional
   X HF 1.0
   X BNL 1.0
   C LYP 1.0
$end

$rem
SYMMETRY_DECOMPOSITION	0
exchange 		general
BASIS                   g3large
omega			600
separate_jk		true
mem_static              760
max_scf_cycles          200
scf_final_print         1
sym_ignore              true
$end

--------------------------------------------------------------
 Writing REM_CC_EA            3
 ----------------------------------------------------
       Standard Nuclear Orientation (Angstroms)
    I     Atom         X            Y            Z
 ----------------------------------------------------
    1      S       0.000000     0.000000     0.000000
    2      C       0.000000     0.000000     1.563166
    3      S       0.000000     0.000000     3.126331
 ----------------------------------------------------
 Nuclear Repulsion Energy =   108.3293462036 hartrees
 There are       20 alpha and       19 beta electrons
 Requested basis set is G3large
 There are 48 shells and 174 basis functions

Total QAlloc Memory Limit   2000 MB
Mega-Array Size       743 MB
MEM_STATIC part       760 MB

                       Distance Matrix (Angstroms)
             S (  1)   C (  2)
   C (  2)  1.563166
   S (  3)  3.126331  1.563166
 
 A cutoff of  1.0D-08 yielded   1027 shell pairs
 There are  13934 function pairs ( 19546 Cartesian)
Evaluating contribution to one-electron hamiltonian from nuclear
 Smallest overlap matrix eigenvalue = 8.41E-05

 Q-Chem warning in module mkSTV.C, line 194:

 Overlap eigenvalue is smaller than square root of threshold

 Multipole matrices computed through 2nd order

  Scale SEOQF with 1.000000e-01/1.000000e-01/1.000000e-01

 Standard Electronic Orientation quadrupole field applied
 Nucleus-field energy     =    -0.0000000183 hartrees
 Guess from superposition of atomic densities
 Warning:  Energy on first SCF cycle will be non-variational
 An unrestricted hybrid HF-DFT SCF calculation will be
 performed using Pulay DIIS extrapolation
 Exchange:     1.0000 Hartree-Fock + 1.0000 BNL
 Correlation:  1.0000 LYP
 Using SG-1 standard quadrature grid
 SCF converges when DIIS error is below 1.0E-05
 Warning!  Inaccurate integrated density:
   Number of electrons =    39
   Numerical integral  =    37.999975127672
   Relative error      =    -2.5641663393 %
 ---------------------------------------
  Cycle       Energy         DIIS Error
 ---------------------------------------
    1    -831.3583088427      3.13E-02
    2    -830.7863182301      2.30E-03
    3    -830.8282524395      1.38E-03
    4    -830.8365019160      5.08E-04
    5    -830.8397232131      2.18E-04
    6    -830.8406996098      1.22E-04
    7    -830.8410667197      3.57E-05
    8    -830.8411458166      8.58E-06 Convergence criterion met
 ---------------------------------------
 One-Electron    Energy = -1374.7394516643
 Total Coulomb   Energy =   488.7934285358
 Alpha Exchange  Energy =    -5.7014871729
 Beta  Exchange  Energy =    -5.4455805368
 DFT   Exchange  Energy =   -40.5328918989
 DFT Correlation Energy =    -1.5445092647
 Nuclear Repu.   Energy =   108.3293461853
 Nuclear Attr.   Energy = -2204.0434878189
 Kinetic         Energy =   829.3040361546
 <S^2> = 0.7640
 SCF time:  CPU 84.79 s  wall 109.23 s
 Final Alpha MO Eigenvalues
            1           2           3           4           5           6
    1 -87.7964369 -87.7964361  -9.9554701  -7.7466332  -7.7466243  -5.7847164
            7           8           9          10          11          12
    1  -5.7846757  -5.7808509  -5.7808473  -5.7783499  -5.7783436  -0.8370622
           13          14          15          16          17          18
    1  -0.7318391  -0.4479264  -0.3485021  -0.3400490  -0.3051128  -0.1964051
           19          20          21          22          23          24
    1  -0.1667460  -0.0408676   0.1935621   0.1983932   0.2000405   0.2163190
           25
    1   0.2315288
 Final Beta MO Eigenvalues
            1           2           3           4           5           6
    1 -87.7959318 -87.7959311  -9.9424132  -7.7459828  -7.7459751  -5.7845810
            7           8           9          10          11          12
    1  -5.7845380  -5.7804665  -5.7804628  -5.7765258  -5.7765226  -0.8190698
           13          14          15          16          17          18
    1  -0.7262612  -0.4175190  -0.3340346  -0.2979604  -0.2784114  -0.1682157
           19          20          21          22          23          24
    1  -0.1570974   0.1911031   0.1964538   0.2013733   0.2067909   0.2139697
 Analysis of SCF Wavefunction
 
 --------------------------------------------------------------
                    Orbital Energies (a.u.)
 --------------------------------------------------------------
 
 Alpha MOs
 -- Occupied --
-87.796 -87.796  -9.955  -7.747  -7.747  -5.785  -5.785  -5.781
 -5.781  -5.778  -5.778  -0.837  -0.732  -0.448  -0.349  -0.340
 -0.305  -0.196  -0.167  -0.041
 -- Virtual --
  0.194   0.198   0.200   0.216   0.232   0.249   0.252   0.254
  0.256   0.327   0.333   0.379   0.397   0.423   0.492   0.502
  0.502   0.551   0.551   0.563   0.576   0.585   0.655   0.657
  0.658   0.712   0.717   0.718   0.776   0.794   0.980   0.981
  1.002   1.002   1.038   1.039   1.112   1.131   1.133   1.206
  1.206   1.228   1.228   1.253   1.253   1.256   1.329   1.329
  1.370   1.371   1.391   1.406   1.407   1.423   1.424   1.426
  1.581   1.581   1.632   1.685   1.745   1.749   1.883   1.931
  1.936   2.189   2.194   2.268   2.296   2.301   2.567   2.748
  3.149   3.150   3.203   3.203   3.319   3.320   3.399   3.402
  3.518   3.614   3.682   3.683   3.695   3.698   3.864   3.864
  3.869   3.869   3.885   3.927   3.927   3.965   3.965   4.171
  4.173   4.523   4.527   4.597   4.894   4.897   4.940   4.943
  5.121   5.282   5.286   5.505   5.509   5.613   6.266   8.935
  9.047  17.408  17.411  17.434  17.437  17.736  18.308  23.752
 23.784  23.798  23.895  23.909  24.017  24.019  24.071  24.072
 24.136  24.584  27.704  27.707  29.084  31.279  31.280  31.280
 31.280  31.286  31.286  31.287  31.287  31.290  31.292  31.315
 31.339  31.341  31.462  41.121  41.264  41.446  41.491  41.493
190.086 190.125
 
 Beta MOs
 -- Occupied --
-87.796 -87.796  -9.942  -7.746  -7.746  -5.785  -5.785  -5.780
 -5.780  -5.777  -5.777  -0.819  -0.726  -0.418  -0.334  -0.298
 -0.278  -0.168  -0.157
 -- Virtual --
  0.191   0.196   0.201   0.207   0.214   0.246   0.249   0.249
  0.261   0.276   0.335   0.343   0.378   0.407   0.423   0.492
  0.507   0.507   0.557   0.557   0.564   0.585   0.594   0.655
  0.659   0.662   0.718   0.719   0.726   0.799   0.814   0.983
  0.996   1.020   1.021   1.045   1.048   1.112   1.134   1.145
  1.209   1.209   1.231   1.231   1.255   1.255   1.260   1.334
  1.334   1.377   1.377   1.394   1.408   1.418   1.425   1.425
  1.435   1.593   1.593   1.637   1.693   1.746   1.758   1.888
  1.933   1.945   2.190   2.200   2.273   2.298   2.310   2.569
  2.754   3.163   3.189   3.234   3.234   3.336   3.337   3.403
  3.417   3.527   3.628   3.702   3.717   3.717   3.718   3.870
  3.870   3.875   3.875   3.890   3.940   3.941   3.971   3.971
  4.180   4.197   4.526   4.536   4.608   4.897   4.900   4.943
  4.946   5.127   5.282   5.289   5.507   5.518   5.617   6.271
  8.936   9.050  17.409  17.413  17.435  17.439  17.736  18.308
 23.759  23.786  23.800  23.897  23.911  24.017  24.020  24.071
 24.074  24.136  24.595  27.713  27.728  29.092  31.280  31.281
 31.281  31.281  31.286  31.287  31.287  31.288  31.290  31.293
 31.315  31.339  31.342  31.462  41.142  41.276  41.467  41.500
 41.513 190.087 190.126
 --------------------------------------------------------------
 
          Ground-State Mulliken Net Atomic Charges

     Atom                 Charge (a.u.)    Spin (a.u.)
  --------------------------------------------------------
      1 S                    -0.501862       0.261671
      2 C                     0.003724       0.476649
      3 S                    -0.501862       0.261680
  --------------------------------------------------------
  Sum of atomic charges =    -1.000000
  Sum of spin   charges =     1.000000

 -----------------------------------------------------------------
                    Cartesian Multipole Moments
 -----------------------------------------------------------------
    Charge (ESU x 10^10)
                -4.8032
    Dipole Moment (Debye)
         X       0.0000      Y       0.0000      Z      -7.5082
       Tot       7.5082
    Quadrupole Moments (Debye-Ang)
        XX     -37.6849     XY      -1.5070     YY     -37.7180
        XZ      -0.0001     YZ       0.0001     ZZ     -61.2906
    Octapole Moments (Debye-Ang^2)
       XXX       0.0000    XXY       0.0000    XYY       0.0000
       YYY       0.0000    XXZ     -58.9077    XYZ      -2.3556
       YYZ     -58.9594    XZZ      -0.0004    YZZ       0.0003
       ZZZ    -250.7298
    Hexadecapole Moments (Debye-Ang^3)
      XXXX     -64.2469   XXXY      -3.6411   XXYY     -21.4427
      XYYY      -3.6411   YYYY     -64.4069   XXXZ      -0.0003
      XXYZ      -0.0001   XYYZ      -0.0001   YYYZ      -0.0003
      XXZZ    -197.6055   XYZZ     -11.6334   YYZZ    -197.8605
      XZZZ      -0.0026   YZZZ       0.0014   ZZZZ   -1281.6778
 -----------------------------------------------------------------
 Total job time:  112.47s(wall), 85.02s(cpu) 
 Mon Apr 11 17:50:39 2011

        *************************************************************
        *                                                           *
        *  Thank you very much for using Q-Chem.  Have a nice day.  *
        *                                                           *
        *************************************************************


0 sent ACK to 0 
now end server 0 ... 
 
**********************************************************************
Job 2 of 3 
**********************************************************************
 
Process 0 of 1 is on cl156.stfx.acenet.ca - thread support 1
initial socket setup ...start
initial socket setup ...done 
now start server 0 ... 

cmd = /usr/bin/ssh clhead /usr/local/qchem/bin/get_hostid 494867332 > /globalscratch/itamblyn/bnl/g297_b3lyp_neut_g03Large/g2g71061/omega600/qchem5902/lic.dat
                  Welcome to Q-Chem
     A Quantum Leap Into The Future Of Chemistry

 Y. Shao, L. Fusti-Molnar, Y. Jung, J. Kussmann, C. Ochsenfeld,
 S. T. Brown, A. T. B. Gilbert, L. V. Slipchenko,S. V. Levchenko,
 D. P. O'Neill, R. A. DiStasio Jr., R. C. Lochan, T. Wang,
 G. J. O. Beran, N. A. Besley, J. M. Herbert, C. Y. Lin,
 T. Van Voorhis, S. H. Chien, A. Sodt, R. P. Steele, 
 V. A. Rassolov, P. E. Maslen, P. P. Korambath, R. D. Adamson,
 B. Austin, J. Baker, E. F. C. Byrd, H. Dachsel, R. J. Doerksen,
 A. Dreuw, B. D. Dunietz, A. D. Dutoi, T. R. Furlani,
 S. R. Gwaltney, A. Heyden, S. Hirata, C.-P. Hsu, G. Kedziora,
 R. Z. Khaliullin, P. Klunzinger, A. M. Lee, M. S. Lee, W. Liang,
 I. Lotan, N. Nair, B. Peters, E. I. Proynov, P. A. Pieniazek, 
 Y. M. Rhee, J. Ritchie, E. Rosta, C. D. Sherrill, 
 A. C. Simmonett, J. E. Subotnik, H. L. Woodcock III,
 W. Zhang, A. T. Bell, A. K. Chakraborty, D. M. Chipman,
 F. J. Keil, A. Warshel, W. J. Hehre, H. F. Schaefer III,
 J. Kong, A. I. Krylov, P. M. W. Gill, M. Head-Gordon,
 Q-Chem, Version 3.1, Q-Chem, Inc., Pittsburgh, PA (2007).

 Additional authors for Version 3.1: 
 Z. Gan, Y. Zhao, N. E. Schultz, D. Truhlar, E. Epifanovsky and M. Oana.

 Additional authors for Version 3.2: 
 R. Baer, B. R. Brooks, D. Casanova, J.-D. Chai, C.-L. Cheng, 
 C. Cramer, D. Crittenden, A. Ghysels, G. Hawkins, E. G. Hohenstein, 
 C. Kelley, W. Kurlancheek, D. Liotard, E. Livshits, P. Manohar, 
 A. Marenich, D. Neuhauser, R. Olson, M. A. Rohrdanz, K. S. Thanthiriwatte, 
 A. J. W. Thom, V. Vanovschi, C. F. Williams, Q. Wu and Z.-Q. You. 


 Intel X86 Linux Version

 Q-chem begins on Mon Apr 11 17:50:43 2011  

 Parallel job on  1  processors
Processing $rem in /usr/local/qchem/config/preferences.

theFileMan(): MAXOPENFILES=974 MAX_SUB_FILE_NUM=16
Maximum size of a physical file is 2.0 GB, maximum size of a tmp-file is 32.0 GB


--------------------------------------------------------------
User input:
--------------------------------------------------------------

$molecule
0,1
S
C,1,r1
X,2,1.,1,90.
S,2,r1,3,90.,1,180.,0

 r1=1.5631656

$end

$comment
neutral
$end

$xc_functional
   X HF 1.0
   X BNL 1.0
   C LYP 1.0
$end

$rem
SYMMETRY_DECOMPOSITION	0
exchange 		general
BASIS                   g3large
omega			600
separate_jk		true
mem_static              760
max_scf_cycles          200
scf_final_print         1
sym_ignore              true
$end

--------------------------------------------------------------
 Writing REM_CC_EA            3
 ----------------------------------------------------
       Standard Nuclear Orientation (Angstroms)
    I     Atom         X            Y            Z
 ----------------------------------------------------
    1      S       0.000000     0.000000     0.000000
    2      C       0.000000     0.000000     1.563166
    3      S       0.000000     0.000000     3.126331
 ----------------------------------------------------
 Nuclear Repulsion Energy =   108.3293462036 hartrees
 There are       19 alpha and       19 beta electrons
 Requested basis set is G3large
 There are 48 shells and 174 basis functions

Total QAlloc Memory Limit   2000 MB
Mega-Array Size       743 MB
MEM_STATIC part       760 MB

                       Distance Matrix (Angstroms)
             S (  1)   C (  2)
   C (  2)  1.563166
   S (  3)  3.126331  1.563166
 
 A cutoff of  1.0D-08 yielded   1027 shell pairs
 There are  13934 function pairs ( 19546 Cartesian)
Evaluating contribution to one-electron hamiltonian from nuclear
 Smallest overlap matrix eigenvalue = 8.41E-05

 Q-Chem warning in module mkSTV.C, line 194:

 Overlap eigenvalue is smaller than square root of threshold

 Multipole matrices computed through 2nd order

  Scale SEOQF with 1.000000e-01/1.000000e-01/1.000000e-01

 Standard Electronic Orientation quadrupole field applied
 Nucleus-field energy     =    -0.0000000183 hartrees
 Guess from superposition of atomic densities
 Warning:  Energy on first SCF cycle will be non-variational
 A restricted hybrid HF-DFT SCF calculation will be
 performed using Pulay DIIS extrapolation
 Exchange:     1.0000 Hartree-Fock + 1.0000 BNL
 Correlation:  1.0000 LYP
 Using SG-1 standard quadrature grid
 SCF converges when DIIS error is below 1.0E-05
 ---------------------------------------
  Cycle       Energy         DIIS Error
 ---------------------------------------
    1    -831.3583088427      3.13E-02
    2    -830.7633038105      2.80E-03
    3    -830.7849631561      2.97E-03
    4    -830.8163733940      5.09E-04
    5    -830.8206805971      2.21E-04
    6    -830.8215700812      7.73E-05
    7    -830.8216908911      1.57E-05
    8    -830.8216944060      1.82E-06 Convergence criterion met
 ---------------------------------------
 One-Electron    Energy = -1365.5474032633
 Total Coulomb   Energy =   479.3028703829
 Alpha Exchange  Energy =    -5.4694270483
 Beta  Exchange  Energy =    -5.4694270483
 DFT   Exchange  Energy =   -40.4471914745
 DFT Correlation Energy =    -1.5204621397
 Nuclear Repu.   Energy =   108.3293461853
 Nuclear Attr.   Energy = -2194.4976409388
 Kinetic         Energy =   828.9502376754
 SCF time:  CPU 71.29 s  wall 87.18 s
 Final Alpha MO Eigenvalues
            1           2           3           4           5           6
    1 -88.0414439 -88.0414401 -10.2466882  -7.9912711  -7.9912669  -6.0292733
            7           8           9          10          11          12
    1  -6.0292306  -6.0243147  -6.0243145  -6.0243104  -6.0243100  -1.0753725
           13          14          15          16          17          18
    1  -0.9715675  -0.6679401  -0.5805331  -0.5413369  -0.5413353  -0.3904865
           19          20          21          22          23          24
    1  -0.3904839   0.0016447   0.0016476   0.0502984   0.0695733   0.0778095
 Analysis of SCF Wavefunction
 
 --------------------------------------------------------------
                    Orbital Energies (a.u.)
 --------------------------------------------------------------
 
 Alpha MOs
 -- Occupied --
-88.041 -88.041 -10.247  -7.991  -7.991  -6.029  -6.029  -6.024
 -6.024  -6.024  -6.024  -1.075  -0.972  -0.668  -0.581  -0.541
 -0.541  -0.390  -0.390
 -- Virtual --
  0.002   0.002   0.050   0.070   0.078   0.094   0.094   0.117
  0.117   0.120   0.182   0.182   0.193   0.214   0.236   0.296
  0.296   0.319   0.347   0.347   0.380   0.380   0.385   0.467
  0.467   0.472   0.512   0.525   0.525   0.581   0.581   0.775
  0.775   0.789   0.789   0.823   0.825   0.898   0.916   0.916
  0.993   0.993   1.015   1.015   1.035   1.035   1.039   1.100
  1.101   1.144   1.144   1.176   1.181   1.181   1.210   1.210
  1.216   1.364   1.364   1.399   1.464   1.534   1.534   1.662
  1.706   1.706   1.964   1.964   2.044   2.072   2.072   2.340
  2.513   2.902   2.902   2.964   2.964   3.080   3.080   3.161
  3.161   3.278   3.372   3.439   3.439   3.456   3.456   3.627
  3.627   3.632   3.632   3.642   3.689   3.689   3.725   3.725
  3.928   3.928   4.284   4.284   4.354   4.653   4.656   4.699
  4.702   4.876   5.043   5.043   5.264   5.264   5.370   6.023
  8.694   8.805  17.166  17.166  17.192  17.192  17.492  18.064
 23.491  23.540  23.554  23.651  23.665  23.774  23.774  23.827
 23.827  23.891  24.317  27.416  27.416  28.797  31.035  31.035
 31.035  31.035  31.041  31.042  31.042  31.042  31.046  31.046
 31.070  31.096  31.096  31.217  40.832  40.975  41.156  41.202
 41.202 189.842 189.880
 --------------------------------------------------------------
 
          Ground-State Mulliken Net Atomic Charges

     Atom                 Charge (a.u.)
  ----------------------------------------
      1 S                    -0.079015
      2 C                     0.158027
      3 S                    -0.079013
  ----------------------------------------
  Sum of atomic charges =     0.000000

 -----------------------------------------------------------------
                    Cartesian Multipole Moments
 -----------------------------------------------------------------
    Charge (ESU x 10^10)
                 0.0000
    Dipole Moment (Debye)
         X       0.0000      Y       0.0000      Z       0.0000
       Tot       0.0000
    Quadrupole Moments (Debye-Ang)
        XX     -31.7336     XY       0.0001     YY     -31.7336
        XZ       0.0000     YZ       0.0001     ZZ     -28.5182
    Octapole Moments (Debye-Ang^2)
       XXX       0.0000    XXY       0.0000    XYY       0.0000
       YYY       0.0000    XXZ     -49.6049    XYZ       0.0002
       YYZ     -49.6049    XZZ       0.0000    YZZ       0.0003
       ZZZ    -133.7360
    Hexadecapole Moments (Debye-Ang^3)
      XXXX     -41.6360   XXXY       0.0003   XXYY     -13.8787
      XYYY       0.0003   YYYY     -41.6360   XXXZ       0.0000
      XXYZ       0.0000   XYYZ       0.0000   YYYZ       0.0001
      XXZZ    -154.4978   XYZZ       0.0010   YYZZ    -154.4978
      XZZZ      -0.0002   YZZZ       0.0013   ZZZZ    -791.5093
 -----------------------------------------------------------------
 Total job time:  92.23s(wall), 71.53s(cpu) 
 Mon Apr 11 17:52:15 2011

        *************************************************************
        *                                                           *
        *  Thank you very much for using Q-Chem.  Have a nice day.  *
        *                                                           *
        *************************************************************


0 sent ACK to 0 
now end server 0 ... 
 
**********************************************************************
Job 3 of 3 
**********************************************************************
 
Process 0 of 1 is on cl156.stfx.acenet.ca - thread support 1
initial socket setup ...start
initial socket setup ...done 
now start server 0 ... 

cmd = /usr/bin/ssh clhead /usr/local/qchem/bin/get_hostid 280221462 > /globalscratch/itamblyn/bnl/g297_b3lyp_neut_g03Large/g2g71061/omega600/qchem5902/lic.dat
                  Welcome to Q-Chem
     A Quantum Leap Into The Future Of Chemistry

 Y. Shao, L. Fusti-Molnar, Y. Jung, J. Kussmann, C. Ochsenfeld,
 S. T. Brown, A. T. B. Gilbert, L. V. Slipchenko,S. V. Levchenko,
 D. P. O'Neill, R. A. DiStasio Jr., R. C. Lochan, T. Wang,
 G. J. O. Beran, N. A. Besley, J. M. Herbert, C. Y. Lin,
 T. Van Voorhis, S. H. Chien, A. Sodt, R. P. Steele, 
 V. A. Rassolov, P. E. Maslen, P. P. Korambath, R. D. Adamson,
 B. Austin, J. Baker, E. F. C. Byrd, H. Dachsel, R. J. Doerksen,
 A. Dreuw, B. D. Dunietz, A. D. Dutoi, T. R. Furlani,
 S. R. Gwaltney, A. Heyden, S. Hirata, C.-P. Hsu, G. Kedziora,
 R. Z. Khaliullin, P. Klunzinger, A. M. Lee, M. S. Lee, W. Liang,
 I. Lotan, N. Nair, B. Peters, E. I. Proynov, P. A. Pieniazek, 
 Y. M. Rhee, J. Ritchie, E. Rosta, C. D. Sherrill, 
 A. C. Simmonett, J. E. Subotnik, H. L. Woodcock III,
 W. Zhang, A. T. Bell, A. K. Chakraborty, D. M. Chipman,
 F. J. Keil, A. Warshel, W. J. Hehre, H. F. Schaefer III,
 J. Kong, A. I. Krylov, P. M. W. Gill, M. Head-Gordon,
 Q-Chem, Version 3.1, Q-Chem, Inc., Pittsburgh, PA (2007).

 Additional authors for Version 3.1: 
 Z. Gan, Y. Zhao, N. E. Schultz, D. Truhlar, E. Epifanovsky and M. Oana.

 Additional authors for Version 3.2: 
 R. Baer, B. R. Brooks, D. Casanova, J.-D. Chai, C.-L. Cheng, 
 C. Cramer, D. Crittenden, A. Ghysels, G. Hawkins, E. G. Hohenstein, 
 C. Kelley, W. Kurlancheek, D. Liotard, E. Livshits, P. Manohar, 
 A. Marenich, D. Neuhauser, R. Olson, M. A. Rohrdanz, K. S. Thanthiriwatte, 
 A. J. W. Thom, V. Vanovschi, C. F. Williams, Q. Wu and Z.-Q. You. 


 Intel X86 Linux Version

 Q-chem begins on Mon Apr 11 17:52:18 2011  

 Parallel job on  1  processors
Processing $rem in /usr/local/qchem/config/preferences.

theFileMan(): MAXOPENFILES=974 MAX_SUB_FILE_NUM=16
Maximum size of a physical file is 2.0 GB, maximum size of a tmp-file is 32.0 GB


--------------------------------------------------------------
User input:
--------------------------------------------------------------

$molecule
1,2
S
C,1,r1
X,2,1.,1,90.
S,2,r1,3,90.,1,180.,0

 r1=1.5631656

$end

$comment
positive
$end

$xc_functional
   X HF 1.0
   X BNL 1.0
   C LYP 1.0
$end

$rem
SYMMETRY_DECOMPOSITION	0
exchange 		general
BASIS                   g3large
omega			600
separate_jk		true
mem_static              760
max_scf_cycles          200
scf_final_print         1
sym_ignore              true
$end

--------------------------------------------------------------
 Writing REM_CC_EA            3
 ----------------------------------------------------
       Standard Nuclear Orientation (Angstroms)
    I     Atom         X            Y            Z
 ----------------------------------------------------
    1      S       0.000000     0.000000     0.000000
    2      C       0.000000     0.000000     1.563166
    3      S       0.000000     0.000000     3.126331
 ----------------------------------------------------
 Nuclear Repulsion Energy =   108.3293462036 hartrees
 There are       19 alpha and       18 beta electrons
 Requested basis set is G3large
 There are 48 shells and 174 basis functions

Total QAlloc Memory Limit   2000 MB
Mega-Array Size       743 MB
MEM_STATIC part       760 MB

                       Distance Matrix (Angstroms)
             S (  1)   C (  2)
   C (  2)  1.563166
   S (  3)  3.126331  1.563166
 
 A cutoff of  1.0D-08 yielded   1027 shell pairs
 There are  13934 function pairs ( 19546 Cartesian)
Evaluating contribution to one-electron hamiltonian from nuclear
 Smallest overlap matrix eigenvalue = 8.41E-05

 Q-Chem warning in module mkSTV.C, line 194:

 Overlap eigenvalue is smaller than square root of threshold

 Multipole matrices computed through 2nd order

  Scale SEOQF with 1.000000e-01/1.000000e-01/1.000000e-01

 Standard Electronic Orientation quadrupole field applied
 Nucleus-field energy     =    -0.0000000183 hartrees
 Guess from superposition of atomic densities
 Warning:  Energy on first SCF cycle will be non-variational
 An unrestricted hybrid HF-DFT SCF calculation will be
 performed using Pulay DIIS extrapolation
 Exchange:     1.0000 Hartree-Fock + 1.0000 BNL
 Correlation:  1.0000 LYP
 Using SG-1 standard quadrature grid
 SCF converges when DIIS error is below 1.0E-05
 Warning!  Inaccurate integrated density:
   Number of electrons =    37
   Numerical integral  =    37.999975127672
   Relative error      =     2.7026354802 %
 ---------------------------------------
  Cycle       Energy         DIIS Error
 ---------------------------------------
    1    -831.3583088427      3.13E-02
    2    -830.3594630347      3.58E-03
    3    -830.4089990182      3.22E-03
    4    -830.4456149231      6.72E-04
    5    -830.4501817782      2.74E-04
    6    -830.4524594157      1.04E-04
    7    -830.4534604868      3.32E-05
    8    -830.4537207417      9.56E-06 Convergence criterion met
 ---------------------------------------
 One-Electron    Energy = -1355.0908914828
 Total Coulomb   Energy =   468.9231407264
 Alpha Exchange  Energy =    -5.5050043463
 Beta  Exchange  Energy =    -5.2503434320
 DFT   Exchange  Energy =   -40.3752537720
 DFT Correlation Energy =    -1.4847146203
 Nuclear Repu.   Energy =   108.3293461853
 Nuclear Attr.   Energy = -2183.7025539881
 Kinetic         Energy =   828.6116625053
 <S^2> = 0.8714
 SCF time:  CPU 87.49 s  wall 105.02 s
 Final Alpha MO Eigenvalues
            1           2           3           4           5           6
    1 -88.3395335 -88.3395307 -10.4785237  -8.2844657  -8.2844605  -6.3265883
            7           8           9          10          11          12
    1  -6.3265836  -6.3200521  -6.3200113  -6.3141832  -6.3141788  -1.3379593
           13          14          15          16          17          18
    1  -1.2500444  -0.9295587  -0.8403440  -0.8050923  -0.7897052  -0.6934736
           19          20          21          22          23          24
    1  -0.6545418  -0.2335832  -0.2271391  -0.1126870  -0.0956245  -0.0689319
 Final Beta MO Eigenvalues
            1           2           3           4           5           6
    1 -88.3351879 -88.3351871 -10.4856467  -8.2798697  -8.2798522  -6.3169931
            7           8           9          10          11          12
    1  -6.3169555  -6.3166036  -6.3166016  -6.3102833  -6.3102803  -1.3274470
           13          14          15          16          17          18
    1  -1.2127502  -0.9129890  -0.8285541  -0.7897507  -0.7634351  -0.6384192
           19          20          21          22          23
    1  -0.3495750  -0.2314111  -0.1980361  -0.1134929  -0.0904398
 Analysis of SCF Wavefunction
 
 --------------------------------------------------------------
                    Orbital Energies (a.u.)
 --------------------------------------------------------------
 
 Alpha MOs
 -- Occupied --
-88.340 -88.340 -10.479  -8.284  -8.284  -6.327  -6.327  -6.320
 -6.320  -6.314  -6.314  -1.338  -1.250  -0.930  -0.840  -0.805
 -0.790  -0.693  -0.655
 -- Virtual --
 -0.234  -0.227  -0.113  -0.096  -0.069  -0.060  -0.056  -0.038
 -0.026  -0.024  -0.008   0.032   0.033   0.052   0.052   0.061
  0.063   0.110   0.111   0.144   0.146   0.158   0.205   0.256
  0.268   0.285   0.301   0.310   0.322   0.355   0.364   0.558
  0.558   0.560   0.564   0.597   0.607   0.666   0.673   0.685
  0.755   0.755   0.777   0.777   0.795   0.795   0.800   0.828
  0.830   0.877   0.878   0.921   0.936   0.941   0.969   0.983
  0.994   1.132   1.132   1.143   1.229   1.293   1.308   1.429
  1.441   1.457   1.693   1.713   1.808   1.809   1.826   2.091
  2.255   2.670   2.674   2.730   2.730   2.833   2.834   2.897
  2.908   3.020   3.129   3.196   3.198   3.198   3.205   3.335
  3.335   3.340   3.340   3.370   3.420   3.420   3.445   3.447
  3.665   3.674   4.003   4.017   4.093   4.364   4.367   4.410
  4.413   4.608   4.753   4.769   4.981   4.996   5.094   5.750
  8.409   8.522  16.864  16.878  16.891  16.904  17.203  17.775
 23.224  23.243  23.257  23.354  23.368  23.476  23.486  23.530
 23.539  23.600  24.061  27.183  27.187  28.560  30.739  30.740
 30.740  30.741  30.749  30.749  30.749  30.750  30.751  30.760
 30.781  30.801  30.809  30.928  40.603  40.742  40.927  40.968
 40.973 189.545 189.584
 
 Beta MOs
 -- Occupied --
-88.335 -88.335 -10.486  -8.280  -8.280  -6.317  -6.317  -6.317
 -6.317  -6.310  -6.310  -1.327  -1.213  -0.913  -0.829  -0.790
 -0.763  -0.638
 -- Virtual --
 -0.350  -0.231  -0.198  -0.113  -0.090  -0.069  -0.056  -0.054
 -0.033  -0.024  -0.024  -0.006   0.027   0.032   0.052   0.057
  0.079   0.079   0.134   0.135   0.148   0.160   0.167   0.205
  0.270   0.273   0.286   0.302   0.323   0.324   0.356   0.362
  0.553   0.554   0.556   0.563   0.600   0.606   0.671   0.682
  0.686   0.764   0.764   0.786   0.786   0.804   0.805   0.807
  0.851   0.851   0.896   0.896   0.935   0.940   0.949   0.977
  0.984   0.999   1.131   1.132   1.149   1.231   1.302   1.311
  1.431   1.455   1.461   1.714   1.719   1.809   1.823   1.830
  2.095   2.256   2.655   2.661   2.714   2.714   2.828   2.828
  2.903   2.908   3.024   3.123   3.185   3.185   3.198   3.204
  3.363   3.364   3.369   3.369   3.382   3.428   3.428   3.462
  3.462   3.667   3.672   4.014   4.020   4.093   4.376   4.379
  4.422   4.425   4.608   4.766   4.772   4.992   4.999   5.100
  5.758   8.417   8.529  16.877  16.883  16.903  16.910  17.207
 17.778  23.223  23.252  23.266  23.363  23.377  23.485  23.489
 23.538  23.542  23.605  24.057  27.176  27.177  28.556  30.743
 30.744  30.744  30.745  30.752  30.752  30.752  30.753  30.755
 30.761  30.783  30.805  30.810  30.930  40.591  40.735  40.916
 40.962  40.963 189.550 189.588
 --------------------------------------------------------------
 
          Ground-State Mulliken Net Atomic Charges

     Atom                 Charge (a.u.)    Spin (a.u.)
  --------------------------------------------------------
      1 S                     0.298679       0.705927
      2 C                     0.402647      -0.411825
      3 S                     0.298674       0.705898
  --------------------------------------------------------
  Sum of atomic charges =     1.000000
  Sum of spin   charges =     1.000000

 -----------------------------------------------------------------
                    Cartesian Multipole Moments
 -----------------------------------------------------------------
    Charge (ESU x 10^10)
                 4.8032
    Dipole Moment (Debye)
         X       0.0000      Y       0.0000      Z       7.5082
       Tot       7.5082
    Quadrupole Moments (Debye-Ang)
        XX     -27.1597     XY       1.1586     YY     -27.1779
        XZ      -0.0001     YZ       0.0000     ZZ      -0.2484
    Octapole Moments (Debye-Ang^2)
       XXX       0.0000    XXY       0.0000    XYY       0.0000
       YYY       0.0000    XXZ     -42.4552    XYZ       1.8110
       YYZ     -42.4835    XZZ      -0.0003    YZZ      -0.0001
       ZZZ     -37.8571
    Hexadecapole Moments (Debye-Ang^3)
      XXXX     -30.5684   XXXY       1.2259   XXYY     -10.1958
      XYYY       1.2259   YYYY     -30.6067   XXXZ      -0.0001
      XXYZ       0.0000   XYYZ       0.0000   YYYZ      -0.0001
      XXZZ    -128.1599   XYZZ       6.2940   YYZZ    -128.2584
      XZZZ      -0.0016   YZZZ       0.0001   ZZZZ    -431.5379
 -----------------------------------------------------------------
 Total job time:  107.36s(wall), 87.73s(cpu) 
 Mon Apr 11 17:54:06 2011

        *************************************************************
        *                                                           *
        *  Thank you very much for using Q-Chem.  Have a nice day.  *
        *                                                           *
        *************************************************************


0 sent ACK to 0 
now end server 0 ... 
