Process 0 of 1 is on cl121.stfx.acenet.ca - thread support 1
initial socket setup ...start
initial socket setup ...done 
now start server 0 ... 

cmd = /usr/bin/ssh clhead /usr/local/qchem/bin/get_hostid 266998147 > /scratch/tmp/5955950.1.short.q/qchem1577/lic.dat
                  Welcome to Q-Chem
     A Quantum Leap Into The Future Of Chemistry

 Y. Shao, L. Fusti-Molnar, Y. Jung, J. Kussmann, C. Ochsenfeld,
 S. T. Brown, A. T. B. Gilbert, L. V. Slipchenko,S. V. Levchenko,
 D. P. O'Neill, R. A. DiStasio Jr., R. C. Lochan, T. Wang,
 G. J. O. Beran, N. A. Besley, J. M. Herbert, C. Y. Lin,
 T. Van Voorhis, S. H. Chien, A. Sodt, R. P. Steele, 
 V. A. Rassolov, P. E. Maslen, P. P. Korambath, R. D. Adamson,
 B. Austin, J. Baker, E. F. C. Byrd, H. Dachsel, R. J. Doerksen,
 A. Dreuw, B. D. Dunietz, A. D. Dutoi, T. R. Furlani,
 S. R. Gwaltney, A. Heyden, S. Hirata, C.-P. Hsu, G. Kedziora,
 R. Z. Khaliullin, P. Klunzinger, A. M. Lee, M. S. Lee, W. Liang,
 I. Lotan, N. Nair, B. Peters, E. I. Proynov, P. A. Pieniazek, 
 Y. M. Rhee, J. Ritchie, E. Rosta, C. D. Sherrill, 
 A. C. Simmonett, J. E. Subotnik, H. L. Woodcock III,
 W. Zhang, A. T. Bell, A. K. Chakraborty, D. M. Chipman,
 F. J. Keil, A. Warshel, W. J. Hehre, H. F. Schaefer III,
 J. Kong, A. I. Krylov, P. M. W. Gill, M. Head-Gordon,
 Q-Chem, Version 3.1, Q-Chem, Inc., Pittsburgh, PA (2007).

 Additional authors for Version 3.1: 
 Z. Gan, Y. Zhao, N. E. Schultz, D. Truhlar, E. Epifanovsky and M. Oana.

 Additional authors for Version 3.2: 
 R. Baer, B. R. Brooks, D. Casanova, J.-D. Chai, C.-L. Cheng, 
 C. Cramer, D. Crittenden, A. Ghysels, G. Hawkins, E. G. Hohenstein, 
 C. Kelley, W. Kurlancheek, D. Liotard, E. Livshits, P. Manohar, 
 A. Marenich, D. Neuhauser, R. Olson, M. A. Rohrdanz, K. S. Thanthiriwatte, 
 A. J. W. Thom, V. Vanovschi, C. F. Williams, Q. Wu and Z.-Q. You. 


 Intel X86 Linux Version

 Q-chem begins on Tue Apr 30 21:57:19 2013  

 Parallel job on  1  processors
Processing $rem in /usr/local/qchem/config/preferences.

theFileMan(): MAXOPENFILES=974 MAX_SUB_FILE_NUM=16
Maximum size of a physical file is 2.0 GB, maximum size of a tmp-file is 32.0 GB


--------------------------------------------------------------
User input:
--------------------------------------------------------------

$molecule
-1,2
Si
F,1,sif
F,1,sif,2,109.47122063
F,1,sif,2,109.47122063,3,120.,0
F,1,sif,2,109.47122063,3,-120.,0

 sif=1.57895122

$end

$comment
negative
$end

$xc_functional
C PBE   1.00
X wPBE  1.00
$end

$rem
SYMMETRY_DECOMPOSITION	0
exchange 		general
LRC_DFT                 true
BASIS                   g3large
omega			450
mem_static              760
max_scf_cycles          200
scf_final_print         1
sym_ignore              true
$end

--------------------------------------------------------------
 Writing REM_CC_EA            5
 ----------------------------------------------------
       Standard Nuclear Orientation (Angstroms)
    I     Atom         X            Y            Z
 ----------------------------------------------------
    1      Si      0.000000     0.000000     0.000000
    2      F       0.000000     0.000000     1.578951
    3      F       1.488649     0.000000    -0.526317
    4      F      -0.744325    -1.289208    -0.526317
    5      F      -0.744325     1.289208    -0.526317
 ----------------------------------------------------
 Nuclear Repulsion Energy =   268.6563891850 hartrees
 There are       26 alpha and       25 beta electrons
 Requested basis set is G3large
 There are 59 shells and 234 basis functions

Total QAlloc Memory Limit   2000 MB
Mega-Array Size       743 MB
MEM_STATIC part       760 MB

                       Distance Matrix (Angstroms)
             Si(  1)   F (  2)   F (  3)   F (  4)
   F (  2)  1.578951
   F (  3)  1.578951  2.578417
   F (  4)  1.578951  2.578417  2.578417
   F (  5)  1.578951  2.578417  2.578417  2.578417
 
 A cutoff of  1.0D-08 yielded   1420 shell pairs
 There are  23083 function pairs ( 31060 Cartesian)
Evaluating contribution to one-electron hamiltonian from nuclear
 Smallest overlap matrix eigenvalue = 1.53E-04
 Multipole matrices computed through 2nd order

  Scale SEOQF with 1.000000e-01/1.000000e-01/1.000000e-01

 Standard Electronic Orientation quadrupole field applied
 Guess from superposition of atomic densities
 Warning:  Energy on first SCF cycle will be non-variational
 Long-range K will be added via erf
 Coulomb attenuation parameter = 0.45 bohr**(-1)
 An unrestricted Kohn-Sham SCF calculation will be
 performed using Pulay DIIS extrapolation
 Exchange:  wPBE + LR-HF      Correlation:  PBE
 Using SG-1 standard quadrature grid
 SCF converges when DIIS error is below 1.0E-05
 Requested basis set is G3large
 There are 59 shells and 234 basis functions
 A cutoff of  1.0D-08 yielded   1420 shell pairs
 There are  23083 function pairs ( 31060 Cartesian)
 Warning!  Inaccurate integrated density:
   Number of electrons =    51
   Numerical integral  =    50.000108853607
   Relative error      =    -1.9605708753 %
 ---------------------------------------
  Cycle       Energy         DIIS Error
 ---------------------------------------
    1    -689.3808079454      2.73E-02
    2    -688.7661109030      5.60E-03
    3    -688.8095997267      5.80E-03
    4    -688.9253275541      3.67E-04
    5    -688.9294741171      1.89E-04
    6    -688.9308499667      1.21E-04
    7    -688.9315477950      5.06E-05
    8    -688.9318048271      1.24E-05
    9    -688.9318203853      2.83E-06 Convergence criterion met
 ---------------------------------------
 One-Electron    Energy = -1502.3835031257
 Total Coulomb   Energy =   607.5803378447
 Alpha Exchange  Energy =    -5.9241905930
 Beta  Exchange  Energy =    -5.8420123919
 DFT   Exchange  Energy =   -49.2258854574
 DFT Correlation Energy =    -1.7929558470
 Nuclear Repu.   Energy =   268.6563891850
 Nuclear Attr.   Energy = -2190.0188086702
 Kinetic         Energy =   687.6353055444
 <S^2> = 0.7507
 SCF time:  CPU 160.94 s  wall 164.21 s
 Final Alpha MO Eigenvalues
            1           2           3           4           5           6
    1 -65.6116517 -24.3559507 -24.3559052 -24.3559024 -24.3557844  -5.2593706
            7           8           9          10          11          12
    1  -3.6593846  -3.6593542  -3.6593529  -1.2369313  -1.1982648  -1.1982347
           13          14          15          16          17          18
    1  -1.1981462  -0.5960749  -0.5209057  -0.5208861  -0.5208385  -0.4650277
           19          20          21          22          23          24
    1  -0.4650247  -0.4546833  -0.4546785  -0.4546719  -0.4153865  -0.4153506
           25          26          27          28          29          30
    1  -0.4153281   0.0351784   0.1653282   0.1653434   0.1653491   0.3189549
           31
    1   0.3369514
 Final Beta MO Eigenvalues
            1           2           3           4           5           6
    1 -65.6113428 -24.3554433 -24.3553993 -24.3553958 -24.3552771  -5.2589458
            7           8           9          10          11          12
    1  -3.6589385  -3.6589080  -3.6589067  -1.2352592  -1.1966286  -1.1965982
           13          14          15          16          17          18
    1  -1.1965067  -0.5940642  -0.5194738  -0.5194563  -0.5194108  -0.4644074
           19          20          21          22          23          24
    1  -0.4644055  -0.4526032  -0.4525971  -0.4525900  -0.4156555  -0.4156185
           25          26          27          28          29          30
    1  -0.4155980   0.1770608   0.1815853   0.1816150   0.1816228   0.3443143
 Analysis of SCF Wavefunction
 
 --------------------------------------------------------------
                    Orbital Energies (a.u.)
 --------------------------------------------------------------
 
 Alpha MOs
 -- Occupied --
-65.612 -24.356 -24.356 -24.356 -24.356  -5.259  -3.659  -3.659
 -3.659  -1.237  -1.198  -1.198  -1.198  -0.596  -0.521  -0.521
 -0.521  -0.465  -0.465  -0.455  -0.455  -0.455  -0.415  -0.415
 -0.415   0.035
 -- Virtual --
  0.165   0.165   0.165   0.319   0.337   0.337   0.337   0.418
  0.418   0.418   0.419   0.419   0.458   0.458   0.458   0.464
  0.523   0.523   0.523   0.570   0.604   0.604   0.604   0.614
  0.614   0.614   0.627   0.627   0.814   0.814   0.814   0.898
  0.933   0.933   0.933   0.981   0.981   0.981   1.076   1.076
  1.119   1.231   1.232   1.232   1.597   1.597   1.631   1.631
  1.631   1.642   1.642   1.642   1.686   1.694   1.694   1.694
  1.823   1.823   1.823   1.979   1.979   1.979   2.196   2.196
  2.197   2.274   2.275   2.334   2.334   2.334   2.353   2.353
  2.353   2.383   2.491   2.492   2.492   2.715   2.715   2.719
  2.904   2.904   2.904   3.135   3.135   3.135   3.377   3.377
  3.378   3.551   3.991   3.992   4.445   4.446   4.448   6.180
  6.390   6.390   6.485   6.485   6.485   6.518   6.518   6.518
  6.646   6.646   6.646   6.792   6.833   6.833   6.835   6.835
  6.835   6.861   6.869   6.869   6.869   6.877   6.877   6.877
  6.901   6.913   6.913   6.913   6.954   6.954   6.955   7.053
  7.053   7.156   7.156   7.156   7.335   7.336   7.336   7.728
  9.270   9.271   9.293   9.293   9.293   9.393   9.394   9.394
  9.553   9.553   9.553   9.618   9.619   9.619   9.655   9.655
  9.921   9.921   9.921  10.302  12.427  12.429  12.429  17.757
 17.819  17.961  18.024  18.099  22.318  22.322  22.327  22.332
 22.337  22.338  22.402  50.251  50.258  50.259  50.282  50.290
 50.306  50.324  50.335  50.378  50.381  50.389  50.394  50.397
 50.410  50.417  50.423  50.579  50.595  50.615  50.616  55.757
 55.757  55.809  55.809  55.809  55.856  55.856  55.856  55.990
 55.990  55.991  56.029  66.811  66.811  66.811  66.909 141.877
 
 Beta MOs
 -- Occupied --
-65.611 -24.355 -24.355 -24.355 -24.355  -5.259  -3.659  -3.659
 -3.659  -1.235  -1.197  -1.197  -1.197  -0.594  -0.519  -0.519
 -0.519  -0.464  -0.464  -0.453  -0.453  -0.453  -0.416  -0.416
 -0.416
 -- Virtual --
  0.177   0.182   0.182   0.182   0.344   0.346   0.347   0.347
  0.422   0.422   0.422   0.423   0.423   0.462   0.462   0.462
  0.466   0.522   0.523   0.523   0.574   0.606   0.606   0.606
  0.613   0.613   0.613   0.631   0.631   0.814   0.814   0.814
  0.900   0.935   0.935   0.935   0.982   0.982   0.982   1.078
  1.078   1.120   1.234   1.234   1.234   1.597   1.597   1.632
  1.632   1.632   1.643   1.643   1.643   1.686   1.696   1.696
  1.696   1.824   1.824   1.824   1.980   1.980   1.980   2.198
  2.198   2.198   2.274   2.274   2.335   2.335   2.335   2.352
  2.352   2.352   2.385   2.492   2.492   2.492   2.715   2.715
  2.723   2.905   2.905   2.906   3.137   3.138   3.138   3.378
  3.378   3.378   3.552   3.992   3.994   4.446   4.447   4.449
  6.181   6.390   6.390   6.485   6.485   6.485   6.518   6.518
  6.518   6.646   6.647   6.647   6.792   6.833   6.834   6.835
  6.835   6.835   6.861   6.869   6.869   6.869   6.877   6.877
  6.877   6.901   6.913   6.914   6.914   6.955   6.955   6.955
  7.054   7.054   7.157   7.157   7.157   7.336   7.337   7.337
  7.730   9.271   9.271   9.293   9.294   9.294   9.394   9.394
  9.394   9.554   9.554   9.554   9.619   9.620   9.620   9.656
  9.656   9.922   9.922   9.922  10.304  12.428  12.429  12.429
 17.758  17.820  17.962  18.024  18.099  22.318  22.323  22.327
 22.332  22.338  22.339  22.402  50.250  50.257  50.259  50.281
 50.289  50.305  50.323  50.335  50.377  50.381  50.389  50.394
 50.397  50.410  50.417  50.423  50.579  50.596  50.615  50.616
 55.757  55.757  55.809  55.809  55.809  55.856  55.856  55.856
 55.991  55.991  55.991  56.030  66.812  66.812  66.812  66.909
141.877
 --------------------------------------------------------------
 
          Ground-State Mulliken Net Atomic Charges

     Atom                 Charge (a.u.)    Spin (a.u.)
  --------------------------------------------------------
      1 Si                   -0.992854       3.005993
      2 F                    -0.002205      -0.501186
      3 F                    -0.001559      -0.501493
      4 F                    -0.001435      -0.501954
      5 F                    -0.001947      -0.501360
  --------------------------------------------------------
  Sum of atomic charges =    -1.000000
  Sum of spin   charges =     1.000000

 -----------------------------------------------------------------
                    Cartesian Multipole Moments
 -----------------------------------------------------------------
    Charge (ESU x 10^10)
                -4.8032
    Dipole Moment (Debye)
         X      -0.0370      Y      -0.0097      Z       0.0068
       Tot       0.0388
    Quadrupole Moments (Debye-Ang)
        XX     -49.8267     XY      -0.0010     YY     -49.8372
        XZ      -0.0035     YZ      -0.0012     ZZ     -49.8345
    Octapole Moments (Debye-Ang^2)
       XXX      -2.2020    XXY      -0.0325    XYY       1.7169
       YYY      -0.0976    XXZ       1.3198    XYZ       0.0002
       YYZ       1.3229    XZZ      -0.1207    YZZ      -0.0327
       ZZZ      -2.5370
    Hexadecapole Moments (Debye-Ang^3)
      XXXX    -275.0041   XXXY      -0.0020   XXYY     -91.7095
      XYYY      -0.0086   YYYY    -275.1083   XXXZ       1.6209
      XXYZ      -0.0027   XYYZ      -1.6624   YYYZ      -0.0082
      XXZZ     -90.5134   XYZZ      -0.0014   YYZZ     -90.5254
      XZZZ       0.0021   YZZZ      -0.0026   ZZZZ    -276.2792
 -----------------------------------------------------------------
 Total job time:  164.56s(wall), 161.26s(cpu) 
 Tue Apr 30 22:00:03 2013

        *************************************************************
        *                                                           *
        *  Thank you very much for using Q-Chem.  Have a nice day.  *
        *                                                           *
        *************************************************************


0 sent ACK to 0 
now end server 0 ... 
 
**********************************************************************
Job 2 of 3 
**********************************************************************
 
Process 0 of 1 is on cl121.stfx.acenet.ca - thread support 1
initial socket setup ...start
initial socket setup ...done 
now start server 0 ... 

cmd = /usr/bin/ssh clhead /usr/local/qchem/bin/get_hostid 1487570407 > /scratch/tmp/5955950.1.short.q/qchem1577/lic.dat
                  Welcome to Q-Chem
     A Quantum Leap Into The Future Of Chemistry

 Y. Shao, L. Fusti-Molnar, Y. Jung, J. Kussmann, C. Ochsenfeld,
 S. T. Brown, A. T. B. Gilbert, L. V. Slipchenko,S. V. Levchenko,
 D. P. O'Neill, R. A. DiStasio Jr., R. C. Lochan, T. Wang,
 G. J. O. Beran, N. A. Besley, J. M. Herbert, C. Y. Lin,
 T. Van Voorhis, S. H. Chien, A. Sodt, R. P. Steele, 
 V. A. Rassolov, P. E. Maslen, P. P. Korambath, R. D. Adamson,
 B. Austin, J. Baker, E. F. C. Byrd, H. Dachsel, R. J. Doerksen,
 A. Dreuw, B. D. Dunietz, A. D. Dutoi, T. R. Furlani,
 S. R. Gwaltney, A. Heyden, S. Hirata, C.-P. Hsu, G. Kedziora,
 R. Z. Khaliullin, P. Klunzinger, A. M. Lee, M. S. Lee, W. Liang,
 I. Lotan, N. Nair, B. Peters, E. I. Proynov, P. A. Pieniazek, 
 Y. M. Rhee, J. Ritchie, E. Rosta, C. D. Sherrill, 
 A. C. Simmonett, J. E. Subotnik, H. L. Woodcock III,
 W. Zhang, A. T. Bell, A. K. Chakraborty, D. M. Chipman,
 F. J. Keil, A. Warshel, W. J. Hehre, H. F. Schaefer III,
 J. Kong, A. I. Krylov, P. M. W. Gill, M. Head-Gordon,
 Q-Chem, Version 3.1, Q-Chem, Inc., Pittsburgh, PA (2007).

 Additional authors for Version 3.1: 
 Z. Gan, Y. Zhao, N. E. Schultz, D. Truhlar, E. Epifanovsky and M. Oana.

 Additional authors for Version 3.2: 
 R. Baer, B. R. Brooks, D. Casanova, J.-D. Chai, C.-L. Cheng, 
 C. Cramer, D. Crittenden, A. Ghysels, G. Hawkins, E. G. Hohenstein, 
 C. Kelley, W. Kurlancheek, D. Liotard, E. Livshits, P. Manohar, 
 A. Marenich, D. Neuhauser, R. Olson, M. A. Rohrdanz, K. S. Thanthiriwatte, 
 A. J. W. Thom, V. Vanovschi, C. F. Williams, Q. Wu and Z.-Q. You. 


 Intel X86 Linux Version

 Q-chem begins on Tue Apr 30 22:00:07 2013  

 Parallel job on  1  processors
Processing $rem in /usr/local/qchem/config/preferences.

theFileMan(): MAXOPENFILES=974 MAX_SUB_FILE_NUM=16
Maximum size of a physical file is 2.0 GB, maximum size of a tmp-file is 32.0 GB


--------------------------------------------------------------
User input:
--------------------------------------------------------------

$molecule
0,1
Si
F,1,sif
F,1,sif,2,109.47122063
F,1,sif,2,109.47122063,3,120.,0
F,1,sif,2,109.47122063,3,-120.,0

 sif=1.57895122

$end

$comment
neutral
$end

$xc_functional
C PBE   1.00
X wPBE  1.00
$end


$rem
SYMMETRY_DECOMPOSITION	0
LRC_DFT                 true
exchange 		general
BASIS                   g3large
omega			450
mem_static              760
max_scf_cycles          200
scf_final_print         1
sym_ignore              true
$end

--------------------------------------------------------------
 Writing REM_CC_EA            5
 ----------------------------------------------------
       Standard Nuclear Orientation (Angstroms)
    I     Atom         X            Y            Z
 ----------------------------------------------------
    1      Si      0.000000     0.000000     0.000000
    2      F       0.000000     0.000000     1.578951
    3      F       1.488649     0.000000    -0.526317
    4      F      -0.744325    -1.289208    -0.526317
    5      F      -0.744325     1.289208    -0.526317
 ----------------------------------------------------
 Nuclear Repulsion Energy =   268.6563891850 hartrees
 There are       25 alpha and       25 beta electrons
 Requested basis set is G3large
 There are 59 shells and 234 basis functions

Total QAlloc Memory Limit   2000 MB
Mega-Array Size       743 MB
MEM_STATIC part       760 MB

                       Distance Matrix (Angstroms)
             Si(  1)   F (  2)   F (  3)   F (  4)
   F (  2)  1.578951
   F (  3)  1.578951  2.578417
   F (  4)  1.578951  2.578417  2.578417
   F (  5)  1.578951  2.578417  2.578417  2.578417
 
 A cutoff of  1.0D-08 yielded   1420 shell pairs
 There are  23083 function pairs ( 31060 Cartesian)
Evaluating contribution to one-electron hamiltonian from nuclear
 Smallest overlap matrix eigenvalue = 1.53E-04
 Multipole matrices computed through 2nd order

  Scale SEOQF with 1.000000e-01/1.000000e-01/1.000000e-01

 Standard Electronic Orientation quadrupole field applied
 Guess from superposition of atomic densities
 Warning:  Energy on first SCF cycle will be non-variational
 Long-range K will be added via erf
 Coulomb attenuation parameter = 0.45 bohr**(-1)
 A restricted Kohn-Sham SCF calculation will be
 performed using Pulay DIIS extrapolation
 Exchange:  wPBE + LR-HF      Correlation:  PBE
 Using SG-1 standard quadrature grid
 SCF converges when DIIS error is below 1.0E-05
 Requested basis set is G3large
 There are 59 shells and 234 basis functions
 A cutoff of  1.0D-08 yielded   1420 shell pairs
 There are  23083 function pairs ( 31060 Cartesian)
 ---------------------------------------
  Cycle       Energy         DIIS Error
 ---------------------------------------
    1    -689.3808079454      2.73E-02
    2    -688.8496641056      5.23E-03
    3    -688.8864045543      4.99E-03
    4    -688.9707548048      3.25E-04
    5    -688.9712358070      9.36E-05
    6    -688.9712870452      5.07E-05
    7    -688.9712963721      1.20E-05
    8    -688.9712974381      2.00E-06 Convergence criterion met
 ---------------------------------------
 One-Electron    Energy = -1493.3525504470
 Total Coulomb   Energy =   598.3984575048
 Alpha Exchange  Energy =    -5.8436680301
 Beta  Exchange  Energy =    -5.8436680301
 DFT   Exchange  Energy =   -49.2043751324
 DFT Correlation Energy =    -1.7818824881
 Nuclear Repu.   Energy =   268.6563891850
 Nuclear Attr.   Energy = -2180.7431110115
 Kinetic         Energy =   687.3905605645
 SCF time:  CPU 112.67 s  wall 114.65 s
 Final Alpha MO Eigenvalues
            1           2           3           4           5           6
    1 -65.8006256 -24.5369666 -24.5369535 -24.5369402 -24.5369293  -5.4480200
            7           8           9          10          11          12
    1  -3.8480260  -3.8479935  -3.8479928  -1.4175180  -1.3779019  -1.3778912
           13          14          15          16          17          18
    1  -1.3778779  -0.7736551  -0.6990470  -0.6990419  -0.6990355  -0.6443564
           19          20          21          22          23          24
    1  -0.6443546  -0.6318565  -0.6318544  -0.6318486  -0.5949477  -0.5949456
           25          26          27          28          29          30
    1  -0.5949265   0.0438070   0.0660855   0.0660871   0.0660892   0.1784185
 Analysis of SCF Wavefunction
 
 --------------------------------------------------------------
                    Orbital Energies (a.u.)
 --------------------------------------------------------------
 
 Alpha MOs
 -- Occupied --
-65.801 -24.537 -24.537 -24.537 -24.537  -5.448  -3.848  -3.848
 -3.848  -1.418  -1.378  -1.378  -1.378  -0.774  -0.699  -0.699
 -0.699  -0.644  -0.644  -0.632  -0.632  -0.632  -0.595  -0.595
 -0.595
 -- Virtual --
  0.044   0.066   0.066   0.066   0.178   0.196   0.196   0.196
  0.278   0.278   0.278   0.278   0.278   0.306   0.306   0.306
  0.322   0.377   0.377   0.377   0.413   0.443   0.444   0.444
  0.457   0.457   0.469   0.469   0.469   0.657   0.657   0.657
  0.737   0.764   0.764   0.764   0.816   0.816   0.816   0.901
  0.901   0.952   1.050   1.050   1.050   1.427   1.427   1.465
  1.465   1.465   1.471   1.471   1.471   1.522   1.522   1.522
  1.523   1.651   1.652   1.652   1.798   1.798   1.798   2.019
  2.019   2.019   2.096   2.096   2.156   2.156   2.156   2.174
  2.174   2.174   2.206   2.314   2.314   2.314   2.535   2.535
  2.537   2.723   2.723   2.724   2.954   2.955   2.955   3.197
  3.198   3.198   3.372   3.806   3.807   4.263   4.264   4.265
  6.000   6.212   6.212   6.307   6.307   6.307   6.340   6.340
  6.340   6.467   6.467   6.467   6.613   6.654   6.654   6.655
  6.656   6.656   6.682   6.689   6.689   6.689   6.697   6.697
  6.697   6.722   6.734   6.734   6.734   6.775   6.775   6.775
  6.874   6.874   6.976   6.977   6.977   7.155   7.155   7.156
  7.546   9.091   9.091   9.114   9.114   9.114   9.214   9.214
  9.214   9.374   9.374   9.374   9.439   9.440   9.440   9.476
  9.476   9.742   9.742   9.742  10.124  12.241  12.242  12.242
 17.569  17.631  17.773  17.835  17.910  22.129  22.134  22.138
 22.143  22.149  22.150  22.213  50.070  50.077  50.078  50.101
 50.109  50.125  50.143  50.154  50.197  50.201  50.208  50.213
 50.216  50.230  50.236  50.242  50.398  50.415  50.434  50.435
 55.576  55.576  55.628  55.628  55.628  55.675  55.675  55.675
 55.810  55.810  55.810  55.849  66.630  66.630  66.630  66.728
141.688
 --------------------------------------------------------------
 
          Ground-State Mulliken Net Atomic Charges

     Atom                 Charge (a.u.)
  ----------------------------------------
      1 Si                    1.901801
      2 F                    -0.475510
      3 F                    -0.475490
      4 F                    -0.475394
      5 F                    -0.475407
  ----------------------------------------
  Sum of atomic charges =     0.000000

 -----------------------------------------------------------------
                    Cartesian Multipole Moments
 -----------------------------------------------------------------
    Charge (ESU x 10^10)
                 0.0000
    Dipole Moment (Debye)
         X       0.0004      Y       0.0001      Z       0.0000
       Tot       0.0004
    Quadrupole Moments (Debye-Ang)
        XX     -32.7809     XY       0.0001     YY     -32.7819
        XZ      -0.0003     YZ      -0.0001     ZZ     -32.7810
    Octapole Moments (Debye-Ang^2)
       XXX      -3.4951    XXY       0.0001    XYY       3.4958
       YYY       0.0002    XXZ       2.4714    XYZ       0.0000
       YYZ       2.4716    XZZ       0.0000    YZZ       0.0001
       ZZZ      -4.9434
    Hexadecapole Moments (Debye-Ang^3)
      XXXX    -128.9477   XXXY       0.0003   XXYY     -42.9840
      XYYY       0.0002   YYYY    -128.9512   XXXZ       1.2854
      XXYZ      -0.0001   XYYZ      -1.2864   YYYZ      -0.0003
      XXZZ     -42.0735   XYZZ       0.0000   YYZZ     -42.0739
      XZZZ      -0.0001   YZZZ      -0.0004   ZZZZ    -129.8577
 -----------------------------------------------------------------
 Total job time:  114.99s(wall), 112.97s(cpu) 
 Tue Apr 30 22:02:02 2013

        *************************************************************
        *                                                           *
        *  Thank you very much for using Q-Chem.  Have a nice day.  *
        *                                                           *
        *************************************************************


0 sent ACK to 0 
now end server 0 ... 
 
**********************************************************************
Job 3 of 3 
**********************************************************************
 
Process 0 of 1 is on cl121.stfx.acenet.ca - thread support 1
initial socket setup ...start
initial socket setup ...done 
now start server 0 ... 

cmd = /usr/bin/ssh clhead /usr/local/qchem/bin/get_hostid 1016307170 > /scratch/tmp/5955950.1.short.q/qchem1577/lic.dat
                  Welcome to Q-Chem
     A Quantum Leap Into The Future Of Chemistry

 Y. Shao, L. Fusti-Molnar, Y. Jung, J. Kussmann, C. Ochsenfeld,
 S. T. Brown, A. T. B. Gilbert, L. V. Slipchenko,S. V. Levchenko,
 D. P. O'Neill, R. A. DiStasio Jr., R. C. Lochan, T. Wang,
 G. J. O. Beran, N. A. Besley, J. M. Herbert, C. Y. Lin,
 T. Van Voorhis, S. H. Chien, A. Sodt, R. P. Steele, 
 V. A. Rassolov, P. E. Maslen, P. P. Korambath, R. D. Adamson,
 B. Austin, J. Baker, E. F. C. Byrd, H. Dachsel, R. J. Doerksen,
 A. Dreuw, B. D. Dunietz, A. D. Dutoi, T. R. Furlani,
 S. R. Gwaltney, A. Heyden, S. Hirata, C.-P. Hsu, G. Kedziora,
 R. Z. Khaliullin, P. Klunzinger, A. M. Lee, M. S. Lee, W. Liang,
 I. Lotan, N. Nair, B. Peters, E. I. Proynov, P. A. Pieniazek, 
 Y. M. Rhee, J. Ritchie, E. Rosta, C. D. Sherrill, 
 A. C. Simmonett, J. E. Subotnik, H. L. Woodcock III,
 W. Zhang, A. T. Bell, A. K. Chakraborty, D. M. Chipman,
 F. J. Keil, A. Warshel, W. J. Hehre, H. F. Schaefer III,
 J. Kong, A. I. Krylov, P. M. W. Gill, M. Head-Gordon,
 Q-Chem, Version 3.1, Q-Chem, Inc., Pittsburgh, PA (2007).

 Additional authors for Version 3.1: 
 Z. Gan, Y. Zhao, N. E. Schultz, D. Truhlar, E. Epifanovsky and M. Oana.

 Additional authors for Version 3.2: 
 R. Baer, B. R. Brooks, D. Casanova, J.-D. Chai, C.-L. Cheng, 
 C. Cramer, D. Crittenden, A. Ghysels, G. Hawkins, E. G. Hohenstein, 
 C. Kelley, W. Kurlancheek, D. Liotard, E. Livshits, P. Manohar, 
 A. Marenich, D. Neuhauser, R. Olson, M. A. Rohrdanz, K. S. Thanthiriwatte, 
 A. J. W. Thom, V. Vanovschi, C. F. Williams, Q. Wu and Z.-Q. You. 


 Intel X86 Linux Version

 Q-chem begins on Tue Apr 30 22:02:05 2013  

 Parallel job on  1  processors
Processing $rem in /usr/local/qchem/config/preferences.

theFileMan(): MAXOPENFILES=974 MAX_SUB_FILE_NUM=16
Maximum size of a physical file is 2.0 GB, maximum size of a tmp-file is 32.0 GB


--------------------------------------------------------------
User input:
--------------------------------------------------------------

$molecule
1,2
Si
F,1,sif
F,1,sif,2,109.47122063
F,1,sif,2,109.47122063,3,120.,0
F,1,sif,2,109.47122063,3,-120.,0

 sif=1.57895122

$end

$comment
positive
$end

$xc_functional
C PBE   1.00
X wPBE  1.00
$end

$rem
SYMMETRY_DECOMPOSITION	0
LRC_DFT                 true
exchange 		general
BASIS                   g3large
omega			450
mem_static              760
max_scf_cycles          200
scf_final_print         1
sym_ignore              true
$end

--------------------------------------------------------------
 Writing REM_CC_EA            5
 ----------------------------------------------------
       Standard Nuclear Orientation (Angstroms)
    I     Atom         X            Y            Z
 ----------------------------------------------------
    1      Si      0.000000     0.000000     0.000000
    2      F       0.000000     0.000000     1.578951
    3      F       1.488649     0.000000    -0.526317
    4      F      -0.744325    -1.289208    -0.526317
    5      F      -0.744325     1.289208    -0.526317
 ----------------------------------------------------
 Nuclear Repulsion Energy =   268.6563891850 hartrees
 There are       25 alpha and       24 beta electrons
 Requested basis set is G3large
 There are 59 shells and 234 basis functions

Total QAlloc Memory Limit   2000 MB
Mega-Array Size       743 MB
MEM_STATIC part       760 MB

                       Distance Matrix (Angstroms)
             Si(  1)   F (  2)   F (  3)   F (  4)
   F (  2)  1.578951
   F (  3)  1.578951  2.578417
   F (  4)  1.578951  2.578417  2.578417
   F (  5)  1.578951  2.578417  2.578417  2.578417
 
 A cutoff of  1.0D-08 yielded   1420 shell pairs
 There are  23083 function pairs ( 31060 Cartesian)
Evaluating contribution to one-electron hamiltonian from nuclear
 Smallest overlap matrix eigenvalue = 1.53E-04
 Multipole matrices computed through 2nd order

  Scale SEOQF with 1.000000e-01/1.000000e-01/1.000000e-01

 Standard Electronic Orientation quadrupole field applied
 Guess from superposition of atomic densities
 Warning:  Energy on first SCF cycle will be non-variational
 Long-range K will be added via erf
 Coulomb attenuation parameter = 0.45 bohr**(-1)
 An unrestricted Kohn-Sham SCF calculation will be
 performed using Pulay DIIS extrapolation
 Exchange:  wPBE + LR-HF      Correlation:  PBE
 Using SG-1 standard quadrature grid
 SCF converges when DIIS error is below 1.0E-05
 Requested basis set is G3large
 There are 59 shells and 234 basis functions
 A cutoff of  1.0D-08 yielded   1420 shell pairs
 There are  23083 function pairs ( 31060 Cartesian)
 Warning!  Inaccurate integrated density:
   Number of electrons =    49
   Numerical integral  =    50.000108853607
   Relative error      =     2.0410384767 %
 ---------------------------------------
  Cycle       Energy         DIIS Error
 ---------------------------------------
    1    -689.3808079454      2.73E-02
    2    -688.1206739752      6.34E-03
    3    -687.8475658826      1.12E-02
    4    -688.3504790716      1.17E-03
    5    -688.3575630247      8.35E-04
    6    -688.3608094545      4.24E-04
    7    -688.3621938062      3.24E-04
    8    -688.3634027974      2.71E-04
    9    -688.3650089844      1.77E-04
   10    -688.3659697152      9.56E-05
   11    -688.3663940100      3.86E-05
   12    -688.3665069384      2.50E-05
   13    -688.3665613878      1.81E-05
   14    -688.3665920703      1.03E-05
   15    -688.3666016892      1.07E-05
   16    -688.3666083993      7.14E-06 Convergence criterion met
 ---------------------------------------
 One-Electron    Energy = -1478.5344771420
 Total Coulomb   Energy =   583.6526820453
 Alpha Exchange  Energy =    -5.8684338871
 Beta  Exchange  Energy =    -5.5507683634
 DFT   Exchange  Energy =   -48.9813410472
 DFT Correlation Energy =    -1.7406591900
 Nuclear Repu.   Energy =   268.6563891850
 Nuclear Attr.   Energy = -2165.4840591944
 Kinetic         Energy =   686.9495820524
 <S^2> = 0.7589
 SCF time:  CPU 293.23 s  wall 298.91 s
 Final Alpha MO Eigenvalues
            1           2           3           4           5           6
    1 -66.0906468 -24.8795979 -24.8728727 -24.8445396 -24.8315407  -5.7375420
            7           8           9          10          11          12
    1  -4.1379397  -4.1375074  -4.1370654  -1.7273399  -1.6997470  -1.6791614
           13          14          15          16          17          18
    1  -1.6642958  -1.0646417  -1.0024064  -0.9990389  -0.9849013  -0.9620052
           19          20          21          22          23          24
    1  -0.9455872  -0.9411291  -0.9266465  -0.9228555  -0.9117134  -0.8900979
           25          26          27          28          29          30
    1  -0.8834925  -0.1642177  -0.0905624  -0.0904528  -0.0885810  -0.0414957
 Final Beta MO Eigenvalues
            1           2           3           4           5           6
    1 -66.0908723 -24.8700829 -24.8638986 -24.8379040 -24.8259983  -5.7379107
            7           8           9          10          11          12
    1  -4.1384344  -4.1379923  -4.1374375  -1.7082335  -1.6750219  -1.6603166
           13          14          15          16          17          18
    1  -1.6490946  -1.0576505  -0.9867264  -0.9749416  -0.9725846  -0.9306419
           19          20          21          22          23          24
    1  -0.9158748  -0.8993286  -0.8920487  -0.8729733  -0.8489204  -0.8448960
           25          26          27          28          29
    1  -0.6152048  -0.1637513  -0.0884051  -0.0859880  -0.0859143
 Analysis of SCF Wavefunction
 
 --------------------------------------------------------------
                    Orbital Energies (a.u.)
 --------------------------------------------------------------
 
 Alpha MOs
 -- Occupied --
-66.091 -24.880 -24.873 -24.845 -24.832  -5.738  -4.138  -4.138
 -4.137  -1.727  -1.700  -1.679  -1.664  -1.065  -1.002  -0.999
 -0.985  -0.962  -0.946  -0.941  -0.927  -0.923  -0.912  -0.890
 -0.883
 -- Virtual --
 -0.164  -0.091  -0.090  -0.089  -0.041  -0.028  -0.027  -0.025
  0.080   0.084   0.090   0.092   0.093   0.115   0.116   0.119
  0.133   0.187   0.192   0.194   0.206   0.210   0.211   0.219
  0.220   0.220   0.286   0.286   0.288   0.445   0.446   0.448
  0.517   0.528   0.531   0.531   0.590   0.590   0.593   0.648
  0.650   0.717   0.765   0.769   0.776   1.165   1.175   1.198
  1.212   1.215   1.219   1.221   1.232   1.268   1.268   1.272
  1.292   1.398   1.399   1.404   1.510   1.521   1.524   1.743
  1.745   1.752   1.807   1.809   1.878   1.880   1.883   1.887
  1.892   1.896   1.934   2.025   2.032   2.037   2.244   2.251
  2.254   2.436   2.437   2.442   2.664   2.674   2.677   2.904
  2.913   2.925   3.094   3.520   3.523   3.983   3.984   3.987
  5.715   5.891   5.913   5.974   6.003   6.010   6.036   6.038
  6.050   6.159   6.164   6.177   6.311   6.340   6.343   6.350
  6.356   6.361   6.364   6.371   6.375   6.376   6.398   6.399
  6.411   6.423   6.427   6.437   6.441   6.470   6.477   6.490
  6.568   6.582   6.663   6.683   6.689   6.854   6.855   6.864
  7.250   8.761   8.765   8.780   8.801   8.803   8.886   8.897
  8.906   9.043   9.065   9.074   9.114   9.125   9.140   9.164
  9.178   9.423   9.437   9.454   9.823  11.951  11.953  11.955
 17.279  17.342  17.484  17.547  17.621  21.839  21.845  21.849
 21.854  21.859  21.860  21.924  49.731  49.747  49.754  49.758
 49.797  49.797  49.806  49.832  49.856  49.862  49.882  49.893
 49.905  49.920  49.930  49.940  50.093  50.095  50.101  50.122
 55.242  55.255  55.284  55.311  55.315  55.350  55.357  55.369
 55.475  55.487  55.511  55.541  66.292  66.308  66.331  66.413
141.398
 
 Beta MOs
 -- Occupied --
-66.091 -24.870 -24.864 -24.838 -24.826  -5.738  -4.138  -4.138
 -4.137  -1.708  -1.675  -1.660  -1.649  -1.058  -0.987  -0.975
 -0.973  -0.931  -0.916  -0.899  -0.892  -0.873  -0.849  -0.845
 -- Virtual --
 -0.615  -0.164  -0.088  -0.086  -0.086  -0.040  -0.027  -0.024
 -0.023   0.084   0.086   0.090   0.093   0.093   0.115   0.116
  0.119   0.133   0.191   0.193   0.196   0.209   0.211   0.212
  0.219   0.221   0.221   0.288   0.288   0.288   0.446   0.447
  0.449   0.516   0.530   0.532   0.532   0.591   0.591   0.594
  0.647   0.649   0.716   0.767   0.772   0.777   1.179   1.182
  1.216   1.218   1.223   1.225   1.226   1.235   1.272   1.273
  1.274   1.296   1.401   1.405   1.408   1.519   1.523   1.527
  1.747   1.750   1.754   1.824   1.826   1.887   1.889   1.892
  1.900   1.908   1.911   1.939   2.041   2.046   2.051   2.254
  2.258   2.258   2.442   2.445   2.447   2.672   2.676   2.680
  2.911   2.919   2.929   3.099   3.521   3.523   3.984   3.985
  3.987   5.718   5.922   5.928   6.014   6.021   6.023   6.054
  6.058   6.061   6.174   6.179   6.185   6.325   6.357   6.361
  6.366   6.373   6.380   6.389   6.390   6.400   6.400   6.417
  6.417   6.428   6.441   6.444   6.451   6.456   6.480   6.488
  6.497   6.586   6.587   6.682   6.691   6.696   6.864   6.865
  6.869   7.255   8.797   8.800   8.817   8.828   8.830   8.918
  8.927   8.933   9.076   9.081   9.088   9.142   9.145   9.156
  9.185   9.190   9.439   9.450   9.463   9.834  11.952  11.954
 11.956  17.279  17.341  17.484  17.546  17.621  21.839  21.844
 21.848  21.853  21.859  21.860  21.923  49.757  49.769  49.776
 49.783  49.813  49.818  49.829  49.854  49.879  49.884  49.888
 49.901  49.917  49.933  49.940  49.947  50.101  50.107  50.113
 50.128  55.261  55.265  55.309  55.321  55.324  55.362  55.371
 55.378  55.482  55.493  55.515  55.545  66.302  66.316  66.337
 66.420 141.398
 --------------------------------------------------------------
 
          Ground-State Mulliken Net Atomic Charges

     Atom                 Charge (a.u.)    Spin (a.u.)
  --------------------------------------------------------
      1 Si                    1.840237      -0.136267
      2 F                    -0.229915       0.248011
      3 F                    -0.250819       0.208622
      4 F                    -0.174096       0.349712
      5 F                    -0.185407       0.329922
  --------------------------------------------------------
  Sum of atomic charges =     1.000000
  Sum of spin   charges =     1.000000

 -----------------------------------------------------------------
                    Cartesian Multipole Moments
 -----------------------------------------------------------------
    Charge (ESU x 10^10)
                 4.8032
    Dipole Moment (Debye)
         X      -0.5592      Y      -0.0750      Z      -0.2185
       Tot       0.6050
    Quadrupole Moments (Debye-Ang)
        XX     -26.6937     XY       0.1313     YY     -25.7479
        XZ       0.4215     YZ      -0.0379     ZZ     -26.6506
    Octapole Moments (Debye-Ang^2)
       XXX      -1.5782    XXY      -0.0594    XYY      -0.0988
       YYY      -0.1666    XXZ       0.1284    XYZ      -0.0037
       YYZ       0.0405    XZZ      -0.3868    YZZ      -0.0502
       ZZZ      -0.9786
    Hexadecapole Moments (Debye-Ang^3)
      XXXX    -110.0953   XXXY      -0.3037   XXYY     -36.2564
      XYYY       0.3536   YYYY    -106.2590   XXXZ       0.5818
      XXYZ      -0.0908   XYYZ       0.6198   YYYZ      -0.2164
      XXZZ     -36.5947   XYZZ       0.4528   YYZZ     -36.5103
      XZZZ       0.5049   YZZZ       0.1935   ZZZZ    -109.6438
 -----------------------------------------------------------------
 Total job time:  299.25s(wall), 293.54s(cpu) 
 Tue Apr 30 22:07:05 2013

        *************************************************************
        *                                                           *
        *  Thank you very much for using Q-Chem.  Have a nice day.  *
        *                                                           *
        *************************************************************


0 sent ACK to 0 
now end server 0 ... 
