Process 0 of 1 is on cl141.stfx.acenet.ca - thread support 1
initial socket setup ...start
initial socket setup ...done 
now start server 0 ... 

cmd = /usr/bin/ssh clhead /usr/local/qchem/bin/get_hostid 90556689 > /globalscratch/itamblyn/bnl/g297_b3lyp_neut_g03Large_worked/g2g71071/omega480/qchem25545/lic.dat
                  Welcome to Q-Chem
     A Quantum Leap Into The Future Of Chemistry

 Y. Shao, L. Fusti-Molnar, Y. Jung, J. Kussmann, C. Ochsenfeld,
 S. T. Brown, A. T. B. Gilbert, L. V. Slipchenko,S. V. Levchenko,
 D. P. O'Neill, R. A. DiStasio Jr., R. C. Lochan, T. Wang,
 G. J. O. Beran, N. A. Besley, J. M. Herbert, C. Y. Lin,
 T. Van Voorhis, S. H. Chien, A. Sodt, R. P. Steele, 
 V. A. Rassolov, P. E. Maslen, P. P. Korambath, R. D. Adamson,
 B. Austin, J. Baker, E. F. C. Byrd, H. Dachsel, R. J. Doerksen,
 A. Dreuw, B. D. Dunietz, A. D. Dutoi, T. R. Furlani,
 S. R. Gwaltney, A. Heyden, S. Hirata, C.-P. Hsu, G. Kedziora,
 R. Z. Khaliullin, P. Klunzinger, A. M. Lee, M. S. Lee, W. Liang,
 I. Lotan, N. Nair, B. Peters, E. I. Proynov, P. A. Pieniazek, 
 Y. M. Rhee, J. Ritchie, E. Rosta, C. D. Sherrill, 
 A. C. Simmonett, J. E. Subotnik, H. L. Woodcock III,
 W. Zhang, A. T. Bell, A. K. Chakraborty, D. M. Chipman,
 F. J. Keil, A. Warshel, W. J. Hehre, H. F. Schaefer III,
 J. Kong, A. I. Krylov, P. M. W. Gill, M. Head-Gordon,
 Q-Chem, Version 3.1, Q-Chem, Inc., Pittsburgh, PA (2007).

 Additional authors for Version 3.1: 
 Z. Gan, Y. Zhao, N. E. Schultz, D. Truhlar, E. Epifanovsky and M. Oana.

 Additional authors for Version 3.2: 
 R. Baer, B. R. Brooks, D. Casanova, J.-D. Chai, C.-L. Cheng, 
 C. Cramer, D. Crittenden, A. Ghysels, G. Hawkins, E. G. Hohenstein, 
 C. Kelley, W. Kurlancheek, D. Liotard, E. Livshits, P. Manohar, 
 A. Marenich, D. Neuhauser, R. Olson, M. A. Rohrdanz, K. S. Thanthiriwatte, 
 A. J. W. Thom, V. Vanovschi, C. F. Williams, Q. Wu and Z.-Q. You. 


 Intel X86 Linux Version

 Q-chem begins on Fri Apr 15 15:40:49 2011  

 Parallel job on  1  processors
Processing $rem in /usr/local/qchem/config/preferences.

theFileMan(): MAXOPENFILES=974 MAX_SUB_FILE_NUM=16
Maximum size of a physical file is 2.0 GB, maximum size of a tmp-file is 32.0 GB


--------------------------------------------------------------
User input:
--------------------------------------------------------------

$molecule
-1,2
Cl
F,1,R1
F,1,R2,2,A1
F,1,R2,2,A1,3,180.,0

 R1=1.65054633
 R2=1.72853794
 A1=87.06930496

$end

$comment
negative
$end

$xc_functional
   X HF 1.0
   X BNL 1.0
   C LYP 1.0
$end

$rem
SYMMETRY_DECOMPOSITION	0
exchange 		general
BASIS                   g3large
omega			480
separate_jk		true
mem_static              760
max_scf_cycles          200
scf_final_print         1
sym_ignore              true
$end

--------------------------------------------------------------
 Writing REM_CC_EA            4
 ----------------------------------------------------
       Standard Nuclear Orientation (Angstroms)
    I     Atom         X            Y            Z
 ----------------------------------------------------
    1      Cl      0.000000     0.000000     0.000000
    2      F       0.000000     0.000000     1.650546
    3      F       1.726277     0.000000     0.088377
    4      F      -1.726277     0.000000     0.088377
 ----------------------------------------------------
 Nuclear Repulsion Energy =   191.9685787971 hartrees
 There are       23 alpha and       22 beta electrons
 Requested basis set is G3large
 There are 49 shells and 192 basis functions

Total QAlloc Memory Limit   2000 MB
Mega-Array Size       743 MB
MEM_STATIC part       760 MB

                       Distance Matrix (Angstroms)
             Cl(  1)   F (  2)   F (  3)
   F (  2)  1.650546
   F (  3)  1.728538  2.328177
   F (  4)  1.728538  2.328177  3.452554
 
 A cutoff of  1.0D-08 yielded    992 shell pairs
 There are  15513 function pairs ( 20930 Cartesian)
Evaluating contribution to one-electron hamiltonian from nuclear
 Smallest overlap matrix eigenvalue = 2.02E-03
 Multipole matrices computed through 2nd order

  Scale SEOQF with 1.000000e-01/1.000000e-01/1.000000e-01

 Standard Electronic Orientation quadrupole field applied
 Nucleus-field energy     =    -0.0000000007 hartrees
 Guess from superposition of atomic densities
 Warning:  Energy on first SCF cycle will be non-variational
 An unrestricted hybrid HF-DFT SCF calculation will be
 performed using Pulay DIIS extrapolation
 Exchange:     1.0000 Hartree-Fock + 1.0000 BNL
 Correlation:  1.0000 LYP
 Using SG-1 standard quadrature grid
 SCF converges when DIIS error is below 1.0E-05
 Warning!  Inaccurate integrated density:
   Number of electrons =    45
   Numerical integral  =    43.999600094337
   Relative error      =    -2.2231109015 %
 ---------------------------------------
  Cycle       Energy         DIIS Error
 ---------------------------------------
    1    -755.8848060250      2.53E-02
    2    -755.4798769725      5.94E-03
    3    -755.4910175175      6.44E-03
    4    -755.5947294624      4.18E-04
    5    -755.5961807584      1.54E-04
    6    -755.5965828278      6.51E-05
    7    -755.5966872468      3.23E-05
    8    -755.5967122070      1.79E-05
    9    -755.5967192949      1.12E-05
   10    -755.5967221466      4.38E-06 Convergence criterion met
 ---------------------------------------
 One-Electron    Energy = -1446.0947721360
 Total Coulomb   Energy =   554.1770577828
 Alpha Exchange  Energy =    -5.6112788569
 Beta  Exchange  Energy =    -5.3693644866
 DFT   Exchange  Energy =   -42.8919170893
 DFT Correlation Energy =    -1.7750261570
 Nuclear Repu.   Energy =   191.9685787964
 Nuclear Attr.   Energy = -2200.7858773190
 Kinetic         Energy =   754.6911051829
 <S^2> = 0.7539
 SCF time:  CPU 95.39 s  wall 109.70 s
 Final Alpha MO Eigenvalues
            1           2           3           4           5           6
    1-100.4460241 -24.0671179 -24.0670116 -24.0667484  -9.2837620  -7.1418662
            7           8           9          10          11          12
    1  -7.1312283  -7.1171651  -1.1584543  -1.0841146  -1.0689412  -0.7813761
           13          14          15          16          17          18
    1  -0.4933559  -0.4893893  -0.4285553  -0.3776480  -0.3418472  -0.3370539
           19          20          21          22          23          24
    1  -0.3299620  -0.2971755  -0.2765223  -0.2139291  -0.0913032   0.2432408
           25          26          27          28
    1   0.2481095   0.2646103   0.2789143   0.3295166
 Final Beta MO Eigenvalues
            1           2           3           4           5           6
    1-100.4409503 -24.0658170 -24.0654776 -24.0529982  -9.2783394  -7.1377982
            7           8           9          10          11          12
    1  -7.1207007  -7.1128546  -1.1409755  -1.0814169  -1.0543018  -0.7551286
           13          14          15          16          17          18
    1  -0.4858953  -0.4339759  -0.4170467  -0.3704376  -0.3406198  -0.3211108
           19          20          21          22          23          24
    1  -0.3172231  -0.2849096  -0.2664693  -0.2013627   0.2272292   0.2446841
           25          26          27
    1   0.2494081   0.2631011   0.3094338
 Analysis of SCF Wavefunction
 
 --------------------------------------------------------------
                    Orbital Energies (a.u.)
 --------------------------------------------------------------
 
 Alpha MOs
 -- Occupied --
******* -24.067 -24.067 -24.067  -9.284  -7.142  -7.131  -7.117
 -1.158  -1.084  -1.069  -0.781  -0.493  -0.489  -0.429  -0.378
 -0.342  -0.337  -0.330  -0.297  -0.277  -0.214  -0.091
 -- Virtual --
  0.243   0.248   0.265   0.279   0.330   0.428   0.453   0.465
  0.467   0.490   0.501   0.547   0.551   0.582   0.594   0.617
  0.655   0.659   0.672   0.686   0.705   0.765   0.781   0.982
  0.995   1.340   1.346   1.361   1.365   1.385   1.440   1.452
  1.497   1.503   1.528   1.590   1.592   1.659   1.663   1.666
  1.678   1.684   1.739   1.743   1.792   1.901   2.087   2.227
  2.254   2.351   2.355   2.378   2.395   2.400   2.457   2.478
  2.503   2.513   2.547   2.589   2.630   2.850   3.050   3.077
  3.079   3.131   3.408   3.976   4.620   4.667   4.688   4.704
  4.789   4.871   4.951   5.273   5.281   5.285   5.481   5.626
  6.451   6.479   6.485   6.497   6.511   6.565   6.595   6.681
  6.857   6.975   6.985   6.990   7.002   7.004   7.008   7.011
  7.011   7.012   7.020   7.022   7.025   7.043   7.062   7.066
  7.093   7.114   7.146   7.170   7.209   7.382   9.391   9.397
  9.409   9.439   9.453   9.465   9.486   9.538   9.631   9.750
  9.762   9.812   9.858  10.000  10.176  10.235  20.730  20.950
 21.516  27.406  27.407  27.407  27.414  27.580  37.036  37.043
 37.046  37.050  37.051  37.065  37.078  50.316  50.325  50.336
 50.370  50.373  50.394  50.400  50.430  50.466  50.495  50.517
 50.526  50.540  50.561  50.638  55.963  55.980  55.985  55.994
 56.005  56.048  56.062  56.116  56.228  67.206  67.222  67.259
216.465
 
 Beta MOs
 -- Occupied --
******* -24.066 -24.065 -24.053  -9.278  -7.138  -7.121  -7.113
 -1.141  -1.081  -1.054  -0.755  -0.486  -0.434  -0.417  -0.370
 -0.341  -0.321  -0.317  -0.285  -0.266  -0.201
 -- Virtual --
  0.227   0.245   0.249   0.263   0.309   0.339   0.428   0.455
  0.465   0.467   0.493   0.502   0.546   0.550   0.583   0.594
  0.634   0.661   0.665   0.686   0.701   0.719   0.767   0.785
  0.983   1.017   1.352   1.353   1.373   1.377   1.402   1.448
  1.460   1.501   1.516   1.542   1.593   1.603   1.660   1.666
  1.674   1.687   1.689   1.740   1.745   1.798   1.914   2.093
  2.230   2.267   2.358   2.359   2.382   2.398   2.408   2.463
  2.481   2.505   2.522   2.553   2.604   2.633   2.867   3.054
  3.080   3.093   3.140   3.425   3.979   4.641   4.693   4.709
  4.728   4.802   4.894   4.967   5.285   5.291   5.293   5.492
  5.636   6.459   6.486   6.494   6.507   6.512   6.569   6.604
  6.708   6.861   6.987   6.992   6.994   7.008   7.010   7.010
  7.013   7.015   7.021   7.023   7.024   7.034   7.046   7.075
  7.085   7.106   7.115   7.162   7.177   7.211   7.401   9.402
  9.403   9.415   9.442   9.458   9.478   9.501   9.544   9.668
  9.757   9.764   9.840   9.867  10.020  10.179  10.263  20.735
 20.964  21.520  27.411  27.413  27.415  27.423  27.590  37.039
 37.047  37.049  37.054  37.055  37.071  37.081  50.321  50.328
 50.349  50.376  50.379  50.399  50.412  50.434  50.498  50.499
 50.519  50.530  50.564  50.601  50.641  55.968  55.981  55.995
 56.001  56.006  56.052  56.068  56.135  56.231  67.207  67.233
 67.267 216.471
 --------------------------------------------------------------
 
          Ground-State Mulliken Net Atomic Charges

     Atom                 Charge (a.u.)    Spin (a.u.)
  --------------------------------------------------------
      1 Cl                    0.127007       0.710668
      2 F                    -0.326103       0.255363
      3 F                    -0.400263       0.016383
      4 F                    -0.400641       0.017586
  --------------------------------------------------------
  Sum of atomic charges =    -1.000000
  Sum of spin   charges =     1.000000

 -----------------------------------------------------------------
                    Cartesian Multipole Moments
 -----------------------------------------------------------------
    Charge (ESU x 10^10)
                -4.8032
    Dipole Moment (Debye)
         X       0.0032      Y       0.0001      Z      -2.6167
       Tot       2.6167
    Quadrupole Moments (Debye-Ang)
        XX     -42.2810     XY      -0.0001     YY     -29.8720
        XZ       0.0013     YZ      -0.0004     ZZ     -35.7182
    Octapole Moments (Debye-Ang^2)
       XXX       0.0260    XXY       0.0005    XYY       0.0031
       YYY      -0.0002    XXZ     -10.8383    XYZ      -0.0001
       YYZ      -9.8334    XZZ      -0.0013    YZZ       0.0019
       ZZZ     -39.6798
    Hexadecapole Moments (Debye-Ang^3)
      XXXX    -272.0352   XXXY      -0.0018   XXYY     -43.7596
      XYYY      -0.0002   YYYY     -29.0786   XXXZ      -0.0029
      XXYZ      -0.0001   XYYZ       0.0019   YYYZ      -0.0008
      XXZZ     -59.6482   XYZZ      -0.0001   YYZZ     -25.9198
      XZZZ       0.0015   YZZZ       0.0016   ZZZZ    -142.7457
 -----------------------------------------------------------------
 Total job time:  113.80s(wall), 95.64s(cpu) 
 Fri Apr 15 15:42:43 2011

        *************************************************************
        *                                                           *
        *  Thank you very much for using Q-Chem.  Have a nice day.  *
        *                                                           *
        *************************************************************


0 sent ACK to 0 
now end server 0 ... 
 
**********************************************************************
Job 2 of 3 
**********************************************************************
 
Process 0 of 1 is on cl141.stfx.acenet.ca - thread support 1
initial socket setup ...start
initial socket setup ...done 
now start server 0 ... 

cmd = /usr/bin/ssh clhead /usr/local/qchem/bin/get_hostid 704126322 > /globalscratch/itamblyn/bnl/g297_b3lyp_neut_g03Large_worked/g2g71071/omega480/qchem25545/lic.dat
                  Welcome to Q-Chem
     A Quantum Leap Into The Future Of Chemistry

 Y. Shao, L. Fusti-Molnar, Y. Jung, J. Kussmann, C. Ochsenfeld,
 S. T. Brown, A. T. B. Gilbert, L. V. Slipchenko,S. V. Levchenko,
 D. P. O'Neill, R. A. DiStasio Jr., R. C. Lochan, T. Wang,
 G. J. O. Beran, N. A. Besley, J. M. Herbert, C. Y. Lin,
 T. Van Voorhis, S. H. Chien, A. Sodt, R. P. Steele, 
 V. A. Rassolov, P. E. Maslen, P. P. Korambath, R. D. Adamson,
 B. Austin, J. Baker, E. F. C. Byrd, H. Dachsel, R. J. Doerksen,
 A. Dreuw, B. D. Dunietz, A. D. Dutoi, T. R. Furlani,
 S. R. Gwaltney, A. Heyden, S. Hirata, C.-P. Hsu, G. Kedziora,
 R. Z. Khaliullin, P. Klunzinger, A. M. Lee, M. S. Lee, W. Liang,
 I. Lotan, N. Nair, B. Peters, E. I. Proynov, P. A. Pieniazek, 
 Y. M. Rhee, J. Ritchie, E. Rosta, C. D. Sherrill, 
 A. C. Simmonett, J. E. Subotnik, H. L. Woodcock III,
 W. Zhang, A. T. Bell, A. K. Chakraborty, D. M. Chipman,
 F. J. Keil, A. Warshel, W. J. Hehre, H. F. Schaefer III,
 J. Kong, A. I. Krylov, P. M. W. Gill, M. Head-Gordon,
 Q-Chem, Version 3.1, Q-Chem, Inc., Pittsburgh, PA (2007).

 Additional authors for Version 3.1: 
 Z. Gan, Y. Zhao, N. E. Schultz, D. Truhlar, E. Epifanovsky and M. Oana.

 Additional authors for Version 3.2: 
 R. Baer, B. R. Brooks, D. Casanova, J.-D. Chai, C.-L. Cheng, 
 C. Cramer, D. Crittenden, A. Ghysels, G. Hawkins, E. G. Hohenstein, 
 C. Kelley, W. Kurlancheek, D. Liotard, E. Livshits, P. Manohar, 
 A. Marenich, D. Neuhauser, R. Olson, M. A. Rohrdanz, K. S. Thanthiriwatte, 
 A. J. W. Thom, V. Vanovschi, C. F. Williams, Q. Wu and Z.-Q. You. 


 Intel X86 Linux Version

 Q-chem begins on Fri Apr 15 15:42:47 2011  

 Parallel job on  1  processors
Processing $rem in /usr/local/qchem/config/preferences.

theFileMan(): MAXOPENFILES=974 MAX_SUB_FILE_NUM=16
Maximum size of a physical file is 2.0 GB, maximum size of a tmp-file is 32.0 GB


--------------------------------------------------------------
User input:
--------------------------------------------------------------

$molecule
0,1
Cl
F,1,R1
F,1,R2,2,A1
F,1,R2,2,A1,3,180.,0

 R1=1.65054633
 R2=1.72853794
 A1=87.06930496

$end

$comment
neutral
$end

$xc_functional
   X HF 1.0
   X BNL 1.0
   C LYP 1.0
$end

$rem
SYMMETRY_DECOMPOSITION	0
exchange 		general
BASIS                   g3large
omega			480
separate_jk		true
mem_static              760
max_scf_cycles          200
scf_final_print         1
sym_ignore              true
$end

--------------------------------------------------------------
 Writing REM_CC_EA            4
 ----------------------------------------------------
       Standard Nuclear Orientation (Angstroms)
    I     Atom         X            Y            Z
 ----------------------------------------------------
    1      Cl      0.000000     0.000000     0.000000
    2      F       0.000000     0.000000     1.650546
    3      F       1.726277     0.000000     0.088377
    4      F      -1.726277     0.000000     0.088377
 ----------------------------------------------------
 Nuclear Repulsion Energy =   191.9685787971 hartrees
 There are       22 alpha and       22 beta electrons
 Requested basis set is G3large
 There are 49 shells and 192 basis functions

Total QAlloc Memory Limit   2000 MB
Mega-Array Size       743 MB
MEM_STATIC part       760 MB

                       Distance Matrix (Angstroms)
             Cl(  1)   F (  2)   F (  3)
   F (  2)  1.650546
   F (  3)  1.728538  2.328177
   F (  4)  1.728538  2.328177  3.452554
 
 A cutoff of  1.0D-08 yielded    992 shell pairs
 There are  15513 function pairs ( 20930 Cartesian)
Evaluating contribution to one-electron hamiltonian from nuclear
 Smallest overlap matrix eigenvalue = 2.02E-03
 Multipole matrices computed through 2nd order

  Scale SEOQF with 1.000000e-01/1.000000e-01/1.000000e-01

 Standard Electronic Orientation quadrupole field applied
 Nucleus-field energy     =    -0.0000000007 hartrees
 Guess from superposition of atomic densities
 Warning:  Energy on first SCF cycle will be non-variational
 A restricted hybrid HF-DFT SCF calculation will be
 performed using Pulay DIIS extrapolation
 Exchange:     1.0000 Hartree-Fock + 1.0000 BNL
 Correlation:  1.0000 LYP
 Using SG-1 standard quadrature grid
 SCF converges when DIIS error is below 1.0E-05
 ---------------------------------------
  Cycle       Energy         DIIS Error
 ---------------------------------------
    1    -755.8848060250      2.53E-02
    2    -755.3488192760      6.97E-03
    3    -755.3589506183      7.64E-03
    4    -755.5109502020      9.32E-04
    5    -755.5136060433      2.64E-04
    6    -755.5141797341      1.45E-04
    7    -755.5143358429      7.50E-05
    8    -755.5144099439      2.47E-05
    9    -755.5144226576      1.16E-05
   10    -755.5144234283      7.30E-06 Convergence criterion met
 ---------------------------------------
 One-Electron    Energy = -1432.7441816666
 Total Coulomb   Energy =   540.4648660158
 Alpha Exchange  Energy =    -5.3858482259
 Beta  Exchange  Energy =    -5.3858482259
 DFT   Exchange  Energy =   -42.6890466699
 DFT Correlation Energy =    -1.7429434522
 Nuclear Repu.   Energy =   191.9685787964
 Nuclear Attr.   Energy = -2186.4079717394
 Kinetic         Energy =   753.6637900728
 SCF time:  CPU 79.12 s  wall 90.96 s
 Final Alpha MO Eigenvalues
            1           2           3           4           5           6
    1-100.8134752 -24.4193273 -24.3375991 -24.3375615  -9.6410145  -7.4962969
            7           8           9          10          11          12
    1  -7.4934215  -7.4735455  -1.4672760  -1.3483597  -1.3482767  -1.0710030
           13          14          15          16          17          18
    1  -0.7690713  -0.7640125  -0.7231079  -0.6624973  -0.6161920  -0.5969627
           19          20          21          22          23          24
    1  -0.5892439  -0.5701775  -0.5360204  -0.5001136  -0.0742934   0.0147404
           25          26          27
    1   0.0650597   0.0980068   0.1078708
 Analysis of SCF Wavefunction
 
 --------------------------------------------------------------
                    Orbital Energies (a.u.)
 --------------------------------------------------------------
 
 Alpha MOs
 -- Occupied --
******* -24.419 -24.338 -24.338  -9.641  -7.496  -7.493  -7.474
 -1.467  -1.348  -1.348  -1.071  -0.769  -0.764  -0.723  -0.662
 -0.616  -0.597  -0.589  -0.570  -0.536  -0.500
 -- Virtual --
 -0.074   0.015   0.065   0.098   0.108   0.121   0.246   0.254
  0.270   0.272   0.276   0.314   0.360   0.362   0.366   0.370
  0.388   0.388   0.418   0.433   0.468   0.482   0.523   0.547
  0.719   0.755   1.053   1.064   1.066   1.081   1.098   1.152
  1.172   1.214   1.226   1.238   1.331   1.360   1.398   1.411
  1.426   1.443   1.445   1.510   1.511   1.537   1.629   1.820
  1.972   1.973   2.059   2.086   2.098   2.129   2.139   2.180
  2.224   2.236   2.246   2.276   2.300   2.367   2.555   2.779
  2.794   2.815   2.853   3.111   3.711   4.300   4.341   4.370
  4.381   4.477   4.552   4.640   4.937   4.940   4.955   5.151
  5.306   6.163   6.165   6.220   6.229   6.255   6.301   6.312
  6.385   6.585   6.675   6.695   6.697   6.704   6.721   6.725
  6.747   6.751   6.753   6.758   6.760   6.761   6.762   6.782
  6.795   6.802   6.853   6.858   6.898   6.943   7.082   9.087
  9.117   9.134   9.179   9.180   9.185   9.201   9.269   9.315
  9.461   9.500   9.514   9.574   9.709   9.908   9.912  20.376
 20.593  21.165  27.048  27.052  27.055  27.057  27.224  36.677
 36.685  36.685  36.692  36.697  36.703  36.724  49.990  50.039
 50.054  50.057  50.095  50.099  50.121  50.135  50.155  50.218
 50.226  50.231  50.248  50.256  50.367  55.637  55.652  55.691
 55.712  55.736  55.761  55.766  55.810  55.951  66.882  66.936
 66.981 216.100
 --------------------------------------------------------------
 
          Ground-State Mulliken Net Atomic Charges

     Atom                 Charge (a.u.)
  ----------------------------------------
      1 Cl                    0.597963
      2 F                    -0.101636
      3 F                    -0.248155
      4 F                    -0.248172
  ----------------------------------------
  Sum of atomic charges =     0.000000

 -----------------------------------------------------------------
                    Cartesian Multipole Moments
 -----------------------------------------------------------------
    Charge (ESU x 10^10)
                 0.0000
    Dipole Moment (Debye)
         X       0.0001      Y       0.0000      Z      -0.8778
       Tot       0.8778
    Quadrupole Moments (Debye-Ang)
        XX     -34.1067     XY      -0.0001     YY     -26.7887
        XZ       0.0000     YZ      -0.0003     ZZ     -26.8191
    Octapole Moments (Debye-Ang^2)
       XXX       0.0004    XXY       0.0010    XYY       0.0000
       YYY       0.0001    XXZ      -9.8365    XYZ       0.0000
       YYZ      -8.8890    XZZ      -0.0001    YZZ       0.0014
       ZZZ     -28.2392
    Hexadecapole Moments (Debye-Ang^3)
      XXXX    -225.4272   XXXY      -0.0011   XXYY     -39.0191
      XYYY      -0.0001   YYYY     -21.7467   XXXZ      -0.0002
      XXYZ      -0.0001   XYYZ       0.0000   YYYZ      -0.0001
      XXZZ     -52.2085   XYZZ       0.0000   YYZZ     -20.6598
      XZZZ      -0.0001   YZZZ       0.0020   ZZZZ     -98.8310
 -----------------------------------------------------------------
 Total job time:  93.70s(wall), 79.36s(cpu) 
 Fri Apr 15 15:44:20 2011

        *************************************************************
        *                                                           *
        *  Thank you very much for using Q-Chem.  Have a nice day.  *
        *                                                           *
        *************************************************************


0 sent ACK to 0 
now end server 0 ... 
 
**********************************************************************
Job 3 of 3 
**********************************************************************
 
Process 0 of 1 is on cl141.stfx.acenet.ca - thread support 1
initial socket setup ...start
initial socket setup ...done 
now start server 0 ... 

cmd = /usr/bin/ssh clhead /usr/local/qchem/bin/get_hostid 1270303119 > /globalscratch/itamblyn/bnl/g297_b3lyp_neut_g03Large_worked/g2g71071/omega480/qchem25545/lic.dat
                  Welcome to Q-Chem
     A Quantum Leap Into The Future Of Chemistry

 Y. Shao, L. Fusti-Molnar, Y. Jung, J. Kussmann, C. Ochsenfeld,
 S. T. Brown, A. T. B. Gilbert, L. V. Slipchenko,S. V. Levchenko,
 D. P. O'Neill, R. A. DiStasio Jr., R. C. Lochan, T. Wang,
 G. J. O. Beran, N. A. Besley, J. M. Herbert, C. Y. Lin,
 T. Van Voorhis, S. H. Chien, A. Sodt, R. P. Steele, 
 V. A. Rassolov, P. E. Maslen, P. P. Korambath, R. D. Adamson,
 B. Austin, J. Baker, E. F. C. Byrd, H. Dachsel, R. J. Doerksen,
 A. Dreuw, B. D. Dunietz, A. D. Dutoi, T. R. Furlani,
 S. R. Gwaltney, A. Heyden, S. Hirata, C.-P. Hsu, G. Kedziora,
 R. Z. Khaliullin, P. Klunzinger, A. M. Lee, M. S. Lee, W. Liang,
 I. Lotan, N. Nair, B. Peters, E. I. Proynov, P. A. Pieniazek, 
 Y. M. Rhee, J. Ritchie, E. Rosta, C. D. Sherrill, 
 A. C. Simmonett, J. E. Subotnik, H. L. Woodcock III,
 W. Zhang, A. T. Bell, A. K. Chakraborty, D. M. Chipman,
 F. J. Keil, A. Warshel, W. J. Hehre, H. F. Schaefer III,
 J. Kong, A. I. Krylov, P. M. W. Gill, M. Head-Gordon,
 Q-Chem, Version 3.1, Q-Chem, Inc., Pittsburgh, PA (2007).

 Additional authors for Version 3.1: 
 Z. Gan, Y. Zhao, N. E. Schultz, D. Truhlar, E. Epifanovsky and M. Oana.

 Additional authors for Version 3.2: 
 R. Baer, B. R. Brooks, D. Casanova, J.-D. Chai, C.-L. Cheng, 
 C. Cramer, D. Crittenden, A. Ghysels, G. Hawkins, E. G. Hohenstein, 
 C. Kelley, W. Kurlancheek, D. Liotard, E. Livshits, P. Manohar, 
 A. Marenich, D. Neuhauser, R. Olson, M. A. Rohrdanz, K. S. Thanthiriwatte, 
 A. J. W. Thom, V. Vanovschi, C. F. Williams, Q. Wu and Z.-Q. You. 


 Intel X86 Linux Version

 Q-chem begins on Fri Apr 15 15:44:23 2011  

 Parallel job on  1  processors
Processing $rem in /usr/local/qchem/config/preferences.

theFileMan(): MAXOPENFILES=974 MAX_SUB_FILE_NUM=16
Maximum size of a physical file is 2.0 GB, maximum size of a tmp-file is 32.0 GB


--------------------------------------------------------------
User input:
--------------------------------------------------------------

$molecule
1,2
Cl
F,1,R1
F,1,R2,2,A1
F,1,R2,2,A1,3,180.,0

 R1=1.65054633
 R2=1.72853794
 A1=87.06930496

$end

$comment
positive
$end

$xc_functional
   X HF 1.0
   X BNL 1.0
   C LYP 1.0
$end

$rem
SYMMETRY_DECOMPOSITION	0
exchange 		general
BASIS                   g3large
omega			480
separate_jk		true
mem_static              760
max_scf_cycles          200
scf_final_print         1
sym_ignore              true
$end

--------------------------------------------------------------
 Writing REM_CC_EA            4
 ----------------------------------------------------
       Standard Nuclear Orientation (Angstroms)
    I     Atom         X            Y            Z
 ----------------------------------------------------
    1      Cl      0.000000     0.000000     0.000000
    2      F       0.000000     0.000000     1.650546
    3      F       1.726277     0.000000     0.088377
    4      F      -1.726277     0.000000     0.088377
 ----------------------------------------------------
 Nuclear Repulsion Energy =   191.9685787971 hartrees
 There are       22 alpha and       21 beta electrons
 Requested basis set is G3large
 There are 49 shells and 192 basis functions

Total QAlloc Memory Limit   2000 MB
Mega-Array Size       743 MB
MEM_STATIC part       760 MB

                       Distance Matrix (Angstroms)
             Cl(  1)   F (  2)   F (  3)
   F (  2)  1.650546
   F (  3)  1.728538  2.328177
   F (  4)  1.728538  2.328177  3.452554
 
 A cutoff of  1.0D-08 yielded    992 shell pairs
 There are  15513 function pairs ( 20930 Cartesian)
Evaluating contribution to one-electron hamiltonian from nuclear
 Smallest overlap matrix eigenvalue = 2.02E-03
 Multipole matrices computed through 2nd order

  Scale SEOQF with 1.000000e-01/1.000000e-01/1.000000e-01

 Standard Electronic Orientation quadrupole field applied
 Nucleus-field energy     =    -0.0000000007 hartrees
 Guess from superposition of atomic densities
 Warning:  Energy on first SCF cycle will be non-variational
 An unrestricted hybrid HF-DFT SCF calculation will be
 performed using Pulay DIIS extrapolation
 Exchange:     1.0000 Hartree-Fock + 1.0000 BNL
 Correlation:  1.0000 LYP
 Using SG-1 standard quadrature grid
 SCF converges when DIIS error is below 1.0E-05
 Warning!  Inaccurate integrated density:
   Number of electrons =    43
   Numerical integral  =    43.999600094337
   Relative error      =     2.3246513822 %
 ---------------------------------------
  Cycle       Energy         DIIS Error
 ---------------------------------------
    1    -755.8848060250      2.53E-02
    2    -754.7217469825      8.28E-03
    3    -754.6644982654      1.08E-02
    4    -754.9998451707      1.96E-03
    5    -755.0098054965      6.46E-04
    6    -755.0115352340      3.16E-04
    7    -755.0124709512      1.26E-04
    8    -755.0129273278      1.01E-04
    9    -755.0131720851      4.87E-05
   10    -755.0133337772      2.27E-05
   11    -755.0133805817      1.32E-05
   12    -755.0133987121      5.72E-06 Convergence criterion met
 ---------------------------------------
 One-Electron    Energy = -1418.6736212172
 Total Coulomb   Energy =   526.3827374834
 Alpha Exchange  Energy =    -5.4046490948
 Beta  Exchange  Energy =    -5.1169512165
 DFT   Exchange  Energy =   -42.4643333296
 DFT Correlation Energy =    -1.7051601338
 Nuclear Repu.   Energy =   191.9685787964
 Nuclear Attr.   Energy = -2171.5174272972
 Kinetic         Energy =   752.8438060800
 <S^2> = 0.7567
 SCF time:  CPU 117.56 s  wall 133.15 s
 Final Alpha MO Eigenvalues
            1           2           3           4           5           6
    1-101.1930494 -24.7269258 -24.6697098 -24.6692906 -10.0102461  -7.8623180
            7           8           9          10          11          12
    1  -7.8588999  -7.8554101  -1.7742907  -1.6618098  -1.6566855  -1.4007793
           13          14          15          16          17          18
    1  -1.0792591  -1.0646288  -1.0490613  -0.9530340  -0.9237085  -0.9171635
           19          20          21          22          23          24
    1  -0.8879517  -0.8680725  -0.8442018  -0.8392981  -0.3821969  -0.3008452
           25          26          27
    1  -0.1298787  -0.0806037  -0.0694444
 Final Beta MO Eigenvalues
            1           2           3           4           5           6
    1-101.1881340 -24.7242310 -24.6614572 -24.6611487 -10.0052144  -7.8589767
            7           8           9          10          11          12
    1  -7.8556259  -7.8435105  -1.7650402  -1.6464880  -1.6442501  -1.3683931
           13          14          15          16          17          18
    1  -1.0693933  -1.0594839  -0.9978546  -0.9486367  -0.8816652  -0.8795414
           19          20          21          22          23          24
    1  -0.8605448  -0.8394099  -0.8308659  -0.5021572  -0.3706667  -0.2885117
           25          26
    1  -0.1288222  -0.0779862
 Analysis of SCF Wavefunction
 
 --------------------------------------------------------------
                    Orbital Energies (a.u.)
 --------------------------------------------------------------
 
 Alpha MOs
 -- Occupied --
******* -24.727 -24.670 -24.669 -10.010  -7.862  -7.859  -7.855
 -1.774  -1.662  -1.657  -1.401  -1.079  -1.065  -1.049  -0.953
 -0.924  -0.917  -0.888  -0.868  -0.844  -0.839
 -- Virtual --
 -0.382  -0.301  -0.130  -0.081  -0.069  -0.058   0.010   0.022
  0.025   0.064   0.069   0.099   0.121   0.129   0.142   0.152
  0.168   0.174   0.186   0.223   0.254   0.257   0.271   0.305
  0.427   0.523   0.728   0.754   0.773   0.791   0.816   0.838
  0.879   0.917   0.917   0.935   1.066   1.110   1.135   1.154
  1.159   1.193   1.195   1.246   1.254   1.281   1.345   1.530
  1.687   1.700   1.732   1.803   1.816   1.828   1.844   1.878
  1.927   1.952   1.954   1.986   2.006   2.072   2.268   2.476
  2.507   2.511   2.560   2.814   3.417   3.951   3.982   4.020
  4.022   4.125   4.227   4.304   4.583   4.596   4.598   4.799
  4.976   5.868   5.870   5.906   5.917   5.933   5.997   6.015
  6.086   6.280   6.383   6.406   6.408   6.413   6.421   6.430
  6.441   6.443   6.445   6.447   6.450   6.450   6.457   6.476
  6.490   6.499   6.539   6.559   6.599   6.636   6.776   8.784
  8.809   8.810   8.853   8.861   8.863   8.896   8.943   9.012
  9.134   9.171   9.212   9.257   9.393   9.585   9.596  19.996
 20.230  20.802  26.673  26.674  26.680  26.695  26.862  36.309
 36.312  36.317  36.320  36.327  36.341  36.358  49.682  49.717
 49.720  49.730  49.764  49.783  49.784  49.817  49.818  49.893
 49.908  49.912  49.914  49.930  50.037  55.328  55.340  55.373
 55.376  55.398  55.441  55.443  55.488  55.624  66.574  66.605
 66.651 215.723
 
 Beta MOs
 -- Occupied --
******* -24.724 -24.661 -24.661 -10.005  -7.859  -7.856  -7.844
 -1.765  -1.646  -1.644  -1.368  -1.069  -1.059  -0.998  -0.949
 -0.882  -0.880  -0.861  -0.839  -0.831
 -- Virtual --
 -0.502  -0.371  -0.289  -0.129  -0.078  -0.069  -0.057   0.027
  0.032   0.048   0.066   0.070   0.101   0.131   0.136   0.143
  0.154   0.170   0.178   0.194   0.223   0.255   0.259   0.283
  0.312   0.431   0.524   0.753   0.771   0.778   0.796   0.821
  0.853   0.885   0.921   0.934   0.947   1.069   1.113   1.139
  1.163   1.168   1.196   1.199   1.258   1.258   1.284   1.352
  1.539   1.696   1.703   1.757   1.810   1.822   1.840   1.858
  1.883   1.942   1.958   1.965   1.989   2.016   2.084   2.274
  2.482   2.514   2.523   2.565   2.819   3.423   3.972   4.012
  4.043   4.053   4.149   4.232   4.316   4.596   4.601   4.609
  4.814   4.981   5.875   5.879   5.925   5.932   5.959   6.006
  6.021   6.091   6.288   6.389   6.409   6.415   6.418   6.433
  6.437   6.456   6.457   6.460   6.464   6.464   6.467   6.468
  6.487   6.501   6.507   6.555   6.564   6.604   6.644   6.783
  8.797   8.824   8.834   8.879   8.883   8.885   8.902   8.967
  9.022   9.145   9.197   9.218   9.267   9.404   9.591   9.610
 20.013  20.233  20.806  26.683  26.686  26.689  26.698  26.865
 36.312  36.317  36.320  36.325  36.330  36.343  36.360  49.690
 49.739  49.739  49.742  49.783  49.789  49.806  49.829  49.838
 49.905  49.916  49.920  49.930  49.938  50.049  55.335  55.343
 55.379  55.390  55.415  55.446  55.448  55.493  55.630  66.578
 66.615  66.660 215.728
 --------------------------------------------------------------
 
          Ground-State Mulliken Net Atomic Charges

     Atom                 Charge (a.u.)    Spin (a.u.)
  --------------------------------------------------------
      1 Cl                    0.894386       0.488150
      2 F                     0.083858       0.065655
      3 F                     0.010572       0.221767
      4 F                     0.011184       0.224427
  --------------------------------------------------------
  Sum of atomic charges =     1.000000
  Sum of spin   charges =     1.000000

 -----------------------------------------------------------------
                    Cartesian Multipole Moments
 -----------------------------------------------------------------
    Charge (ESU x 10^10)
                 4.8032
    Dipole Moment (Debye)
         X      -0.0041      Y       0.0035      Z       0.4193
       Tot       0.4193
    Quadrupole Moments (Debye-Ang)
        XX     -24.0525     XY       0.0001     YY     -23.6286
        XZ      -0.0003     YZ      -0.0072     ZZ     -22.1636
    Octapole Moments (Debye-Ang^2)
       XXX      -0.0140    XXY      -0.0314    XYY      -0.0032
       YYY       0.0028    XXZ      -8.5975    XYZ      -0.0010
       YYZ      -8.4462    XZZ      -0.0008    YZZ       0.0006
       ZZZ     -21.6081
    Hexadecapole Moments (Debye-Ang^3)
      XXXX    -175.8914   XXXY       0.0007   XXYY     -33.7950
      XYYY       0.0001   YYYY     -16.8216   XXXZ      -0.0004
      XXYZ      -0.0105   XYYZ      -0.0004   YYYZ      -0.0049
      XXZZ     -47.1808   XYZZ      -0.0001   YYZZ     -18.2159
      XZZZ       0.0007   YZZZ      -0.0066   ZZZZ     -80.4867
 -----------------------------------------------------------------
 Total job time:  134.82s(wall), 117.80s(cpu) 
 Fri Apr 15 15:46:38 2011

        *************************************************************
        *                                                           *
        *  Thank you very much for using Q-Chem.  Have a nice day.  *
        *                                                           *
        *************************************************************


0 sent ACK to 0 
now end server 0 ... 
