Process 0 of 1 is on cl201.stfx.acenet.ca - thread support 1
initial socket setup ...start
initial socket setup ...done 
now start server 0 ... 

cmd = /usr/bin/ssh clhead /usr/local/qchem/bin/get_hostid 615001121 > /globalscratch/itamblyn/bnl/g297_b3lyp_neut_g03Large_worked/g2g71002/omega370/qchem14958/lic.dat
                  Welcome to Q-Chem
     A Quantum Leap Into The Future Of Chemistry

 Y. Shao, L. Fusti-Molnar, Y. Jung, J. Kussmann, C. Ochsenfeld,
 S. T. Brown, A. T. B. Gilbert, L. V. Slipchenko,S. V. Levchenko,
 D. P. O'Neill, R. A. DiStasio Jr., R. C. Lochan, T. Wang,
 G. J. O. Beran, N. A. Besley, J. M. Herbert, C. Y. Lin,
 T. Van Voorhis, S. H. Chien, A. Sodt, R. P. Steele, 
 V. A. Rassolov, P. E. Maslen, P. P. Korambath, R. D. Adamson,
 B. Austin, J. Baker, E. F. C. Byrd, H. Dachsel, R. J. Doerksen,
 A. Dreuw, B. D. Dunietz, A. D. Dutoi, T. R. Furlani,
 S. R. Gwaltney, A. Heyden, S. Hirata, C.-P. Hsu, G. Kedziora,
 R. Z. Khaliullin, P. Klunzinger, A. M. Lee, M. S. Lee, W. Liang,
 I. Lotan, N. Nair, B. Peters, E. I. Proynov, P. A. Pieniazek, 
 Y. M. Rhee, J. Ritchie, E. Rosta, C. D. Sherrill, 
 A. C. Simmonett, J. E. Subotnik, H. L. Woodcock III,
 W. Zhang, A. T. Bell, A. K. Chakraborty, D. M. Chipman,
 F. J. Keil, A. Warshel, W. J. Hehre, H. F. Schaefer III,
 J. Kong, A. I. Krylov, P. M. W. Gill, M. Head-Gordon,
 Q-Chem, Version 3.1, Q-Chem, Inc., Pittsburgh, PA (2007).

 Additional authors for Version 3.1: 
 Z. Gan, Y. Zhao, N. E. Schultz, D. Truhlar, E. Epifanovsky and M. Oana.

 Additional authors for Version 3.2: 
 R. Baer, B. R. Brooks, D. Casanova, J.-D. Chai, C.-L. Cheng, 
 C. Cramer, D. Crittenden, A. Ghysels, G. Hawkins, E. G. Hohenstein, 
 C. Kelley, W. Kurlancheek, D. Liotard, E. Livshits, P. Manohar, 
 A. Marenich, D. Neuhauser, R. Olson, M. A. Rohrdanz, K. S. Thanthiriwatte, 
 A. J. W. Thom, V. Vanovschi, C. F. Williams, Q. Wu and Z.-Q. You. 


 Intel X86 Linux Version

 Q-chem begins on Fri Apr 15 15:21:01 2011  

 Parallel job on  1  processors
Processing $rem in /usr/local/qchem/config/preferences.

theFileMan(): MAXOPENFILES=974 MAX_SUB_FILE_NUM=16
Maximum size of a physical file is 2.0 GB, maximum size of a tmp-file is 32.0 GB


--------------------------------------------------------------
User input:
--------------------------------------------------------------

$molecule
-1,1
C
H,1,RCH

RCH=1.13309913

$end

$comment
negative
$end

$xc_functional
   X HF 1.0
   X BNL 1.0
   C LYP 1.0
$end

$rem
SYMMETRY_DECOMPOSITION	0
exchange 		general
BASIS                   g3large
omega			370
separate_jk		true
mem_static              760
max_scf_cycles          200
scf_final_print         1
sym_ignore              true
$end

--------------------------------------------------------------
 Writing REM_CC_EA            2
 ----------------------------------------------------
       Standard Nuclear Orientation (Angstroms)
    I     Atom         X            Y            Z
 ----------------------------------------------------
    1      C       0.000000     0.000000     0.000000
    2      H       0.000000     0.000000     1.133099
 ----------------------------------------------------
 Nuclear Repulsion Energy =     2.8021054652 hartrees
 There are        4 alpha and        4 beta electrons
 Requested basis set is G3large
 There are 16 shells and 52 basis functions

Total QAlloc Memory Limit   2000 MB
Mega-Array Size       743 MB
MEM_STATIC part       760 MB

                       Distance Matrix (Angstroms)
             C (  1)
   H (  2)  1.133099
 
 A cutoff of  1.0D-08 yielded    136 shell pairs
 There are   1462 function pairs (  1834 Cartesian)
Evaluating contribution to one-electron hamiltonian from nuclear
 Smallest overlap matrix eigenvalue = 4.17E-03
 Multipole matrices computed through 2nd order

  Scale SEOQF with 1.000000e-01/1.000000e-01/1.000000e-01

 Standard Electronic Orientation quadrupole field applied
 Nucleus-field energy     =    -0.0000000001 hartrees
 Guess from superposition of atomic densities
 Warning:  Energy on first SCF cycle will be non-variational
 A restricted hybrid HF-DFT SCF calculation will be
 performed using Pulay DIIS extrapolation
 Exchange:     1.0000 Hartree-Fock + 1.0000 BNL
 Correlation:  1.0000 LYP
 Using SG-1 standard quadrature grid
 SCF converges when DIIS error is below 1.0E-05
 Warning!  Inaccurate integrated density:
   Number of electrons =     8
   Numerical integral  =     7.000003590818
   Relative error      =   -12.4999551148 %
 ---------------------------------------
  Cycle       Energy         DIIS Error
 ---------------------------------------
    1     -37.8102025842      2.56E-02
    2     -37.9243540804      1.10E-02
    3     -37.9787627041      7.63E-03
    4     -38.0001905361      8.50E-04
    5     -38.0007157382      3.57E-04
    6     -38.0008339180      5.96E-05
    7     -38.0008435479      1.75E-05
    8     -38.0008442849      5.78E-06 Convergence criterion met
 ---------------------------------------
 One-Electron    Energy =   -58.6517215532
 Total Coulomb   Energy =    23.1181130515
 Alpha Exchange  Energy =    -0.7001056895
 Beta  Exchange  Energy =    -0.7001056895
 DFT   Exchange  Energy =    -3.6429848524
 DFT Correlation Energy =    -0.2261450167
 Nuclear Repu.   Energy =     2.8021054651
 Nuclear Attr.   Energy =   -96.4803992610
 Kinetic         Energy =    37.8286777078
 SCF time:  CPU 4.11 s  wall 8.94 s
 Final Alpha MO Eigenvalues
            1           2           3           4           5           6
    1  -9.7454490  -0.4478824  -0.1322094  -0.0172166   0.1818615   0.2048446
            7           8           9
    1   0.2885774   0.3094354   0.3183461
 Analysis of SCF Wavefunction
 
 --------------------------------------------------------------
                    Orbital Energies (a.u.)
 --------------------------------------------------------------
 
 Alpha MOs
 -- Occupied --
 -9.745  -0.448  -0.132  -0.017
 -- Virtual --
  0.182   0.205   0.289   0.309   0.318   0.342   0.431   0.775
  0.860   0.876   0.907   0.932   0.948   1.046   1.053   1.069
  1.358   1.382   1.405   1.751   2.716   2.977   3.014   3.214
  3.214   3.224   3.226   3.250   3.279   3.389   3.493   3.631
  3.634   3.707   3.739   4.052   4.426   4.442   5.495  23.897
 27.470  27.490  27.968  41.052  41.132  41.394  41.398  41.414
 --------------------------------------------------------------
 
          Ground-State Mulliken Net Atomic Charges

     Atom                 Charge (a.u.)
  ----------------------------------------
      1 C                    -1.030745
      2 H                     0.030745
  ----------------------------------------
  Sum of atomic charges =    -1.000000

 -----------------------------------------------------------------
                    Cartesian Multipole Moments
 -----------------------------------------------------------------
    Charge (ESU x 10^10)
                -4.8032
    Dipole Moment (Debye)
         X       0.0009      Y      -0.0004      Z       1.2694
       Tot       1.2694
    Quadrupole Moments (Debye-Ang)
        XX     -14.8094     XY      -4.4579     YY     -14.8060
        XZ      -0.0011     YZ       0.0014     ZZ     -13.3221
    Octapole Moments (Debye-Ang^2)
       XXX       0.0030    XXY      -0.0002    XYY       0.0011
       YYY      -0.0004    XXZ      -0.2323    XYZ      -0.1180
       YYZ      -0.2322    XZZ       0.0006    YZZ       0.0004
       ZZZ      -1.8197
    Hexadecapole Moments (Debye-Ang^3)
      XXXX     -48.0352   XXXY     -13.1177   XXYY     -16.0031
      XYYY     -13.1177   YYYY     -48.0154   XXXZ      -0.0018
      XXYZ       0.0011   XYYZ      -0.0006   YYYZ       0.0033
      XXZZ     -14.8816   XYZZ      -4.4206   YYZZ     -14.8783
      XZZZ      -0.0021   YZZZ       0.0036   ZZZZ     -41.8083
 -----------------------------------------------------------------
 Total job time:  16.62s(wall), 4.19s(cpu) 
 Fri Apr 15 15:21:17 2011

        *************************************************************
        *                                                           *
        *  Thank you very much for using Q-Chem.  Have a nice day.  *
        *                                                           *
        *************************************************************


0 sent ACK to 0 
now end server 0 ... 
 
**********************************************************************
Job 2 of 3 
**********************************************************************
 
Process 0 of 1 is on cl201.stfx.acenet.ca - thread support 1
initial socket setup ...start
initial socket setup ...done 
now start server 0 ... 

cmd = /usr/bin/ssh clhead /usr/local/qchem/bin/get_hostid 973589295 > /globalscratch/itamblyn/bnl/g297_b3lyp_neut_g03Large_worked/g2g71002/omega370/qchem14958/lic.dat
                  Welcome to Q-Chem
     A Quantum Leap Into The Future Of Chemistry

 Y. Shao, L. Fusti-Molnar, Y. Jung, J. Kussmann, C. Ochsenfeld,
 S. T. Brown, A. T. B. Gilbert, L. V. Slipchenko,S. V. Levchenko,
 D. P. O'Neill, R. A. DiStasio Jr., R. C. Lochan, T. Wang,
 G. J. O. Beran, N. A. Besley, J. M. Herbert, C. Y. Lin,
 T. Van Voorhis, S. H. Chien, A. Sodt, R. P. Steele, 
 V. A. Rassolov, P. E. Maslen, P. P. Korambath, R. D. Adamson,
 B. Austin, J. Baker, E. F. C. Byrd, H. Dachsel, R. J. Doerksen,
 A. Dreuw, B. D. Dunietz, A. D. Dutoi, T. R. Furlani,
 S. R. Gwaltney, A. Heyden, S. Hirata, C.-P. Hsu, G. Kedziora,
 R. Z. Khaliullin, P. Klunzinger, A. M. Lee, M. S. Lee, W. Liang,
 I. Lotan, N. Nair, B. Peters, E. I. Proynov, P. A. Pieniazek, 
 Y. M. Rhee, J. Ritchie, E. Rosta, C. D. Sherrill, 
 A. C. Simmonett, J. E. Subotnik, H. L. Woodcock III,
 W. Zhang, A. T. Bell, A. K. Chakraborty, D. M. Chipman,
 F. J. Keil, A. Warshel, W. J. Hehre, H. F. Schaefer III,
 J. Kong, A. I. Krylov, P. M. W. Gill, M. Head-Gordon,
 Q-Chem, Version 3.1, Q-Chem, Inc., Pittsburgh, PA (2007).

 Additional authors for Version 3.1: 
 Z. Gan, Y. Zhao, N. E. Schultz, D. Truhlar, E. Epifanovsky and M. Oana.

 Additional authors for Version 3.2: 
 R. Baer, B. R. Brooks, D. Casanova, J.-D. Chai, C.-L. Cheng, 
 C. Cramer, D. Crittenden, A. Ghysels, G. Hawkins, E. G. Hohenstein, 
 C. Kelley, W. Kurlancheek, D. Liotard, E. Livshits, P. Manohar, 
 A. Marenich, D. Neuhauser, R. Olson, M. A. Rohrdanz, K. S. Thanthiriwatte, 
 A. J. W. Thom, V. Vanovschi, C. F. Williams, Q. Wu and Z.-Q. You. 


 Intel X86 Linux Version

 Q-chem begins on Fri Apr 15 15:21:21 2011  

 Parallel job on  1  processors
Processing $rem in /usr/local/qchem/config/preferences.

theFileMan(): MAXOPENFILES=974 MAX_SUB_FILE_NUM=16
Maximum size of a physical file is 2.0 GB, maximum size of a tmp-file is 32.0 GB


--------------------------------------------------------------
User input:
--------------------------------------------------------------

$molecule
0,2
C
H,1,RCH

RCH=1.13309913

$end

$comment
neutral
$end

$xc_functional
   X HF 1.0
   X BNL 1.0
   C LYP 1.0
$end

$rem
SYMMETRY_DECOMPOSITION	0
exchange 		general
BASIS                   g3large
omega			370
separate_jk		true
mem_static              760
max_scf_cycles          200
scf_final_print         1
sym_ignore              true
$end

--------------------------------------------------------------
 Writing REM_CC_EA            2
 ----------------------------------------------------
       Standard Nuclear Orientation (Angstroms)
    I     Atom         X            Y            Z
 ----------------------------------------------------
    1      C       0.000000     0.000000     0.000000
    2      H       0.000000     0.000000     1.133099
 ----------------------------------------------------
 Nuclear Repulsion Energy =     2.8021054652 hartrees
 There are        4 alpha and        3 beta electrons
 Requested basis set is G3large
 There are 16 shells and 52 basis functions

Total QAlloc Memory Limit   2000 MB
Mega-Array Size       743 MB
MEM_STATIC part       760 MB

                       Distance Matrix (Angstroms)
             C (  1)
   H (  2)  1.133099
 
 A cutoff of  1.0D-08 yielded    136 shell pairs
 There are   1462 function pairs (  1834 Cartesian)
Evaluating contribution to one-electron hamiltonian from nuclear
 Smallest overlap matrix eigenvalue = 4.17E-03
 Multipole matrices computed through 2nd order

  Scale SEOQF with 1.000000e-01/1.000000e-01/1.000000e-01

 Standard Electronic Orientation quadrupole field applied
 Nucleus-field energy     =    -0.0000000001 hartrees
 Guess from superposition of atomic densities
 Warning:  Energy on first SCF cycle will be non-variational
 An unrestricted hybrid HF-DFT SCF calculation will be
 performed using Pulay DIIS extrapolation
 Exchange:     1.0000 Hartree-Fock + 1.0000 BNL
 Correlation:  1.0000 LYP
 Using SG-1 standard quadrature grid
 SCF converges when DIIS error is below 1.0E-05
 ---------------------------------------
  Cycle       Energy         DIIS Error
 ---------------------------------------
    1     -37.8102025842      2.56E-02
    2     -37.9895881732      3.21E-03
    3     -37.9951811713      9.20E-04
    4     -37.9955370515      1.95E-04
    5     -37.9956014287      8.11E-05
    6     -37.9956137988      2.70E-05
    7     -37.9956170695      1.08E-05
    8     -37.9956176309      3.52E-06 Convergence criterion met
 ---------------------------------------
 One-Electron    Energy =   -56.5100754652
 Total Coulomb   Energy =    20.8007769937
 Alpha Exchange  Energy =    -0.7325488213
 Beta  Exchange  Energy =    -0.5518769203
 DFT   Exchange  Energy =    -3.6071736769
 DFT Correlation Energy =    -0.1968252061
 Nuclear Repu.   Energy =     2.8021054651
 Nuclear Attr.   Energy =   -94.3186336482
 Kinetic         Energy =    37.8085581830
 <S^2> = 0.7525
 SCF time:  CPU 4.49 s  wall 8.97 s
 Final Alpha MO Eigenvalues
            1           2           3           4           5           6
    1 -10.0783189  -0.7692395  -0.4338401  -0.3705644  -0.0613055   0.0370111
            7           8           9
    1   0.1166753   0.1168962   0.1194752
 Final Beta MO Eigenvalues
            1           2           3           4           5           6
    1 -10.0619063  -0.7248523  -0.4082319  -0.0436484  -0.0066740   0.0367363
            7           8
    1   0.1178777   0.1214296
 Analysis of SCF Wavefunction
 
 --------------------------------------------------------------
                    Orbital Energies (a.u.)
 --------------------------------------------------------------
 
 Alpha MOs
 -- Occupied --
-10.078  -0.769  -0.434  -0.371
 -- Virtual --
 -0.061   0.037   0.117   0.117   0.119   0.162   0.211   0.527
  0.607   0.612   0.613   0.659   0.662   0.751   0.752   0.790
  1.087   1.121   1.127   1.484   2.430   2.665   2.667   2.887
  2.887   2.888   2.889   2.945   2.949   3.080   3.188   3.279
  3.282   3.398   3.400   3.751   4.142   4.145   5.199  23.563
 27.141  27.146  27.641  40.709  40.800  41.051  41.070  41.073
 
 Beta MOs
 -- Occupied --
-10.062  -0.725  -0.408
 -- Virtual --
 -0.044  -0.007   0.037   0.118   0.121   0.134   0.160   0.217
  0.532   0.617   0.623   0.653   0.667   0.688   0.786   0.789
  0.812   1.098   1.124   1.143   1.494   2.439   2.686   2.730
  2.926   2.928   2.937   2.940   2.964   2.994   3.104   3.209
  3.347   3.350   3.418   3.458   3.769   4.143   4.158   5.211
 23.586  27.152  27.176  27.653  40.738  40.816  41.079  41.081
 41.101
 --------------------------------------------------------------
 
          Ground-State Mulliken Net Atomic Charges

     Atom                 Charge (a.u.)    Spin (a.u.)
  --------------------------------------------------------
      1 C                    -0.110441       1.022463
      2 H                     0.110441      -0.022463
  --------------------------------------------------------
  Sum of atomic charges =     0.000000
  Sum of spin   charges =     1.000000

 -----------------------------------------------------------------
                    Cartesian Multipole Moments
 -----------------------------------------------------------------
    Charge (ESU x 10^10)
                 0.0000
    Dipole Moment (Debye)
         X       0.0002      Y       0.0001      Z       1.6225
       Tot       1.6225
    Quadrupole Moments (Debye-Ang)
        XX      -7.0205     XY      -1.0564     YY      -7.0197
        XZ      -0.0002     YZ      -0.0002     ZZ      -7.4214
    Octapole Moments (Debye-Ang^2)
       XXX       0.0003    XXY       0.0001    XYY       0.0001
       YYY       0.0003    XXZ      -0.3679    XYZ      -0.0565
       YYZ      -0.3679    XZZ       0.0000    YZZ       0.0000
       ZZZ      -0.4784
    Hexadecapole Moments (Debye-Ang^3)
      XXXX      -9.0132   XXXY      -1.2834   XXYY      -3.0040
      XYYY      -1.2834   YYYY      -9.0113   XXXZ      -0.0003
      XXYZ      -0.0001   XYYZ      -0.0001   YYYZ      -0.0002
      XXZZ      -4.5160   XYZZ      -0.4397   YYZZ      -4.5157
      XZZZ      -0.0004   YZZZ      -0.0003   ZZZZ     -16.4629
 -----------------------------------------------------------------
 Total job time:  11.36s(wall), 4.58s(cpu) 
 Fri Apr 15 15:21:32 2011

        *************************************************************
        *                                                           *
        *  Thank you very much for using Q-Chem.  Have a nice day.  *
        *                                                           *
        *************************************************************


0 sent ACK to 0 
now end server 0 ... 
 
**********************************************************************
Job 3 of 3 
**********************************************************************
 
Process 0 of 1 is on cl201.stfx.acenet.ca - thread support 1
initial socket setup ...start
initial socket setup ...done 
now start server 0 ... 

cmd = /usr/bin/ssh clhead /usr/local/qchem/bin/get_hostid 86981024 > /globalscratch/itamblyn/bnl/g297_b3lyp_neut_g03Large_worked/g2g71002/omega370/qchem14958/lic.dat
                  Welcome to Q-Chem
     A Quantum Leap Into The Future Of Chemistry

 Y. Shao, L. Fusti-Molnar, Y. Jung, J. Kussmann, C. Ochsenfeld,
 S. T. Brown, A. T. B. Gilbert, L. V. Slipchenko,S. V. Levchenko,
 D. P. O'Neill, R. A. DiStasio Jr., R. C. Lochan, T. Wang,
 G. J. O. Beran, N. A. Besley, J. M. Herbert, C. Y. Lin,
 T. Van Voorhis, S. H. Chien, A. Sodt, R. P. Steele, 
 V. A. Rassolov, P. E. Maslen, P. P. Korambath, R. D. Adamson,
 B. Austin, J. Baker, E. F. C. Byrd, H. Dachsel, R. J. Doerksen,
 A. Dreuw, B. D. Dunietz, A. D. Dutoi, T. R. Furlani,
 S. R. Gwaltney, A. Heyden, S. Hirata, C.-P. Hsu, G. Kedziora,
 R. Z. Khaliullin, P. Klunzinger, A. M. Lee, M. S. Lee, W. Liang,
 I. Lotan, N. Nair, B. Peters, E. I. Proynov, P. A. Pieniazek, 
 Y. M. Rhee, J. Ritchie, E. Rosta, C. D. Sherrill, 
 A. C. Simmonett, J. E. Subotnik, H. L. Woodcock III,
 W. Zhang, A. T. Bell, A. K. Chakraborty, D. M. Chipman,
 F. J. Keil, A. Warshel, W. J. Hehre, H. F. Schaefer III,
 J. Kong, A. I. Krylov, P. M. W. Gill, M. Head-Gordon,
 Q-Chem, Version 3.1, Q-Chem, Inc., Pittsburgh, PA (2007).

 Additional authors for Version 3.1: 
 Z. Gan, Y. Zhao, N. E. Schultz, D. Truhlar, E. Epifanovsky and M. Oana.

 Additional authors for Version 3.2: 
 R. Baer, B. R. Brooks, D. Casanova, J.-D. Chai, C.-L. Cheng, 
 C. Cramer, D. Crittenden, A. Ghysels, G. Hawkins, E. G. Hohenstein, 
 C. Kelley, W. Kurlancheek, D. Liotard, E. Livshits, P. Manohar, 
 A. Marenich, D. Neuhauser, R. Olson, M. A. Rohrdanz, K. S. Thanthiriwatte, 
 A. J. W. Thom, V. Vanovschi, C. F. Williams, Q. Wu and Z.-Q. You. 


 Intel X86 Linux Version

 Q-chem begins on Fri Apr 15 15:21:37 2011  

 Parallel job on  1  processors
Processing $rem in /usr/local/qchem/config/preferences.

theFileMan(): MAXOPENFILES=974 MAX_SUB_FILE_NUM=16
Maximum size of a physical file is 2.0 GB, maximum size of a tmp-file is 32.0 GB


--------------------------------------------------------------
User input:
--------------------------------------------------------------

$molecule
1,1
C
H,1,RCH

RCH=1.13309913

$end

$comment
positive
$end

$xc_functional
   X HF 1.0
   X BNL 1.0
   C LYP 1.0
$end

$rem
SYMMETRY_DECOMPOSITION	0
exchange 		general
BASIS                   g3large
omega			370
separate_jk		true
mem_static              760
max_scf_cycles          200
scf_final_print         1
sym_ignore              true
$end

--------------------------------------------------------------
 Writing REM_CC_EA            2
 ----------------------------------------------------
       Standard Nuclear Orientation (Angstroms)
    I     Atom         X            Y            Z
 ----------------------------------------------------
    1      C       0.000000     0.000000     0.000000
    2      H       0.000000     0.000000     1.133099
 ----------------------------------------------------
 Nuclear Repulsion Energy =     2.8021054652 hartrees
 There are        3 alpha and        3 beta electrons
 Requested basis set is G3large
 There are 16 shells and 52 basis functions

Total QAlloc Memory Limit   2000 MB
Mega-Array Size       743 MB
MEM_STATIC part       760 MB

                       Distance Matrix (Angstroms)
             C (  1)
   H (  2)  1.133099
 
 A cutoff of  1.0D-08 yielded    136 shell pairs
 There are   1462 function pairs (  1834 Cartesian)
Evaluating contribution to one-electron hamiltonian from nuclear
 Smallest overlap matrix eigenvalue = 4.17E-03
 Multipole matrices computed through 2nd order

  Scale SEOQF with 1.000000e-01/1.000000e-01/1.000000e-01

 Standard Electronic Orientation quadrupole field applied
 Nucleus-field energy     =    -0.0000000001 hartrees
 Guess from superposition of atomic densities
 Warning:  Energy on first SCF cycle will be non-variational
 A restricted hybrid HF-DFT SCF calculation will be
 performed using Pulay DIIS extrapolation
 Exchange:     1.0000 Hartree-Fock + 1.0000 BNL
 Correlation:  1.0000 LYP
 Using SG-1 standard quadrature grid
 SCF converges when DIIS error is below 1.0E-05
 Warning!  Inaccurate integrated density:
   Number of electrons =     6
   Numerical integral  =     7.000003590818
   Relative error      =    16.6667265136 %
 ---------------------------------------
  Cycle       Energy         DIIS Error
 ---------------------------------------
    1     -37.8102025842      2.56E-02
    2     -37.5307032315      1.07E-02
    3     -37.5874026938      2.49E-03
    4     -37.5890961801      3.39E-04
    5     -37.5891520615      7.18E-05
    6     -37.5891587737      2.62E-05
    7     -37.5891607573      1.40E-05
    8     -37.5891615689      2.45E-06 Convergence criterion met
 ---------------------------------------
 One-Electron    Energy =   -53.4743970511
 Total Coulomb   Energy =    17.8380882977
 Alpha Exchange  Energy =    -0.5616532998
 Beta  Exchange  Energy =    -0.5616532998
 DFT   Exchange  Energy =    -3.4579103205
 DFT Correlation Energy =    -0.1737413604
 Nuclear Repu.   Energy =     2.8021054651
 Nuclear Attr.   Energy =   -90.9172645201
 Kinetic         Energy =    37.4428674689
 SCF time:  CPU 4.12 s  wall 12.91 s
 Final Alpha MO Eigenvalues
            1           2           3           4           5           6
    1 -10.5893842  -1.1651447  -0.8241298  -0.4444181  -0.4444173  -0.1632963
            7           8
    1  -0.0809278  -0.0795757
 Analysis of SCF Wavefunction
 
 --------------------------------------------------------------
                    Orbital Energies (a.u.)
 --------------------------------------------------------------
 
 Alpha MOs
 -- Occupied --
-10.589  -1.165  -0.824
 -- Virtual --
 -0.444  -0.444  -0.163  -0.081  -0.080  -0.080  -0.051  -0.018
  0.243   0.292   0.292   0.312   0.331   0.331   0.410   0.410
  0.474   0.760   0.802   0.802   1.156   2.063   2.245   2.245
  2.489   2.489   2.489   2.489   2.549   2.549   2.679   2.791
  2.855   2.856   2.987   2.987   3.359   3.767   3.767   4.809
 23.065  26.635  26.635  27.140  40.196  40.293  40.538  40.563
 40.563
 --------------------------------------------------------------
 
          Ground-State Mulliken Net Atomic Charges

     Atom                 Charge (a.u.)
  ----------------------------------------
      1 C                     0.747341
      2 H                     0.252659
  ----------------------------------------
  Sum of atomic charges =     1.000000

 -----------------------------------------------------------------
                    Cartesian Multipole Moments
 -----------------------------------------------------------------
    Charge (ESU x 10^10)
                 4.8032
    Dipole Moment (Debye)
         X       0.0000      Y       0.0000      Z       2.3178
       Tot       2.3178
    Quadrupole Moments (Debye-Ang)
        XX      -4.0295     XY       0.0000     YY      -4.0295
        XZ       0.0000     YZ       0.0000     ZZ      -3.8808
    Octapole Moments (Debye-Ang^2)
       XXX       0.0000    XXY       0.0000    XYY       0.0000
       YYY       0.0000    XXZ      -0.2798    XYZ       0.0000
       YYZ      -0.2798    XZZ       0.0000    YZZ       0.0000
       ZZZ       1.5108
    Hexadecapole Moments (Debye-Ang^3)
      XXXX      -3.1881   XXXY       0.0000   XXYY      -1.0627
      XYYY       0.0000   YYYY      -3.1881   XXXZ       0.0000
      XXYZ       0.0000   XYYZ       0.0000   YYYZ       0.0000
      XXZZ      -2.2279   XYZZ       0.0000   YYZZ      -2.2279
      XZZZ       0.0000   YZZZ       0.0000   ZZZZ      -6.4600
 -----------------------------------------------------------------
 Total job time:  16.17s(wall), 4.20s(cpu) 
 Fri Apr 15 15:21:53 2011

        *************************************************************
        *                                                           *
        *  Thank you very much for using Q-Chem.  Have a nice day.  *
        *                                                           *
        *************************************************************


0 sent ACK to 0 
now end server 0 ... 
