Process 0 of 1 is on cl104.stfx.acenet.ca - thread support 1
initial socket setup ...start
initial socket setup ...done 
now start server 0 ... 

cmd = /usr/bin/ssh clhead /usr/local/qchem/bin/get_hostid 1934556515 > /scratch/tmp/6067183.1.short.q/qchem29845/lic.dat
                  Welcome to Q-Chem
     A Quantum Leap Into The Future Of Chemistry

 Y. Shao, L. Fusti-Molnar, Y. Jung, J. Kussmann, C. Ochsenfeld,
 S. T. Brown, A. T. B. Gilbert, L. V. Slipchenko,S. V. Levchenko,
 D. P. O'Neill, R. A. DiStasio Jr., R. C. Lochan, T. Wang,
 G. J. O. Beran, N. A. Besley, J. M. Herbert, C. Y. Lin,
 T. Van Voorhis, S. H. Chien, A. Sodt, R. P. Steele, 
 V. A. Rassolov, P. E. Maslen, P. P. Korambath, R. D. Adamson,
 B. Austin, J. Baker, E. F. C. Byrd, H. Dachsel, R. J. Doerksen,
 A. Dreuw, B. D. Dunietz, A. D. Dutoi, T. R. Furlani,
 S. R. Gwaltney, A. Heyden, S. Hirata, C.-P. Hsu, G. Kedziora,
 R. Z. Khaliullin, P. Klunzinger, A. M. Lee, M. S. Lee, W. Liang,
 I. Lotan, N. Nair, B. Peters, E. I. Proynov, P. A. Pieniazek, 
 Y. M. Rhee, J. Ritchie, E. Rosta, C. D. Sherrill, 
 A. C. Simmonett, J. E. Subotnik, H. L. Woodcock III,
 W. Zhang, A. T. Bell, A. K. Chakraborty, D. M. Chipman,
 F. J. Keil, A. Warshel, W. J. Hehre, H. F. Schaefer III,
 J. Kong, A. I. Krylov, P. M. W. Gill, M. Head-Gordon,
 Q-Chem, Version 3.1, Q-Chem, Inc., Pittsburgh, PA (2007).

 Additional authors for Version 3.1: 
 Z. Gan, Y. Zhao, N. E. Schultz, D. Truhlar, E. Epifanovsky and M. Oana.

 Additional authors for Version 3.2: 
 R. Baer, B. R. Brooks, D. Casanova, J.-D. Chai, C.-L. Cheng, 
 C. Cramer, D. Crittenden, A. Ghysels, G. Hawkins, E. G. Hohenstein, 
 C. Kelley, W. Kurlancheek, D. Liotard, E. Livshits, P. Manohar, 
 A. Marenich, D. Neuhauser, R. Olson, M. A. Rohrdanz, K. S. Thanthiriwatte, 
 A. J. W. Thom, V. Vanovschi, C. F. Williams, Q. Wu and Z.-Q. You. 


 Intel X86 Linux Version

 Q-chem begins on Wed Jul 24 16:41:07 2013  

 Parallel job on  1  processors
Processing $rem in /usr/local/qchem/config/preferences.

theFileMan(): MAXOPENFILES=974 MAX_SUB_FILE_NUM=16
Maximum size of a physical file is 2.0 GB, maximum size of a tmp-file is 32.0 GB


--------------------------------------------------------------
User input:
--------------------------------------------------------------

$molecule
0,2
C
X,1,1.
C,1,CC,2,CCX
C,1,CC,2,CCX,3,120.,0
C,1,CC,2,CCX,3,-120.,0
X,3,1.,1,XCC,2,0.,0
H,3,CH1,1,H1CC,6,180.,0
H,3,CH2,6,HCX,1,90.,0
H,3,CH2,6,HCX,1,-90.,0
X,4,1.,1,XCC,2,0.,0
H,4,CH1,1,H1CC,10,180.,0
H,4,CH2,10,HCX,1,90.,0
H,4,CH2,10,HCX,1,-90.,0
X,5,1.,1,XCC,2,0.,0
H,5,CH1,1,H1CC,14,180.,0
H,5,CH2,14,HCX,1,90.,0
H,5,CH2,14,HCX,1,-90.,0

CC=1.4974949
CH1=1.10709549
CH2=1.09754396
XCC=129.18006387
H1CC=112.18931802
HCX=54.06363192
CCX=96.10000574

$end


$comment
b3lyp opt
$end

$rem
   EXCHANGE B3LYP
   UNRESTRICTED TRUE
   SYMMETRY_DECOMPOSITION	0
   BASIS                   g3large
   JOBTYPE                 opt
   mem_static              760
   max_scf_cycles          200
   scf_final_print         1
   sym_ignore              true
$end


--------------------------------------------------------------
 Writing REM_CC_EA           13
 ----------------------------------------------------
       Standard Nuclear Orientation (Angstroms)
    I     Atom         X            Y            Z
 ----------------------------------------------------
    1      C       0.000000     0.000000     0.000000
    2      C       1.489016     0.000000    -0.159130
    3      C      -0.744508    -1.289526    -0.159130
    4      C      -0.744508     1.289526    -0.159130
    5      H       1.795831     0.000000    -1.222862
    6      H       1.946708     0.888648     0.294109
    7      H       1.946708    -0.888648     0.294109
    8      H      -0.897916    -1.555236    -1.222862
    9      H      -0.203763    -2.130223     0.294109
   10      H      -1.742946    -1.241575     0.294109
   11      H      -0.897916     1.555236    -1.222862
   12      H      -1.742946     1.241575     0.294109
   13      H      -0.203763     2.130223     0.294109
 ----------------------------------------------------
 Nuclear Repulsion Energy =   124.9362447512 hartrees
 There are       17 alpha and       16 beta electrons
 Requested basis set is G3large
 There are 94 shells and 258 basis functions

Total QAlloc Memory Limit   2000 MB
Mega-Array Size       743 MB
MEM_STATIC part       760 MB
 A cutoff of  1.0D-11 yielded   4243 shell pairs
 There are  32055 function pairs ( 38481 Cartesian)
Evaluating contribution to one-electron hamiltonian from nuclear
 Smallest overlap matrix eigenvalue = 4.90E-05
 Multipole matrices computed through 2nd order

  Scale SEOQF with 1.000000e-01/1.000000e-01/1.000000e-01

 Standard Electronic Orientation quadrupole field applied
 Nucleus-field energy     =     0.0000000035 hartrees
 Guess from superposition of atomic densities
 Warning:  Energy on first SCF cycle will be non-variational
 An unrestricted hybrid HF-DFT SCF calculation will be
 performed using Pulay DIIS extrapolation
 Exchange:     0.2000 Hartree-Fock + 0.0800 Slater + 0.7200 Becke88
 Correlation:  0.8100 LYP + 0.1900 VWN1RPA
 Using SG-1 standard quadrature grid
 SCF converges when DIIS error is below 1.0E-08
 ---------------------------------------
  Cycle       Energy         DIIS Error
 ---------------------------------------
    1    -158.3070201416      2.69E-02
    2    -157.6948318043      4.19E-03
    3    -157.6491699314      4.68E-03
    4    -157.8540716712      4.61E-04
    5    -157.8557512476      2.14E-04
    6    -157.8561552699      2.96E-05
    7    -157.8561682482      6.34E-06
    8    -157.8561698263      2.64E-06
    9    -157.8561700591      1.16E-06
   10    -157.8561701489      2.95E-07
   11    -157.8561702734      6.49E-08
   12    -157.8561702857      2.07E-08
   13    -157.8561702878      5.14E-09 Convergence criterion met
 ---------------------------------------
 One-Electron    Energy =  -457.8111627087
 Total Coulomb   Energy =   200.1003759493
 Alpha Exchange  Energy =    -2.4368561428
 Beta  Exchange  Energy =    -2.3473162764
 DFT   Exchange  Energy =   -18.9534704427
 DFT Correlation Energy =    -1.3439854211
 Nuclear Repu.   Energy =   124.9362447547
 Nuclear Attr.   Energy =  -614.8031500166
 Kinetic         Energy =   156.9919873079
 <S^2> = 0.7543
 SCF time:  CPU 377.95 s  wall 378.83 s
 Final Alpha MO Eigenvalues
            1           2           3           4           5           6
    1 -10.1765907 -10.1601864 -10.1601855 -10.1601689  -0.8028763  -0.6916470
            7           8           9          10          11          12
    1  -0.6916464  -0.5381830  -0.4457280  -0.4415392  -0.4415288  -0.3880040
           13          14          15          16          17          18
    1  -0.3880001  -0.3691156  -0.3473717  -0.3473707  -0.1758200  -0.0111334
           19          20          21          22
    1   0.0149956   0.0150015   0.0266158   0.0392698
 Final Beta MO Eigenvalues
            1           2           3           4           5           6
    1 -10.1625526 -10.1610049 -10.1610039 -10.1609605  -0.7861913  -0.6894384
            7           8           9          10          11          12
    1  -0.6894379  -0.5195690  -0.4377896  -0.4377793  -0.4264435  -0.3819622
           13          14          15          16          17          18
    1  -0.3819587  -0.3680201  -0.3426939  -0.3426931  -0.0417199  -0.0100401
           19          20          21
    1   0.0149914   0.0149974   0.0284074
 Analysis of SCF Wavefunction
 
 --------------------------------------------------------------
                    Orbital Energies (a.u.)
 --------------------------------------------------------------
 
 Alpha MOs
 -- Occupied --
-10.177 -10.160 -10.160 -10.160  -0.803  -0.692  -0.692  -0.538
 -0.446  -0.442  -0.442  -0.388  -0.388  -0.369  -0.347  -0.347
 -0.176
 -- Virtual --
 -0.011   0.015   0.015   0.027   0.039   0.039   0.054   0.054
  0.061   0.082   0.086   0.096   0.097   0.117   0.117   0.120
  0.140   0.140   0.140   0.153   0.153   0.164   0.170   0.170
  0.173   0.191   0.191   0.214   0.223   0.223   0.224   0.259
  0.296   0.301   0.301   0.320   0.320   0.408   0.408   0.435
  0.480   0.480   0.503   0.505   0.505   0.512   0.545   0.552
  0.552   0.564   0.567   0.573   0.574   0.615   0.615   0.634
  0.634   0.662   0.669   0.682   0.682   0.731   0.793   0.793
  0.826   0.839   0.839   0.875   0.905   0.905   0.934   1.001
  1.001   1.041   1.113   1.113   1.142   1.142   1.155   1.156
  1.178   1.178   1.229   1.247   1.247   1.266   1.271   1.271
  1.309   1.329   1.331   1.331   1.366   1.366   1.429   1.429
  1.446   1.463   1.501   1.501   1.523   1.531   1.572   1.572
  1.574   1.645   1.645   1.749   1.749   2.358   2.358   2.436
  2.465   2.506   2.506   2.572   2.695   2.695   2.755   2.785
  2.796   2.796   2.826   2.861   2.861   2.927   2.927   2.928
  2.951   2.987   2.987   3.100   3.100   3.137   3.159   3.159
  3.190   3.190   3.208   3.214   3.277   3.277   3.313   3.313
  3.331   3.348   3.381   3.408   3.408   3.529   3.529   3.540
  3.577   3.577   3.610   3.653   3.653   3.740   3.759   3.759
  3.795   3.795   3.843   3.843   3.887   3.956   3.956   3.994
  4.023   4.083   4.083   4.095   4.157   4.157   4.234   4.234
  4.236   4.247   4.307   4.307   4.338   4.363   4.430   4.438
  4.438   4.511   4.511   4.529   4.563   4.564   4.632   4.632
  4.737   4.916   4.916   4.987   5.153   5.464   5.464   5.620
  5.650   5.650   5.665   5.676   5.676  23.956  24.293  24.293
 24.418  27.488  27.731  27.731  28.109  28.126  28.126  28.140
 28.157  28.216  28.216  28.609  28.609  40.950  41.006  41.013
 41.019  41.038  41.055  41.055  41.120  41.193  41.205  41.225
 41.234  41.236  41.249  41.254  41.257  41.265  41.300  41.310
 41.380
 
 Beta MOs
 -- Occupied --
-10.163 -10.161 -10.161 -10.161  -0.786  -0.689  -0.689  -0.520
 -0.438  -0.438  -0.426  -0.382  -0.382  -0.368  -0.343  -0.343
 -- Virtual --
 -0.042  -0.010   0.015   0.015   0.028   0.039   0.039   0.054
  0.054   0.063   0.081   0.089   0.097   0.097   0.116   0.117
  0.121   0.141   0.141   0.145   0.153   0.153   0.169   0.169
  0.171   0.173   0.193   0.193   0.220   0.223   0.223   0.225
  0.276   0.301   0.302   0.303   0.326   0.326   0.410   0.411
  0.439   0.482   0.482   0.504   0.507   0.507   0.527   0.555
  0.555   0.564   0.565   0.574   0.574   0.585   0.618   0.618
  0.640   0.640   0.665   0.676   0.685   0.685   0.751   0.798
  0.798   0.826   0.842   0.842   0.881   0.912   0.913   0.937
  1.005   1.005   1.046   1.115   1.115   1.144   1.144   1.155
  1.161   1.184   1.184   1.235   1.252   1.252   1.274   1.274
  1.279   1.311   1.336   1.336   1.342   1.369   1.369   1.432
  1.432   1.447   1.468   1.503   1.503   1.523   1.543   1.576
  1.576   1.584   1.657   1.657   1.755   1.755   2.361   2.361
  2.448   2.466   2.513   2.513   2.581   2.701   2.701   2.785
  2.785   2.804   2.804   2.874   2.874   2.878   2.928   2.928
  2.952   2.952   2.993   2.993   3.115   3.115   3.143   3.161
  3.161   3.203   3.203   3.215   3.223   3.279   3.279   3.317
  3.317   3.332   3.348   3.410   3.411   3.411   3.544   3.547
  3.547   3.587   3.587   3.609   3.669   3.669   3.744   3.762
  3.762   3.808   3.808   3.848   3.848   3.891   3.962   3.962
  3.995   4.043   4.090   4.090   4.101   4.166   4.166   4.240
  4.240   4.241   4.260   4.314   4.314   4.348   4.365   4.434
  4.445   4.445   4.519   4.519   4.537   4.575   4.575   4.637
  4.637   4.748   4.923   4.923   4.991   5.159   5.469   5.469
  5.625   5.654   5.654   5.666   5.678   5.678  23.966  24.292
 24.292  24.423  27.518  27.734  27.734  28.109  28.125  28.125
 28.140  28.156  28.216  28.216  28.611  28.612  40.968  41.006
 41.013  41.019  41.038  41.054  41.062  41.124  41.209  41.217
 41.224  41.236  41.239  41.248  41.255  41.259  41.266  41.300
 41.309  41.382
 --------------------------------------------------------------
 
          Ground-State Mulliken Net Atomic Charges

     Atom                 Charge (a.u.)    Spin (a.u.)
  --------------------------------------------------------
      1 C                     0.433325       0.839433
      2 C                    -0.462296      -0.033235
      3 C                    -0.460803      -0.033510
      4 C                    -0.460803      -0.033510
      5 H                     0.097530       0.069525
      6 H                     0.109820       0.008715
      7 H                     0.109820       0.008715
      8 H                     0.097302       0.069550
      9 H                     0.109820       0.008707
     10 H                     0.109580       0.008677
     11 H                     0.097302       0.069550
     12 H                     0.109580       0.008677
     13 H                     0.109820       0.008707
  --------------------------------------------------------
  Sum of atomic charges =     0.000000
  Sum of spin   charges =     1.000000

 -----------------------------------------------------------------
                    Cartesian Multipole Moments
 -----------------------------------------------------------------
    Charge (ESU x 10^10)
                 0.0000
    Dipole Moment (Debye)
         X      -0.0002      Y       0.0000      Z      -0.1868
       Tot       0.1868
    Quadrupole Moments (Debye-Ang)
        XX     -27.9236     XY       0.0000     YY     -27.9243
        XZ       0.0004     YZ       0.0000     ZZ     -28.6416
    Octapole Moments (Debye-Ang^2)
       XXX      -1.5527    XXY       0.0000    XYY       1.5523
       YYY       0.0000    XXZ       5.4309    XYZ       0.0000
       YYZ       5.4315    XZZ      -0.0002    YZZ       0.0000
       ZZZ      10.7096
    Hexadecapole Moments (Debye-Ang^3)
      XXXX    -229.8264   XXXY       0.0000   XXYY     -76.6093
      XYYY       0.0000   YYYY    -229.8278   XXXZ      -1.3604
      XXYZ       0.0000   XYYZ       1.3627   YYYZ       0.0000
      XXZZ     -48.3828   XYZZ       0.0000   YYZZ     -48.3833
      XZZZ       0.0009   YZZZ       0.0000   ZZZZ     -59.8478
 -----------------------------------------------------------------
 Calculating analytic gradient of the SCF energy
 Gradient of XC Energy
            1           2           3           4           5           6
    1   0.0000215  -0.0732296   0.0366305   0.0366305   0.0537424   0.0794563
    2  -0.0000000   0.0000000   0.0636513  -0.0636513  -0.0000000   0.1481527
    3   0.0612293  -0.0031723  -0.0029949  -0.0029949  -0.1686109   0.0755936
            7           8           9          10          11          12
    1   0.0794563  -0.0268061   0.0886188  -0.1681667  -0.0268061  -0.1681667
    2  -0.1481527  -0.0465797  -0.1429329   0.0052498   0.0465797  -0.0052498
    3   0.0755936  -0.1686225   0.0756640   0.0756367  -0.1686225   0.0756367
           13
    1   0.0886188
    2   0.1429329
    3   0.0756640
 Gradient of SCF Energy
            1           2           3           4           5           6
    1  -0.0002036  -0.0004236   0.0004185   0.0004185   0.0012665   0.0015713
    2  -0.0000000  -0.0000000   0.0005320  -0.0005319  -0.0000000   0.0027625
    3   0.0016597  -0.0008008  -0.0008333  -0.0008333  -0.0026547   0.0014351
            7           8           9          10          11          12
    1   0.0015713  -0.0005934   0.0015867  -0.0033028  -0.0005934  -0.0033027
    2  -0.0027625  -0.0011211  -0.0027765   0.0000181   0.0011211  -0.0000181
    3   0.0014351  -0.0026736   0.0014882   0.0014815  -0.0026735   0.0014814
           13
    1   0.0015867
    2   0.0027764
    3   0.0014882
 Max gradient component =       3.303E-03
 RMS gradient           =       1.660E-03
 Gradient time:  CPU 110.50 s  wall 110.57 s
 Geometry Optimization Parameters
   NAtoms,    NIC,     NZ,  NCons,   NDum,   NFix, NCnnct, MaxDiis
       13      77      17       0       0       0       0       0


** GEOMETRY OPTIMIZATION IN DELOCALIZED INTERNAL COORDINATES **
   Searching for a Minimum

   Optimization Cycle:   1

                       Coordinates (Angstroms)
     ATOM              X           Y           Z
    1  C           0.000000    0.000000    0.000000
    2  C           1.489016    0.000000   -0.159130
    3  C          -0.744508   -1.289526   -0.159130
    4  C          -0.744508    1.289526   -0.159130
    5  H           1.795831    0.000000   -1.222862
    6  H           1.946708    0.888648    0.294109
    7  H           1.946708   -0.888648    0.294109
    8  H          -0.897916   -1.555236   -1.222862
    9  H          -0.203763   -2.130223    0.294109
   10  H          -1.742946   -1.241575    0.294109
   11  H          -0.897916    1.555236   -1.222862
   12  H          -1.742946    1.241575    0.294109
   13  H          -0.203763    2.130223    0.294109
   Point Group: c1    Number of degrees of freedom:  33


   Energy is   -157.856170288


 Attempting to Generate Delocalized Internal Coordinates

 33 Hessian modes will be used to form the next step
  Hessian Eigenvalues:
     0.009510    0.009510    0.009510    0.011388    0.071409    0.071409
     0.071409    0.071910    0.071910    0.071910    0.160000    0.160000
     0.160000    0.160000    0.160000    0.160000    0.160000    0.160000
     0.160000    0.235051    0.235051    0.326416    0.326416    0.326416
     0.329095    0.329095    0.329095    0.339552    0.339552    0.339552
     0.339552    0.339552    0.339552

 Minimum Search - Taking Simple RFO Step
 Searching for Lamda that Minimizes Along All modes
 Value Taken    Lamda =  -0.00045946
 Step Taken.  Stepsize is  0.041668

                             Maximum     Tolerance    Cnvgd?
         Gradient           0.009330      0.000300      NO
         Displacement       0.026947      0.001200      NO
         Energy change     *********      0.000001      NO


 New Cartesian Coordinates Obtained by Inverse Iteration

 Displacement from previous Coordinates is:  0.072182
 Writing REM_CC_EA           13
 ----------------------------------------------------
       Standard Nuclear Orientation (Angstroms)
    I     Atom         X            Y            Z
 ----------------------------------------------------
    1      C       0.000131     0.000000     0.003625
    2      C       1.482421     0.000000    -0.157045
    3      C      -0.741241    -1.283705    -0.158232
    4      C      -0.741241     1.283705    -0.158232
    5      H       1.781512     0.000000    -1.218121
    6      H       1.938480     0.884820     0.292224
    7      H       1.938480    -0.884820     0.292224
    8      H      -0.892499    -1.540485    -1.219599
    9      H      -0.202049    -2.121853     0.288278
   10      H      -1.734722    -1.237215     0.292440
   11      H      -0.892499     1.540485    -1.219599
   12      H      -1.734722     1.237215     0.292440
   13      H      -0.202049     2.121853     0.288278
 ----------------------------------------------------
 Nuclear Repulsion Energy =   125.5147316305 hartrees
 There are       17 alpha and       16 beta electrons
 Applying Cartesian multipole field
    Component          Value
    ---------          -----
     (2,0,0)        1.00000E-11
     (0,2,0)        2.00000E-11
     (0,0,2)       -3.00000E-11
 Nucleus-field energy     =     0.0000000035 hartrees
 Requested basis set is G3large
 There are 94 shells and 258 basis functions
 A cutoff of  1.0D-11 yielded   4243 shell pairs
 There are  32055 function pairs ( 38481 Cartesian)
Evaluating contribution to one-electron hamiltonian from nuclear
 Smallest overlap matrix eigenvalue = 4.80E-05
 Multipole matrices computed through 2nd order
 Guess MOs from SCF MO coefficient file
Reading MOs from coefficient file
Reading MOs from coefficient file
 An unrestricted hybrid HF-DFT SCF calculation will be
 performed using Pulay DIIS extrapolation
 Exchange:     0.2000 Hartree-Fock + 0.0800 Slater + 0.7200 Becke88
 Correlation:  0.8100 LYP + 0.1900 VWN1RPA
 Using SG-1 standard quadrature grid
 SCF converges when DIIS error is below 1.0E-08
 ---------------------------------------
  Cycle       Energy         DIIS Error
 ---------------------------------------
    1    -157.8615677551      1.53E-04
    2    -157.8563863994      2.93E-05
    3    -157.8563842525      3.64E-05
    4    -157.8563970819      2.16E-06
    5    -157.8563968961      1.09E-06
    6    -157.8563969852      2.62E-07
    7    -157.8563969729      4.16E-08
    8    -157.8563969639      7.91E-09 Convergence criterion met
 ---------------------------------------
 One-Electron    Energy =  -458.9442342575
 Total Coulomb   Energy =   200.6802790002
 Alpha Exchange  Energy =    -2.4394998133
 Beta  Exchange  Energy =    -2.3499014585
 DFT   Exchange  Energy =   -18.9723823792
 DFT Correlation Energy =    -1.3453896895
 Nuclear Repu.   Energy =   125.5147316340
 Nuclear Attr.   Energy =  -616.0316418105
 Kinetic         Energy =   157.0874075530
 <S^2> = 0.7542
 SCF time:  CPU 236.90 s  wall 237.34 s
 Final Alpha MO Eigenvalues
            1           2           3           4           5           6
    1 -10.1742862 -10.1578542 -10.1578322 -10.1578184  -0.8055064  -0.6933370
            7           8           9          10          11          12
    1  -0.6933139  -0.5386933  -0.4477032  -0.4431725  -0.4431330  -0.3889724
           13          14          15          16          17          18
    1  -0.3889068  -0.3698962  -0.3478291  -0.3477399  -0.1747089  -0.0108654
           19          20          21          22
    1   0.0152136   0.0152234   0.0266355   0.0395615
 Final Beta MO Eigenvalues
            1           2           3           4           5           6
    1 -10.1602938 -10.1586619 -10.1586415 -10.1586028  -0.7888569  -0.6910735
            7           8           9          10          11          12
    1  -0.6910547  -0.5201957  -0.4394255  -0.4393984  -0.4282699  -0.3828602
           13          14          15          16          17          18
    1  -0.3828013  -0.3687879  -0.3431119  -0.3430337  -0.0410066  -0.0096938
           19          20          21
    1   0.0151944   0.0152022   0.0284894
 Analysis of SCF Wavefunction
 
 --------------------------------------------------------------
                    Orbital Energies (a.u.)
 --------------------------------------------------------------
 
 Alpha MOs
 -- Occupied --
-10.174 -10.158 -10.158 -10.158  -0.806  -0.693  -0.693  -0.539
 -0.448  -0.443  -0.443  -0.389  -0.389  -0.370  -0.348  -0.348
 -0.175
 -- Virtual --
 -0.011   0.015   0.015   0.027   0.040   0.040   0.054   0.054
  0.061   0.082   0.086   0.097   0.097   0.117   0.117   0.120
  0.140   0.140   0.140   0.153   0.153   0.164   0.170   0.170
  0.174   0.192   0.192   0.216   0.224   0.224   0.226   0.262
  0.299   0.301   0.302   0.322   0.322   0.408   0.408   0.435
  0.481   0.481   0.504   0.505   0.505   0.515   0.546   0.553
  0.553   0.565   0.568   0.574   0.574   0.619   0.619   0.637
  0.637   0.661   0.673   0.685   0.686   0.732   0.792   0.793
  0.829   0.840   0.840   0.875   0.908   0.908   0.939   1.003
  1.003   1.043   1.115   1.115   1.145   1.145   1.155   1.159
  1.183   1.184   1.232   1.251   1.251   1.269   1.273   1.274
  1.314   1.333   1.334   1.334   1.366   1.366   1.432   1.432
  1.451   1.465   1.504   1.504   1.530   1.536   1.577   1.577
  1.581   1.647   1.647   1.751   1.751   2.357   2.357   2.439
  2.466   2.504   2.505   2.570   2.696   2.697   2.763   2.792
  2.798   2.798   2.826   2.861   2.861   2.928   2.928   2.930
  2.954   2.993   2.993   3.106   3.107   3.139   3.160   3.160
  3.189   3.189   3.211   3.221   3.277   3.278   3.319   3.320
  3.336   3.356   3.386   3.409   3.409   3.532   3.532   3.540
  3.580   3.580   3.607   3.656   3.657   3.751   3.768   3.768
  3.806   3.806   3.850   3.851   3.902   3.971   3.971   4.006
  4.039   4.096   4.096   4.108   4.170   4.170   4.242   4.242
  4.244   4.257   4.318   4.319   4.341   4.378   4.444   4.453
  4.453   4.527   4.527   4.543   4.575   4.575   4.648   4.648
  4.754   4.921   4.921   5.006   5.162   5.487   5.488   5.642
  5.671   5.671   5.688   5.700   5.700  23.969  24.322  24.323
 24.454  27.496  27.747  27.748  28.122  28.135  28.136  28.150
 28.167  28.228  28.228  28.609  28.609  40.952  41.008  41.018
 41.025  41.043  41.060  41.061  41.128  41.196  41.209  41.228
 41.237  41.240  41.254  41.258  41.263  41.271  41.308  41.318
 41.390
 
 Beta MOs
 -- Occupied --
-10.160 -10.159 -10.159 -10.159  -0.789  -0.691  -0.691  -0.520
 -0.439  -0.439  -0.428  -0.383  -0.383  -0.369  -0.343  -0.343
 -- Virtual --
 -0.041  -0.010   0.015   0.015   0.028   0.040   0.040   0.054
  0.054   0.063   0.082   0.089   0.097   0.098   0.117   0.117
  0.122   0.141   0.141   0.144   0.153   0.153   0.170   0.170
  0.171   0.174   0.195   0.195   0.221   0.224   0.224   0.227
  0.279   0.303   0.303   0.304   0.328   0.329   0.410   0.410
  0.439   0.483   0.483   0.506   0.507   0.507   0.530   0.557
  0.557   0.565   0.567   0.574   0.574   0.585   0.622   0.622
  0.643   0.643   0.666   0.680   0.688   0.688   0.752   0.797
  0.798   0.829   0.843   0.844   0.881   0.916   0.916   0.941
  1.007   1.007   1.048   1.117   1.118   1.148   1.148   1.156
  1.164   1.189   1.189   1.239   1.256   1.256   1.277   1.277
  1.283   1.315   1.339   1.340   1.346   1.370   1.370   1.435
  1.435   1.452   1.470   1.506   1.506   1.530   1.548   1.581
  1.581   1.590   1.659   1.659   1.757   1.757   2.360   2.361
  2.450   2.467   2.511   2.511   2.579   2.702   2.703   2.792
  2.793   2.806   2.807   2.875   2.875   2.878   2.929   2.929
  2.954   2.955   2.998   2.999   3.121   3.121   3.145   3.162
  3.162   3.202   3.202   3.222   3.226   3.280   3.281   3.323
  3.324   3.337   3.356   3.412   3.412   3.414   3.543   3.548
  3.548   3.590   3.591   3.606   3.673   3.674   3.754   3.771
  3.771   3.818   3.818   3.855   3.855   3.906   3.977   3.977
  4.006   4.058   4.103   4.103   4.114   4.179   4.179   4.248
  4.248   4.250   4.270   4.326   4.326   4.351   4.380   4.448
  4.461   4.461   4.534   4.535   4.552   4.586   4.586   4.652
  4.653   4.766   4.928   4.928   5.009   5.169   5.491   5.492
  5.647   5.676   5.676   5.690   5.703   5.703  23.979  24.322
 24.322  24.459  27.526  27.750  27.751  28.122  28.135  28.135
 28.149  28.166  28.228  28.228  28.612  28.612  40.971  41.009
 41.017  41.024  41.043  41.060  41.068  41.132  41.211  41.221
 41.228  41.240  41.244  41.254  41.259  41.264  41.271  41.307
 41.317  41.393
 --------------------------------------------------------------
 
          Ground-State Mulliken Net Atomic Charges

     Atom                 Charge (a.u.)    Spin (a.u.)
  --------------------------------------------------------
      1 C                     0.437233       0.834746
      2 C                    -0.467997      -0.032330
      3 C                    -0.465957      -0.032640
      4 C                    -0.465957      -0.032640
      5 H                     0.098635       0.070664
      6 H                     0.111248       0.008518
      7 H                     0.111248       0.008518
      8 H                     0.098482       0.070613
      9 H                     0.111198       0.008403
     10 H                     0.111095       0.008565
     11 H                     0.098482       0.070613
     12 H                     0.111095       0.008565
     13 H                     0.111198       0.008403
  --------------------------------------------------------
  Sum of atomic charges =     0.000000
  Sum of spin   charges =     1.000000

 -----------------------------------------------------------------
                    Cartesian Multipole Moments
 -----------------------------------------------------------------
    Charge (ESU x 10^10)
                 0.0000
    Dipole Moment (Debye)
         X      -0.0002      Y       0.0000      Z      -0.1864
       Tot       0.1864
    Quadrupole Moments (Debye-Ang)
        XX     -27.9010     XY       0.0000     YY     -27.9021
        XZ       0.0004     YZ       0.0000     ZZ     -28.6048
    Octapole Moments (Debye-Ang^2)
       XXX      -1.5743    XXY       0.0000    XYY       1.5760
       YYY       0.0000    XXZ       5.4217    XYZ       0.0000
       YYZ       5.4202    XZZ      -0.0040    YZZ       0.0000
       ZZZ      10.6472
    Hexadecapole Moments (Debye-Ang^3)
      XXXX    -227.5831   XXXY       0.0000   XXYY     -75.8423
      XYYY       0.0000   YYYY    -227.4993   XXXZ      -1.3297
      XXYZ       0.0000   XYYZ       1.2586   YYYZ       0.0000
      XXZZ     -48.0024   XYZZ       0.0000   YYZZ     -48.0208
      XZZZ      -0.0487   YZZZ       0.0000   ZZZZ     -59.6334
 -----------------------------------------------------------------
 Calculating analytic gradient of the SCF energy
 Gradient of XC Energy
            1           2           3           4           5           6
    1  -0.0001088  -0.0736660   0.0369409   0.0369409   0.0525057   0.0797104
    2  -0.0000000  -0.0000000   0.0641647  -0.0641647   0.0000000   0.1485647
    3   0.0624707  -0.0030515  -0.0026290  -0.0026290  -0.1690030   0.0755380
            7           8           9          10          11          12
    1   0.0797104  -0.0264903   0.0890440  -0.1685705  -0.0264903  -0.1685705
    2  -0.1485647  -0.0451515  -0.1435225   0.0050628   0.0451515  -0.0050628
    3   0.0755379  -0.1690531   0.0751337   0.0758024  -0.1690531   0.0758024
           13
    1   0.0890440
    2   0.1435225
    3   0.0751337
 Gradient of SCF Energy
            1           2           3           4           5           6
    1  -0.0000862  -0.0000993   0.0000899   0.0000899  -0.0000257  -0.0000708
    2  -0.0000000   0.0000000   0.0001629  -0.0001629   0.0000000   0.0000440
    3   0.0000498  -0.0003739  -0.0003039  -0.0003039   0.0001426   0.0000949
            7           8           9          10          11          12
    1  -0.0000708   0.0000398   0.0000593  -0.0000127   0.0000398  -0.0000127
    2  -0.0000440  -0.0000183   0.0000195   0.0000764   0.0000183  -0.0000764
    3   0.0000949   0.0001287   0.0001122   0.0000587   0.0001287   0.0000587
           13
    1   0.0000594
    2  -0.0000195
    3   0.0001122
 Max gradient component =       3.739E-04
 RMS gradient           =       1.193E-04
 Gradient time:  CPU 111.61 s  wall 111.67 s
 Geometry Optimization Parameters
   NAtoms,    NIC,     NZ,  NCons,   NDum,   NFix, NCnnct, MaxDiis
       13      77      17       0       0       0       0       0

 Cartesian Hessian Update
 Hessian Updated using BFGS Update


** GEOMETRY OPTIMIZATION IN DELOCALIZED INTERNAL COORDINATES **
   Searching for a Minimum

   Optimization Cycle:   2

                       Coordinates (Angstroms)
     ATOM              X           Y           Z
    1  C           0.000131    0.000000    0.003625
    2  C           1.482421    0.000000   -0.157045
    3  C          -0.741241   -1.283705   -0.158232
    4  C          -0.741241    1.283705   -0.158232
    5  H           1.781512    0.000000   -1.218121
    6  H           1.938480    0.884820    0.292224
    7  H           1.938480   -0.884820    0.292224
    8  H          -0.892499   -1.540485   -1.219599
    9  H          -0.202049   -2.121853    0.288278
   10  H          -1.734722   -1.237215    0.292440
   11  H          -0.892499    1.540485   -1.219599
   12  H          -1.734722    1.237215    0.292440
   13  H          -0.202049    2.121853    0.288278
   Point Group: c1    Number of degrees of freedom:  33


   Energy is   -157.856396964

 Hessian Updated using BFGS Update

 14 Hessian modes will be used to form the next step
  Hessian Eigenvalues:
     0.009474    0.011342    0.070942    0.071410    0.071909    0.158669
     0.160900    0.234951    0.326306    0.327434    0.329093    0.331693
     0.339516    0.347862

 Minimum Search - Taking Simple RFO Step
 Searching for Lamda that Minimizes Along All modes
 Value Taken    Lamda =  -0.00000386
 Step Taken.  Stepsize is  0.012239

                             Maximum     Tolerance    Cnvgd?
         Gradient           0.000454      0.000300      NO
         Displacement       0.007070      0.001200      NO
         Energy change     -0.000227      0.000001      NO


 New Cartesian Coordinates Obtained by Inverse Iteration

 Displacement from previous Coordinates is:  0.015940
 Writing REM_CC_EA           13
 ----------------------------------------------------
       Standard Nuclear Orientation (Angstroms)
    I     Atom         X            Y            Z
 ----------------------------------------------------
    1      C       0.000239     0.000000     0.005705
    2      C       1.482827     0.000000    -0.155544
    3      C      -0.741422    -1.283802    -0.157941
    4      C      -0.741422     1.283802    -0.157941
    5      H       1.780757     0.000000    -1.217133
    6      H       1.939858     0.884730     0.292651
    7      H       1.939858    -0.884730     0.292651
    8      H      -0.893702    -1.537316    -1.220119
    9      H      -0.202004    -2.123512     0.285008
   10      H      -1.734641    -1.239053     0.293227
   11      H      -0.893702     1.537316    -1.220119
   12      H      -1.734641     1.239053     0.293227
   13      H      -0.202004     2.123512     0.285008
 ----------------------------------------------------
 Nuclear Repulsion Energy =   125.4942504102 hartrees
 There are       17 alpha and       16 beta electrons
 Applying Cartesian multipole field
    Component          Value
    ---------          -----
     (2,0,0)        1.00000E-11
     (0,2,0)        2.00000E-11
     (0,0,2)       -3.00000E-11
 Nucleus-field energy     =     0.0000000035 hartrees
 Requested basis set is G3large
 There are 94 shells and 258 basis functions
 A cutoff of  1.0D-11 yielded   4243 shell pairs
 There are  32055 function pairs ( 38481 Cartesian)
Evaluating contribution to one-electron hamiltonian from nuclear
 Smallest overlap matrix eigenvalue = 4.82E-05
 Multipole matrices computed through 2nd order
 Guess MOs from SCF MO coefficient file
Reading MOs from coefficient file
Reading MOs from coefficient file
 An unrestricted hybrid HF-DFT SCF calculation will be
 performed using Pulay DIIS extrapolation
 Exchange:     0.2000 Hartree-Fock + 0.0800 Slater + 0.7200 Becke88
 Correlation:  0.8100 LYP + 0.1900 VWN1RPA
 Using SG-1 standard quadrature grid
 SCF converges when DIIS error is below 1.0E-08
 ---------------------------------------
  Cycle       Energy         DIIS Error
 ---------------------------------------
    1    -157.8565154635      2.67E-05
    2    -157.8563997290      2.48E-06
    3    -157.8563999008      1.62E-06
    4    -157.8563997949      4.55E-07
    5    -157.8563998969      1.66E-07
    6    -157.8563998691      3.68E-08
    7    -157.8563998720      5.72E-09 Convergence criterion met
 ---------------------------------------
 One-Electron    Energy =  -458.9033445918
 Total Coulomb   Energy =   200.6593589854
 Alpha Exchange  Energy =    -2.4394458867
 Beta  Exchange  Energy =    -2.3498557877
 DFT   Exchange  Energy =   -18.9720155676
 DFT Correlation Energy =    -1.3453474372
 Nuclear Repu.   Energy =   125.4942504137
 Nuclear Attr.   Energy =  -615.9886944335
 Kinetic         Energy =   157.0853498417
 <S^2> = 0.7542
 SCF time:  CPU 201.61 s  wall 201.93 s
 Final Alpha MO Eigenvalues
            1           2           3           4           5           6
    1 -10.1744438 -10.1579044 -10.1578714 -10.1578582  -0.8053912  -0.6933327
            7           8           9          10          11          12
    1  -0.6932797  -0.5387768  -0.4476044  -0.4431349  -0.4430833  -0.3889223
           13          14          15          16          17          18
    1  -0.3888020  -0.3700013  -0.3478861  -0.3477543  -0.1747813  -0.0108534
           19          20          21          22
    1   0.0151964   0.0152207   0.0266456   0.0395560
 Final Beta MO Eigenvalues
            1           2           3           4           5           6
    1 -10.1604469 -10.1587096 -10.1586789 -10.1586436  -0.7887532  -0.6910711
            7           8           9          10          11          12
    1  -0.6910256  -0.5202783  -0.4393917  -0.4393638  -0.4281726  -0.3828079
           13          14          15          16          17          18
    1  -0.3827007  -0.3688980  -0.3431638  -0.3430521  -0.0410600  -0.0096627
           19          20          21
    1   0.0151775   0.0151981   0.0285024
 Analysis of SCF Wavefunction
 
 --------------------------------------------------------------
                    Orbital Energies (a.u.)
 --------------------------------------------------------------
 
 Alpha MOs
 -- Occupied --
-10.174 -10.158 -10.158 -10.158  -0.805  -0.693  -0.693  -0.539
 -0.448  -0.443  -0.443  -0.389  -0.389  -0.370  -0.348  -0.348
 -0.175
 -- Virtual --
 -0.011   0.015   0.015   0.027   0.040   0.040   0.054   0.054
  0.061   0.082   0.086   0.097   0.097   0.117   0.117   0.120
  0.139   0.140   0.140   0.153   0.153   0.164   0.170   0.170
  0.174   0.192   0.192   0.216   0.224   0.224   0.226   0.262
  0.299   0.301   0.302   0.322   0.322   0.408   0.408   0.435
  0.481   0.481   0.505   0.505   0.505   0.515   0.546   0.553
  0.554   0.565   0.568   0.574   0.574   0.619   0.619   0.637
  0.637   0.661   0.673   0.685   0.686   0.732   0.792   0.793
  0.828   0.840   0.841   0.876   0.908   0.908   0.939   1.003
  1.003   1.043   1.114   1.115   1.145   1.146   1.155   1.159
  1.183   1.184   1.233   1.251   1.251   1.269   1.273   1.273
  1.314   1.333   1.334   1.334   1.366   1.366   1.432   1.432
  1.451   1.466   1.504   1.504   1.530   1.536   1.577   1.578
  1.581   1.647   1.647   1.751   1.752   2.356   2.357   2.440
  2.466   2.504   2.504   2.569   2.696   2.697   2.762   2.792
  2.797   2.798   2.826   2.861   2.861   2.928   2.928   2.931
  2.954   2.992   2.993   3.106   3.107   3.139   3.160   3.160
  3.189   3.190   3.211   3.221   3.277   3.279   3.319   3.320
  3.336   3.356   3.386   3.409   3.410   3.531   3.532   3.540
  3.580   3.580   3.606   3.656   3.658   3.750   3.767   3.767
  3.805   3.805   3.851   3.851   3.902   3.971   3.971   4.006
  4.039   4.096   4.096   4.109   4.170   4.171   4.242   4.242
  4.244   4.257   4.318   4.319   4.339   4.378   4.444   4.453
  4.453   4.527   4.527   4.542   4.574   4.574   4.648   4.648
  4.754   4.920   4.920   5.005   5.162   5.485   5.487   5.642
  5.671   5.671   5.688   5.701   5.701  23.969  24.322  24.322
 24.453  27.495  27.746  27.747  28.122  28.135  28.135  28.149
 28.167  28.228  28.228  28.609  28.609  40.952  41.008  41.018
 41.024  41.043  41.060  41.061  41.128  41.196  41.209  41.228
 41.237  41.239  41.254  41.258  41.263  41.271  41.308  41.317
 41.390
 
 Beta MOs
 -- Occupied --
-10.160 -10.159 -10.159 -10.159  -0.789  -0.691  -0.691  -0.520
 -0.439  -0.439  -0.428  -0.383  -0.383  -0.369  -0.343  -0.343
 -- Virtual --
 -0.041  -0.010   0.015   0.015   0.029   0.040   0.040   0.054
  0.054   0.063   0.082   0.089   0.097   0.098   0.117   0.117
  0.122   0.141   0.141   0.144   0.153   0.153   0.169   0.170
  0.171   0.174   0.195   0.195   0.221   0.224   0.224   0.227
  0.279   0.303   0.303   0.304   0.328   0.328   0.410   0.410
  0.439   0.483   0.483   0.506   0.507   0.507   0.530   0.556
  0.557   0.565   0.567   0.574   0.574   0.585   0.622   0.622
  0.643   0.643   0.666   0.680   0.688   0.688   0.752   0.797
  0.798   0.829   0.843   0.844   0.882   0.916   0.916   0.941
  1.007   1.007   1.048   1.117   1.117   1.148   1.148   1.155
  1.164   1.189   1.189   1.240   1.256   1.256   1.276   1.277
  1.283   1.315   1.339   1.339   1.345   1.370   1.370   1.435
  1.435   1.452   1.470   1.506   1.506   1.530   1.548   1.581
  1.581   1.591   1.659   1.659   1.757   1.757   2.360   2.361
  2.451   2.467   2.510   2.511   2.579   2.702   2.703   2.791
  2.792   2.806   2.806   2.875   2.875   2.878   2.929   2.929
  2.955   2.955   2.998   2.998   3.121   3.122   3.146   3.162
  3.162   3.202   3.203   3.223   3.226   3.280   3.282   3.322
  3.324   3.337   3.356   3.412   3.413   3.414   3.543   3.547
  3.548   3.590   3.591   3.604   3.673   3.674   3.754   3.770
  3.770   3.818   3.818   3.855   3.855   3.906   3.976   3.976
  4.007   4.058   4.103   4.103   4.115   4.179   4.179   4.248
  4.248   4.250   4.271   4.325   4.326   4.350   4.380   4.447
  4.460   4.461   4.534   4.535   4.551   4.585   4.586   4.652
  4.653   4.765   4.927   4.927   5.009   5.168   5.490   5.491
  5.647   5.676   5.676   5.690   5.703   5.703  23.979  24.321
 24.321  24.458  27.525  27.749  27.750  28.122  28.134  28.135
 28.149  28.166  28.227  28.227  28.612  28.612  40.971  41.009
 41.017  41.024  41.043  41.060  41.068  41.132  41.211  41.221
 41.227  41.240  41.244  41.253  41.258  41.264  41.271  41.307
 41.317  41.392
 --------------------------------------------------------------
 
          Ground-State Mulliken Net Atomic Charges

     Atom                 Charge (a.u.)    Spin (a.u.)
  --------------------------------------------------------
      1 C                     0.435756       0.834827
      2 C                    -0.468194      -0.032256
      3 C                    -0.465479      -0.032613
      4 C                    -0.465479      -0.032613
      5 H                     0.098566       0.070785
      6 H                     0.111407       0.008441
      7 H                     0.111407       0.008441
      8 H                     0.098486       0.070679
      9 H                     0.111279       0.008231
     10 H                     0.111243       0.008584
     11 H                     0.098486       0.070679
     12 H                     0.111243       0.008584
     13 H                     0.111279       0.008231
  --------------------------------------------------------
  Sum of atomic charges =     0.000000
  Sum of spin   charges =     1.000000

 -----------------------------------------------------------------
                    Cartesian Multipole Moments
 -----------------------------------------------------------------
    Charge (ESU x 10^10)
                 0.0000
    Dipole Moment (Debye)
         X       0.0001      Y       0.0000      Z      -0.1884
       Tot       0.1884
    Quadrupole Moments (Debye-Ang)
        XX     -27.8934     XY       0.0000     YY     -27.8944
        XZ      -0.0001     YZ       0.0000     ZZ     -28.6149
    Octapole Moments (Debye-Ang^2)
       XXX      -1.5645    XXY       0.0000    XYY       1.5732
       YYY       0.0000    XXZ       5.4111    XYZ       0.0000
       YYZ       5.4077    XZZ      -0.0082    YZZ       0.0000
       ZZZ      10.5942
    Hexadecapole Moments (Debye-Ang^3)
      XXXX    -227.6292   XXXY       0.0000   XXYY     -75.8334
      XYYY       0.0000   YYYY    -227.4207   XXXZ      -1.3735
      XXYZ       0.0000   XYYZ       1.2297   YYYZ       0.0000
      XXZZ     -48.0237   XYZZ       0.0000   YYZZ     -48.0513
      XZZZ      -0.0952   YZZZ       0.0000   ZZZZ     -59.6468
 -----------------------------------------------------------------
 Calculating analytic gradient of the SCF energy
 Gradient of XC Energy
            1           2           3           4           5           6
    1  -0.0002148  -0.0737512   0.0370120   0.0370120   0.0523121   0.0799778
    2  -0.0000000  -0.0000000   0.0642891  -0.0642891   0.0000000   0.1485924
    3   0.0627947  -0.0027288  -0.0021216  -0.0021216  -0.1689756   0.0753254
            7           8           9          10          11          12
    1   0.0799778  -0.0266565   0.0890933  -0.1685997  -0.0266565  -0.1685997
    2  -0.1485924  -0.0445983  -0.1439110   0.0046934   0.0445983  -0.0046934
    3   0.0753254  -0.1690897   0.0745015   0.0758392  -0.1690897   0.0758392
           13
    1   0.0890933
    2   0.1439110
    3   0.0745015
 Gradient of SCF Energy
            1           2           3           4           5           6
    1  -0.0000569   0.0000298  -0.0000147  -0.0000147  -0.0000009  -0.0000091
    2   0.0000000   0.0000000   0.0000173  -0.0000173   0.0000000  -0.0000127
    3  -0.0000505  -0.0001101  -0.0000346  -0.0000346   0.0000760   0.0000158
            7           8           9          10          11          12
    1  -0.0000091   0.0000325  -0.0000109   0.0000162   0.0000325   0.0000162
    2   0.0000127  -0.0000290   0.0000020   0.0000013   0.0000290  -0.0000013
    3   0.0000158   0.0000603   0.0000240  -0.0000232   0.0000603  -0.0000232
           13
    1  -0.0000109
    2  -0.0000020
    3   0.0000240
 Max gradient component =       1.101E-04
 RMS gradient           =       3.322E-05
 Gradient time:  CPU 111.57 s  wall 111.64 s
 Geometry Optimization Parameters
   NAtoms,    NIC,     NZ,  NCons,   NDum,   NFix, NCnnct, MaxDiis
       13      77      17       0       0       0       0       0

 Cartesian Hessian Update
 Hessian Updated using BFGS Update


** GEOMETRY OPTIMIZATION IN DELOCALIZED INTERNAL COORDINATES **
   Searching for a Minimum

   Optimization Cycle:   3

                       Coordinates (Angstroms)
     ATOM              X           Y           Z
    1  C           0.000239    0.000000    0.005705
    2  C           1.482827    0.000000   -0.155544
    3  C          -0.741422   -1.283802   -0.157941
    4  C          -0.741422    1.283802   -0.157941
    5  H           1.780757    0.000000   -1.217133
    6  H           1.939858    0.884730    0.292651
    7  H           1.939858   -0.884730    0.292651
    8  H          -0.893702   -1.537316   -1.220119
    9  H          -0.202004   -2.123512    0.285008
   10  H          -1.734641   -1.239053    0.293227
   11  H          -0.893702    1.537316   -1.220119
   12  H          -1.734641    1.239053    0.293227
   13  H          -0.202004    2.123512    0.285008
   Point Group: c1    Number of degrees of freedom:  33


   Energy is   -157.856399872

 Hessian Updated using BFGS Update

 16 Hessian modes will be used to form the next step
  Hessian Eigenvalues:
     0.005517    0.010953    0.069303    0.071411    0.072743    0.154964
     0.159999    0.172347    0.231988    0.324968    0.326827    0.329093
     0.336394    0.339266    0.339551    0.382427

 Minimum Search - Taking Simple RFO Step
 Searching for Lamda that Minimizes Along All modes
 Value Taken    Lamda =  -0.00000201
 Step Taken.  Stepsize is  0.018344

                             Maximum     Tolerance    Cnvgd?
         Gradient           0.000082      0.000300     YES
         Displacement       0.011827      0.001200      NO
         Energy change     -0.000003      0.000001      NO


 New Cartesian Coordinates Obtained by Inverse Iteration

 Displacement from previous Coordinates is:  0.022583
 Writing REM_CC_EA           13
 ----------------------------------------------------
       Standard Nuclear Orientation (Angstroms)
    I     Atom         X            Y            Z
 ----------------------------------------------------
    1      C       0.000443     0.000000     0.008093
    2      C       1.483026     0.000000    -0.153610
    3      C      -0.741428    -1.283504    -0.158071
    4      C      -0.741428     1.283504    -0.158071
    5      H       1.780066     0.000000    -1.215659
    6      H       1.940559     0.884760     0.293932
    7      H       1.940559    -0.884760     0.293932
    8      H      -0.896048    -1.532531    -1.221159
    9      H      -0.201038    -2.124977     0.280126
   10      H      -1.733813    -1.240628     0.295101
   11      H      -0.896048     1.532531    -1.221159
   12      H      -1.733813     1.240628     0.295101
   13      H      -0.201038     2.124977     0.280126
 ----------------------------------------------------
 Nuclear Repulsion Energy =   125.4933303572 hartrees
 There are       17 alpha and       16 beta electrons
 Applying Cartesian multipole field
    Component          Value
    ---------          -----
     (2,0,0)        1.00000E-11
     (0,2,0)        2.00000E-11
     (0,0,2)       -3.00000E-11
 Nucleus-field energy     =     0.0000000035 hartrees
 Requested basis set is G3large
 There are 94 shells and 258 basis functions
 A cutoff of  1.0D-11 yielded   4243 shell pairs
 There are  32055 function pairs ( 38481 Cartesian)
Evaluating contribution to one-electron hamiltonian from nuclear
 Smallest overlap matrix eigenvalue = 4.84E-05
 Multipole matrices computed through 2nd order
 Guess MOs from SCF MO coefficient file
Reading MOs from coefficient file
Reading MOs from coefficient file
 An unrestricted hybrid HF-DFT SCF calculation will be
 performed using Pulay DIIS extrapolation
 Exchange:     0.2000 Hartree-Fock + 0.0800 Slater + 0.7200 Becke88
 Correlation:  0.8100 LYP + 0.1900 VWN1RPA
 Using SG-1 standard quadrature grid
 SCF converges when DIIS error is below 1.0E-08
 ---------------------------------------
  Cycle       Energy         DIIS Error
 ---------------------------------------
    1    -157.8563122400      3.42E-05
    2    -157.8564008832      2.60E-06
    3    -157.8564011740      1.48E-06
    4    -157.8564011752      5.72E-07
    5    -157.8564012442      1.34E-07
    6    -157.8564012235      3.56E-08
    7    -157.8564012261      1.37E-08
    8    -157.8564012245      5.01E-09 Convergence criterion met
 ---------------------------------------
 One-Electron    Energy =  -458.9012191606
 Total Coulomb   Energy =   200.6578831352
 Alpha Exchange  Energy =    -2.4394146478
 Beta  Exchange  Energy =    -2.3498344868
 DFT   Exchange  Energy =   -18.9718181007
 DFT Correlation Energy =    -1.3453283245
 Nuclear Repu.   Energy =   125.4933303607
 Nuclear Attr.   Energy =  -615.9856535055
 Kinetic         Energy =   157.0844343449
 <S^2> = 0.7542
 SCF time:  CPU 224.13 s  wall 224.66 s
 Final Alpha MO Eigenvalues
            1           2           3           4           5           6
    1 -10.1745176 -10.1579454 -10.1578965 -10.1578837  -0.8053997  -0.6933452
            7           8           9          10          11          12
    1  -0.6932411  -0.5387950  -0.4475989  -0.4431475  -0.4430693  -0.3889265
           13          14          15          16          17          18
    1  -0.3887123  -0.3700665  -0.3479225  -0.3477380  -0.1748706  -0.0108444
           19          20          21          22
    1   0.0151826   0.0152299   0.0266416   0.0395446
 Final Beta MO Eigenvalues
            1           2           3           4           5           6
    1 -10.1605207 -10.1587474 -10.1587016 -10.1586685  -0.7887717  -0.6910819
            7           8           9          10          11          12
    1  -0.6909907  -0.5203077  -0.4394008  -0.4393658  -0.4281667  -0.3828058
           13          14          15          16          17          18
    1  -0.3826162  -0.3689664  -0.3431923  -0.3430429  -0.0411508  -0.0096323
           19          20          21
    1   0.0151644   0.0152051   0.0285056
 Analysis of SCF Wavefunction
 
 --------------------------------------------------------------
                    Orbital Energies (a.u.)
 --------------------------------------------------------------
 
 Alpha MOs
 -- Occupied --
-10.175 -10.158 -10.158 -10.158  -0.805  -0.693  -0.693  -0.539
 -0.448  -0.443  -0.443  -0.389  -0.389  -0.370  -0.348  -0.348
 -0.175
 -- Virtual --
 -0.011   0.015   0.015   0.027   0.040   0.040   0.054   0.054
  0.061   0.082   0.086   0.097   0.098   0.117   0.117   0.120
  0.139   0.140   0.140   0.153   0.153   0.164   0.169   0.170
  0.174   0.192   0.192   0.216   0.224   0.224   0.227   0.262
  0.299   0.301   0.302   0.321   0.322   0.407   0.408   0.435
  0.481   0.481   0.505   0.505   0.506   0.516   0.546   0.553
  0.554   0.565   0.568   0.574   0.574   0.619   0.619   0.637
  0.637   0.661   0.673   0.685   0.686   0.732   0.791   0.793
  0.828   0.840   0.841   0.877   0.908   0.909   0.939   1.003
  1.003   1.043   1.113   1.114   1.145   1.146   1.155   1.158
  1.183   1.184   1.234   1.251   1.251   1.269   1.272   1.273
  1.314   1.333   1.333   1.334   1.366   1.366   1.432   1.432
  1.451   1.465   1.504   1.505   1.530   1.536   1.577   1.578
  1.581   1.647   1.647   1.751   1.751   2.355   2.357   2.441
  2.467   2.503   2.504   2.569   2.696   2.697   2.762   2.791
  2.797   2.797   2.826   2.861   2.862   2.928   2.928   2.931
  2.954   2.992   2.993   3.106   3.108   3.139   3.160   3.160
  3.189   3.190   3.211   3.222   3.277   3.281   3.318   3.321
  3.336   3.356   3.386   3.408   3.410   3.531   3.532   3.540
  3.579   3.580   3.605   3.656   3.658   3.750   3.766   3.767
  3.805   3.805   3.851   3.851   3.903   3.970   3.971   4.007
  4.039   4.096   4.097   4.109   4.170   4.172   4.242   4.242
  4.244   4.257   4.317   4.319   4.338   4.378   4.443   4.453
  4.453   4.527   4.527   4.542   4.574   4.574   4.648   4.649
  4.754   4.919   4.920   5.004   5.162   5.484   5.487   5.642
  5.671   5.671   5.688   5.701   5.701  23.968  24.322  24.322
 24.453  27.495  27.746  27.747  28.122  28.135  28.135  28.149
 28.167  28.227  28.228  28.609  28.609  40.952  41.008  41.018
 41.024  41.043  41.061  41.061  41.128  41.196  41.209  41.227
 41.237  41.239  41.254  41.258  41.263  41.271  41.308  41.317
 41.389
 
 Beta MOs
 -- Occupied --
-10.161 -10.159 -10.159 -10.159  -0.789  -0.691  -0.691  -0.520
 -0.439  -0.439  -0.428  -0.383  -0.383  -0.369  -0.343  -0.343
 -- Virtual --
 -0.041  -0.010   0.015   0.015   0.029   0.040   0.040   0.054
  0.054   0.063   0.082   0.089   0.097   0.098   0.117   0.117
  0.122   0.141   0.141   0.144   0.153   0.153   0.169   0.170
  0.171   0.174   0.194   0.195   0.221   0.224   0.224   0.227
  0.279   0.303   0.303   0.304   0.328   0.328   0.410   0.410
  0.439   0.482   0.483   0.506   0.507   0.508   0.530   0.556
  0.557   0.565   0.567   0.574   0.574   0.585   0.622   0.622
  0.643   0.643   0.666   0.680   0.688   0.688   0.751   0.796
  0.798   0.828   0.843   0.844   0.883   0.916   0.916   0.941
  1.007   1.007   1.047   1.116   1.117   1.148   1.148   1.155
  1.164   1.189   1.190   1.241   1.256   1.257   1.276   1.277
  1.283   1.315   1.339   1.339   1.345   1.370   1.370   1.435
  1.435   1.452   1.470   1.506   1.507   1.530   1.548   1.581
  1.581   1.591   1.659   1.659   1.757   1.757   2.359   2.361
  2.452   2.468   2.510   2.510   2.578   2.702   2.703   2.791
  2.792   2.805   2.805   2.875   2.875   2.878   2.929   2.930
  2.955   2.955   2.997   2.998   3.120   3.122   3.146   3.162
  3.162   3.202   3.203   3.223   3.226   3.280   3.283   3.322
  3.324   3.337   3.356   3.411   3.413   3.414   3.544   3.546
  3.549   3.590   3.591   3.603   3.673   3.675   3.754   3.769
  3.770   3.817   3.817   3.855   3.855   3.907   3.976   3.976
  4.007   4.058   4.103   4.103   4.115   4.179   4.180   4.247
  4.247   4.250   4.271   4.324   4.326   4.349   4.380   4.447
  4.460   4.461   4.535   4.535   4.550   4.585   4.586   4.652
  4.653   4.765   4.926   4.927   5.008   5.168   5.489   5.491
  5.647   5.675   5.675   5.690   5.704   5.704  23.978  24.321
 24.321  24.458  27.525  27.748  27.750  28.122  28.134  28.135
 28.149  28.167  28.227  28.227  28.612  28.612  40.971  41.009
 41.017  41.024  41.042  41.060  41.068  41.131  41.211  41.220
 41.227  41.239  41.244  41.253  41.258  41.264  41.271  41.307
 41.317  41.392
 --------------------------------------------------------------
 
          Ground-State Mulliken Net Atomic Charges

     Atom                 Charge (a.u.)    Spin (a.u.)
  --------------------------------------------------------
      1 C                     0.434216       0.834640
      2 C                    -0.468467      -0.032137
      3 C                    -0.464646      -0.032572
      4 C                    -0.464646      -0.032572
      5 H                     0.098418       0.070997
      6 H                     0.111515       0.008360
      7 H                     0.111515       0.008360
      8 H                     0.098459       0.070800
      9 H                     0.111257       0.007993
     10 H                     0.111331       0.008669
     11 H                     0.098459       0.070800
     12 H                     0.111331       0.008669
     13 H                     0.111257       0.007993
  --------------------------------------------------------
  Sum of atomic charges =     0.000000
  Sum of spin   charges =     1.000000

 -----------------------------------------------------------------
                    Cartesian Multipole Moments
 -----------------------------------------------------------------
    Charge (ESU x 10^10)
                 0.0000
    Dipole Moment (Debye)
         X       0.0005      Y       0.0000      Z      -0.1903
       Tot       0.1903
    Quadrupole Moments (Debye-Ang)
        XX     -27.8906     XY       0.0000     YY     -27.8908
        XZ      -0.0007     YZ       0.0000     ZZ     -28.6230
    Octapole Moments (Debye-Ang^2)
       XXX      -1.5590    XXY       0.0000    XYY       1.5767
       YYY       0.0000    XXZ       5.4016    XYZ       0.0000
       YYZ       5.3958    XZZ      -0.0158    YZZ       0.0000
       ZZZ      10.5412
    Hexadecapole Moments (Debye-Ang^3)
      XXXX    -227.6696   XXXY       0.0000   XXYY     -75.8043
      XYYY       0.0000   YYYY    -227.2435   XXXZ      -1.4555
      XXYZ       0.0000   XYYZ       1.1903   YYYZ       0.0000
      XXZZ     -48.0278   XYZZ       0.0000   YYZZ     -48.0698
      XZZZ      -0.1739   YZZZ       0.0000   ZZZZ     -59.6761
 -----------------------------------------------------------------
 Calculating analytic gradient of the SCF energy
 Gradient of XC Energy
            1           2           3           4           5           6
    1  -0.0003949  -0.0735808   0.0370241   0.0370241   0.0521515   0.0801028
    2   0.0000000  -0.0000000   0.0642443  -0.0642443   0.0000000   0.1486372
    3   0.0634594  -0.0026670  -0.0017909  -0.0017909  -0.1689590   0.0752088
            7           8           9          10          11          12
    1   0.0801028  -0.0270415   0.0893015  -0.1684748  -0.0270415  -0.1684748
    2  -0.1486372  -0.0438269  -0.1442882   0.0043420   0.0438269  -0.0043420
    3   0.0752088  -0.1691712   0.0736971   0.0761395  -0.1691712   0.0761395
           13
    1   0.0893015
    2   0.1442882
    3   0.0736972
 Gradient of SCF Energy
            1           2           3           4           5           6
    1  -0.0000245   0.0000200  -0.0000363  -0.0000363   0.0000126   0.0000149
    2   0.0000000  -0.0000000  -0.0000138   0.0000138   0.0000000  -0.0000176
    3  -0.0000490   0.0000549   0.0001188   0.0001188  -0.0000140  -0.0000158
            7           8           9          10          11          12
    1   0.0000149   0.0000260  -0.0000221   0.0000135   0.0000260   0.0000135
    2   0.0000176  -0.0000244  -0.0000086  -0.0000167   0.0000243   0.0000167
    3  -0.0000158  -0.0000306  -0.0000163  -0.0000521  -0.0000306  -0.0000521
           13
    1  -0.0000221
    2   0.0000086
    3  -0.0000163
 Max gradient component =       1.188E-04
 RMS gradient           =       3.652E-05
 Gradient time:  CPU 111.52 s  wall 111.61 s
 Geometry Optimization Parameters
   NAtoms,    NIC,     NZ,  NCons,   NDum,   NFix, NCnnct, MaxDiis
       13      77      17       0       0       0       0       0

 Cartesian Hessian Update
 Hessian Updated using BFGS Update


** GEOMETRY OPTIMIZATION IN DELOCALIZED INTERNAL COORDINATES **
   Searching for a Minimum

   Optimization Cycle:   4

                       Coordinates (Angstroms)
     ATOM              X           Y           Z
    1  C           0.000443    0.000000    0.008093
    2  C           1.483026    0.000000   -0.153610
    3  C          -0.741428   -1.283504   -0.158071
    4  C          -0.741428    1.283504   -0.158071
    5  H           1.780066    0.000000   -1.215659
    6  H           1.940559    0.884760    0.293932
    7  H           1.940559   -0.884760    0.293932
    8  H          -0.896048   -1.532531   -1.221159
    9  H          -0.201038   -2.124977    0.280126
   10  H          -1.733813   -1.240628    0.295101
   11  H          -0.896048    1.532531   -1.221159
   12  H          -1.733813    1.240628    0.295101
   13  H          -0.201038    2.124977    0.280126
   Point Group: c1    Number of degrees of freedom:  33


   Energy is   -157.856401225

 Hessian Updated using BFGS Update

 17 Hessian modes will be used to form the next step
  Hessian Eigenvalues:
     0.002798    0.011792    0.070776    0.071411    0.076582    0.157925
     0.159998    0.160046    0.177806    0.228573    0.326202    0.329065
     0.333201    0.335817    0.339145    0.339568    0.400728

 Minimum Search - Taking Simple RFO Step
 Searching for Lamda that Minimizes Along All modes
 Value Taken    Lamda =  -0.00000103
 Step Taken.  Stepsize is  0.017706

                             Maximum     Tolerance    Cnvgd?
         Gradient           0.000113      0.000300     YES
         Displacement       0.012672      0.001200      NO
         Energy change     -0.000001      0.000001      NO


 New Cartesian Coordinates Obtained by Inverse Iteration

 Displacement from previous Coordinates is:  0.022126
 Writing REM_CC_EA           13
 ----------------------------------------------------
       Standard Nuclear Orientation (Angstroms)
    I     Atom         X            Y            Z
 ----------------------------------------------------
    1      C       0.000664     0.000000     0.009226
    2      C       1.483264     0.000000    -0.151943
    3      C      -0.741409    -1.283181    -0.158645
    4      C      -0.741409     1.283181    -0.158645
    5      H       1.780545     0.000000    -1.213984
    6      H       1.940642     0.884790     0.295700
    7      H       1.940642    -0.884790     0.295700
    8      H      -0.899210    -1.528537    -1.222159
    9      H      -0.199706    -2.125951     0.275312
   10      H      -1.732553    -1.241755     0.297483
   11      H      -0.899210     1.528537    -1.222159
   12      H      -1.732553     1.241755     0.297483
   13      H      -0.199706     2.125951     0.275312
 ----------------------------------------------------
 Nuclear Repulsion Energy =   125.4969727239 hartrees
 There are       17 alpha and       16 beta electrons
 Applying Cartesian multipole field
    Component          Value
    ---------          -----
     (2,0,0)        1.00000E-11
     (0,2,0)        2.00000E-11
     (0,0,2)       -3.00000E-11
 Nucleus-field energy     =     0.0000000035 hartrees
 Requested basis set is G3large
 There are 94 shells and 258 basis functions
 A cutoff of  1.0D-11 yielded   4243 shell pairs
 There are  32055 function pairs ( 38481 Cartesian)
Evaluating contribution to one-electron hamiltonian from nuclear
 Smallest overlap matrix eigenvalue = 4.84E-05
 Multipole matrices computed through 2nd order
 Guess MOs from SCF MO coefficient file
Reading MOs from coefficient file
Reading MOs from coefficient file
 An unrestricted hybrid HF-DFT SCF calculation will be
 performed using Pulay DIIS extrapolation
 Exchange:     0.2000 Hartree-Fock + 0.0800 Slater + 0.7200 Becke88
 Correlation:  0.8100 LYP + 0.1900 VWN1RPA
 Using SG-1 standard quadrature grid
 SCF converges when DIIS error is below 1.0E-08
 ---------------------------------------
  Cycle       Energy         DIIS Error
 ---------------------------------------
    1    -157.8563307956      2.91E-05
    2    -157.8564017275      2.26E-06
    3    -157.8564019540      1.13E-06
    4    -157.8564018483      5.03E-07
    5    -157.8564018899      8.30E-08
    6    -157.8564018809      2.44E-08
    7    -157.8564018829      1.26E-08
    8    -157.8564018795      2.61E-09 Convergence criterion met
 ---------------------------------------
 One-Electron    Energy =  -458.9083168928
 Total Coulomb   Energy =   200.6612976568
 Alpha Exchange  Energy =    -2.4394092746
 Beta  Exchange  Energy =    -2.3498326828
 DFT   Exchange  Energy =   -18.9717880863
 DFT Correlation Energy =    -1.3453253273
 Nuclear Repu.   Energy =   125.4969727275
 Nuclear Attr.   Energy =  -615.9926790984
 Kinetic         Energy =   157.0843622056
 <S^2> = 0.7542
 SCF time:  CPU 221.94 s  wall 222.33 s
 Final Alpha MO Eigenvalues
            1           2           3           4           5           6
    1 -10.1745340 -10.1579632 -10.1578971 -10.1578846  -0.8054264  -0.6933680
            7           8           9          10          11          12
    1  -0.6932100  -0.5387858  -0.4476246  -0.4431682  -0.4430543  -0.3889807
           13          14          15          16          17          18
    1  -0.3886632  -0.3700802  -0.3479334  -0.3477062  -0.1749215  -0.0108409
           19          20          21          22
    1   0.0151726   0.0152432   0.0266338   0.0395325
 Final Beta MO Eigenvalues
            1           2           3           4           5           6
    1 -10.1605375 -10.1587632 -10.1587009 -10.1586689  -0.7888028  -0.6911018
            7           8           9          10          11          12
    1  -0.6909622  -0.5203047  -0.4394128  -0.4393633  -0.4281942  -0.3828540
           13          14          15          16          17          18
    1  -0.3825734  -0.3689811  -0.3431950  -0.3430191  -0.0411988  -0.0096188
           19          20          21
    1   0.0151555   0.0152164   0.0285009
 Analysis of SCF Wavefunction
 
 --------------------------------------------------------------
                    Orbital Energies (a.u.)
 --------------------------------------------------------------
 
 Alpha MOs
 -- Occupied --
-10.175 -10.158 -10.158 -10.158  -0.805  -0.693  -0.693  -0.539
 -0.448  -0.443  -0.443  -0.389  -0.389  -0.370  -0.348  -0.348
 -0.175
 -- Virtual --
 -0.011   0.015   0.015   0.027   0.040   0.040   0.054   0.054
  0.061   0.082   0.086   0.097   0.098   0.117   0.117   0.120
  0.139   0.140   0.140   0.153   0.153   0.164   0.169   0.170
  0.174   0.192   0.193   0.216   0.224   0.224   0.227   0.262
  0.299   0.301   0.302   0.321   0.322   0.407   0.408   0.435
  0.481   0.482   0.505   0.505   0.506   0.516   0.546   0.553
  0.554   0.565   0.568   0.574   0.574   0.619   0.619   0.637
  0.637   0.661   0.673   0.685   0.686   0.732   0.791   0.793
  0.828   0.839   0.841   0.877   0.908   0.909   0.939   1.002
  1.003   1.043   1.113   1.114   1.145   1.146   1.155   1.158
  1.183   1.185   1.234   1.251   1.251   1.269   1.272   1.274
  1.314   1.333   1.333   1.334   1.366   1.366   1.432   1.433
  1.451   1.465   1.504   1.505   1.531   1.536   1.577   1.578
  1.581   1.647   1.647   1.750   1.751   2.355   2.358   2.441
  2.467   2.503   2.504   2.569   2.696   2.698   2.762   2.791
  2.796   2.797   2.826   2.861   2.862   2.928   2.928   2.931
  2.954   2.991   2.993   3.105   3.108   3.139   3.160   3.160
  3.189   3.191   3.211   3.222   3.277   3.282   3.318   3.322
  3.336   3.356   3.386   3.408   3.410   3.530   3.532   3.540
  3.579   3.580   3.604   3.655   3.659   3.750   3.766   3.767
  3.805   3.805   3.851   3.851   3.903   3.970   3.971   4.007
  4.039   4.096   4.097   4.109   4.170   4.173   4.241   4.242
  4.244   4.257   4.316   4.319   4.338   4.378   4.443   4.452
  4.453   4.527   4.527   4.542   4.574   4.575   4.648   4.649
  4.754   4.918   4.920   5.004   5.162   5.483   5.487   5.642
  5.670   5.670   5.689   5.701   5.701  23.968  24.321  24.322
 24.453  27.495  27.745  27.747  28.122  28.135  28.136  28.149
 28.167  28.227  28.228  28.609  28.609  40.952  41.008  41.018
 41.024  41.042  41.061  41.061  41.128  41.196  41.209  41.227
 41.236  41.239  41.254  41.258  41.263  41.271  41.308  41.317
 41.389
 
 Beta MOs
 -- Occupied --
-10.161 -10.159 -10.159 -10.159  -0.789  -0.691  -0.691  -0.520
 -0.439  -0.439  -0.428  -0.383  -0.383  -0.369  -0.343  -0.343
 -- Virtual --
 -0.041  -0.010   0.015   0.015   0.029   0.040   0.040   0.054
  0.054   0.063   0.082   0.089   0.097   0.098   0.117   0.117
  0.122   0.141   0.141   0.144   0.153   0.153   0.169   0.170
  0.171   0.174   0.194   0.195   0.221   0.224   0.224   0.227
  0.279   0.303   0.303   0.304   0.327   0.329   0.410   0.410
  0.439   0.482   0.483   0.506   0.507   0.508   0.530   0.556
  0.558   0.565   0.567   0.574   0.574   0.585   0.622   0.622
  0.643   0.643   0.666   0.680   0.687   0.689   0.751   0.796
  0.798   0.828   0.842   0.844   0.883   0.916   0.917   0.941
  1.007   1.008   1.048   1.115   1.117   1.148   1.149   1.155
  1.164   1.189   1.190   1.241   1.256   1.257   1.276   1.277
  1.283   1.315   1.338   1.340   1.345   1.370   1.370   1.435
  1.436   1.452   1.470   1.506   1.507   1.531   1.549   1.581
  1.581   1.591   1.659   1.660   1.756   1.757   2.359   2.362
  2.453   2.468   2.509   2.511   2.578   2.702   2.703   2.791
  2.792   2.804   2.805   2.874   2.875   2.878   2.929   2.930
  2.955   2.955   2.997   2.998   3.120   3.122   3.145   3.162
  3.162   3.201   3.204   3.223   3.227   3.279   3.284   3.321
  3.325   3.337   3.356   3.411   3.413   3.414   3.544   3.545
  3.549   3.589   3.591   3.603   3.672   3.675   3.753   3.769
  3.770   3.817   3.817   3.855   3.855   3.907   3.976   3.977
  4.008   4.058   4.103   4.103   4.115   4.179   4.181   4.247
  4.247   4.250   4.271   4.324   4.327   4.348   4.380   4.447
  4.460   4.461   4.535   4.535   4.550   4.585   4.586   4.652
  4.653   4.765   4.925   4.927   5.007   5.169   5.488   5.492
  5.647   5.675   5.675   5.690   5.704   5.704  23.978  24.321
 24.321  24.458  27.525  27.748  27.750  28.122  28.134  28.135
 28.149  28.167  28.227  28.227  28.612  28.612  40.971  41.009
 41.017  41.023  41.042  41.061  41.068  41.132  41.211  41.220
 41.227  41.239  41.243  41.253  41.258  41.264  41.271  41.307
 41.317  41.392
 --------------------------------------------------------------
 
          Ground-State Mulliken Net Atomic Charges

     Atom                 Charge (a.u.)    Spin (a.u.)
  --------------------------------------------------------
      1 C                     0.433502       0.834557
      2 C                    -0.469003      -0.032040
      3 C                    -0.464024      -0.032565
      4 C                    -0.464024      -0.032565
      5 H                     0.098309       0.071119
      6 H                     0.111581       0.008321
      7 H                     0.111581       0.008321
      8 H                     0.098477       0.070828
      9 H                     0.111186       0.007788
     10 H                     0.111377       0.008811
     11 H                     0.098477       0.070828
     12 H                     0.111377       0.008811
     13 H                     0.111186       0.007788
  --------------------------------------------------------
  Sum of atomic charges =     0.000000
  Sum of spin   charges =     1.000000

 -----------------------------------------------------------------
                    Cartesian Multipole Moments
 -----------------------------------------------------------------
    Charge (ESU x 10^10)
                 0.0000
    Dipole Moment (Debye)
         X       0.0010      Y       0.0000      Z      -0.1913
       Tot       0.1913
    Quadrupole Moments (Debye-Ang)
        XX     -27.8911     XY       0.0000     YY     -27.8899
        XZ      -0.0013     YZ       0.0000     ZZ     -28.6254
    Octapole Moments (Debye-Ang^2)
       XXX      -1.5546    XXY       0.0000    XYY       1.5804
       YYY       0.0000    XXZ       5.3983    XYZ       0.0000
       YYZ       5.3901    XZZ      -0.0244    YZZ       0.0000
       ZZZ      10.5183
    Hexadecapole Moments (Debye-Ang^3)
      XXXX    -227.7510   XXXY       0.0000   XXYY     -75.7846
      XYYY       0.0000   YYYY    -227.0897   XXXZ      -1.5491
      XXYZ       0.0000   XYYZ       1.1544   YYYZ       0.0000
      XXZZ     -48.0203   XYZZ       0.0000   YYZZ     -48.0777
      XZZZ      -0.2588   YZZZ       0.0000   ZZZZ     -59.6913
 -----------------------------------------------------------------
 Calculating analytic gradient of the SCF energy
 Gradient of XC Energy
            1           2           3           4           5           6
    1  -0.0005860  -0.0733776   0.0370569   0.0370569   0.0521892   0.0800755
    2   0.0000000  -0.0000000   0.0642000  -0.0642000   0.0000000   0.1486613
    3   0.0638572  -0.0028008  -0.0016718  -0.0016718  -0.1689331   0.0752375
            7           8           9          10          11          12
    1   0.0800755  -0.0275770   0.0895634  -0.1682316  -0.0275770  -0.1682316
    2  -0.1486613  -0.0432017  -0.1445404   0.0040791   0.0432017  -0.0040791
    3   0.0752374  -0.1692386   0.0729988   0.0766126  -0.1692386   0.0766125
           13
    1   0.0895634
    2   0.1445404
    3   0.0729988
 Gradient of SCF Energy
            1           2           3           4           5           6
    1  -0.0000042  -0.0000009  -0.0000286  -0.0000286   0.0000118   0.0000143
    2   0.0000000  -0.0000000  -0.0000160   0.0000160   0.0000000  -0.0000097
    3  -0.0000028   0.0000815   0.0001187   0.0001187  -0.0000408  -0.0000149
            7           8           9          10          11          12
    1   0.0000143   0.0000207  -0.0000155   0.0000057   0.0000207   0.0000057
    2   0.0000097  -0.0000107  -0.0000078  -0.0000126   0.0000107   0.0000126
    3  -0.0000149  -0.0000567  -0.0000208  -0.0000452  -0.0000567  -0.0000452
           13
    1  -0.0000155
    2   0.0000078
    3  -0.0000208
 Max gradient component =       1.187E-04
 RMS gradient           =       3.697E-05
 Gradient time:  CPU 111.54 s  wall 111.62 s
 Geometry Optimization Parameters
   NAtoms,    NIC,     NZ,  NCons,   NDum,   NFix, NCnnct, MaxDiis
       13      77      17       0       0       0       0       0

 Cartesian Hessian Update
 Hessian Updated using BFGS Update


** GEOMETRY OPTIMIZATION IN DELOCALIZED INTERNAL COORDINATES **
   Searching for a Minimum

   Optimization Cycle:   5

                       Coordinates (Angstroms)
     ATOM              X           Y           Z
    1  C           0.000664    0.000000    0.009226
    2  C           1.483264    0.000000   -0.151943
    3  C          -0.741409   -1.283181   -0.158645
    4  C          -0.741409    1.283181   -0.158645
    5  H           1.780545    0.000000   -1.213984
    6  H           1.940642    0.884790    0.295700
    7  H           1.940642   -0.884790    0.295700
    8  H          -0.899210   -1.528537   -1.222159
    9  H          -0.199706   -2.125951    0.275312
   10  H          -1.732553   -1.241755    0.297483
   11  H          -0.899210    1.528537   -1.222159
   12  H          -1.732553    1.241755    0.297483
   13  H          -0.199706    2.125951    0.275312
   Point Group: c1    Number of degrees of freedom:  33


   Energy is   -157.856401879

 Hessian Updated using BFGS Update

 18 Hessian modes will be used to form the next step
  Hessian Eigenvalues:
     0.001654    0.012592    0.070892    0.071411    0.074550    0.159795
     0.159996    0.160001    0.160623    0.172030    0.225841    0.326281
     0.329075    0.333963    0.337886    0.338916    0.339635    0.381508

 Minimum Search - Taking Simple RFO Step
 Searching for Lamda that Minimizes Along All modes
 Value Taken    Lamda =   0.00000000
 Step Taken.  Stepsize is  0.018208

                             Maximum     Tolerance    Cnvgd?
         Gradient           0.000112      0.000300     YES
         Displacement       0.013496      0.001200      NO
         Energy change     -0.000001      0.000001     YES


                       Distance Matrix (Angstroms)
             C (  1)   C (  2)   C (  3)   C (  4)   H (  5)   H (  6)
   C (  2)  1.491334
   C (  3)  1.491779  2.568222
   C (  4)  1.491779  2.568222  2.566362
   H (  5)  2.159680  1.102863  3.020024  3.020024
   H (  6)  2.151380  1.091985  3.478494  2.749280  1.757165
   H (  7)  2.151380  1.091985  2.749280  3.478494  1.757165  1.769580
   H (  8)  2.159284  3.026213  1.102798  3.010269  3.085057  4.024028
   H (  9)  2.151887  2.744922  1.091798  3.479071  3.264822  3.694058
   H ( 10)  2.151532  3.476408  1.091849  2.750585  4.020988  4.244356
   H ( 11)  2.159284  3.026213  3.010269  1.102798  3.085057  3.283758
   H ( 12)  2.151532  3.476408  2.750585  1.091849  4.020988  3.690500
   H ( 13)  2.151887  2.744922  3.479071  1.091798  3.264822  2.474264
             H (  7)   H (  8)   H (  9)   H ( 10)   H ( 11)   H ( 12)
   H (  8)  3.283758
   H (  9)  2.474264  1.757449
   H ( 10)  3.690500  1.756706  1.769721
   H ( 11)  4.024028  3.057074  4.010861  3.267765
   H ( 12)  4.244356  3.267765  3.700210  2.483510  1.756706
   H ( 13)  3.694058  4.010861  4.251901  3.700210  1.757449  1.769721

 


 ******************************
 **  OPTIMIZATION CONVERGED  **
 ******************************
 Analysis of SCF Wavefunction
 
 --------------------------------------------------------------
                    Orbital Energies (a.u.)
 --------------------------------------------------------------
 
 Alpha MOs
 -- Occupied --
-10.175 -10.158 -10.158 -10.158  -0.805  -0.693  -0.693  -0.539
 -0.448  -0.443  -0.443  -0.389  -0.389  -0.370  -0.348  -0.348
 -0.175
 -- Virtual --
 -0.011   0.015   0.015   0.027   0.040   0.040   0.054   0.054
  0.061   0.082   0.086   0.097   0.098   0.117   0.117   0.120
  0.139   0.140   0.140   0.153   0.153   0.164   0.169   0.170
  0.174   0.192   0.193   0.216   0.224   0.224   0.227   0.262
  0.299   0.301   0.302   0.321   0.322   0.407   0.408   0.435
  0.481   0.482   0.505   0.505   0.506   0.516   0.546   0.553
  0.554   0.565   0.568   0.574   0.574   0.619   0.619   0.637
  0.637   0.661   0.673   0.685   0.686   0.732   0.791   0.793
  0.828   0.839   0.841   0.877   0.908   0.909   0.939   1.002
  1.003   1.043   1.113   1.114   1.145   1.146   1.155   1.158
  1.183   1.185   1.234   1.251   1.251   1.269   1.272   1.274
  1.314   1.333   1.333   1.334   1.366   1.366   1.432   1.433
  1.451   1.465   1.504   1.505   1.531   1.536   1.577   1.578
  1.581   1.647   1.647   1.750   1.751   2.355   2.358   2.441
  2.467   2.503   2.504   2.569   2.696   2.698   2.762   2.791
  2.796   2.797   2.826   2.861   2.862   2.928   2.928   2.931
  2.954   2.991   2.993   3.105   3.108   3.139   3.160   3.160
  3.189   3.191   3.211   3.222   3.277   3.282   3.318   3.322
  3.336   3.356   3.386   3.408   3.410   3.530   3.532   3.540
  3.579   3.580   3.604   3.655   3.659   3.750   3.766   3.767
  3.805   3.805   3.851   3.851   3.903   3.970   3.971   4.007
  4.039   4.096   4.097   4.109   4.170   4.173   4.241   4.242
  4.244   4.257   4.316   4.319   4.338   4.378   4.443   4.452
  4.453   4.527   4.527   4.542   4.574   4.575   4.648   4.649
  4.754   4.918   4.920   5.004   5.162   5.483   5.487   5.642
  5.670   5.670   5.689   5.701   5.701  23.968  24.321  24.322
 24.453  27.495  27.745  27.747  28.122  28.135  28.136  28.149
 28.167  28.227  28.228  28.609  28.609  40.952  41.008  41.018
 41.024  41.042  41.061  41.061  41.128  41.196  41.209  41.227
 41.236  41.239  41.254  41.258  41.263  41.271  41.308  41.317
 41.389
 
 Beta MOs
 -- Occupied --
-10.161 -10.159 -10.159 -10.159  -0.789  -0.691  -0.691  -0.520
 -0.439  -0.439  -0.428  -0.383  -0.383  -0.369  -0.343  -0.343
 -- Virtual --
 -0.041  -0.010   0.015   0.015   0.029   0.040   0.040   0.054
  0.054   0.063   0.082   0.089   0.097   0.098   0.117   0.117
  0.122   0.141   0.141   0.144   0.153   0.153   0.169   0.170
  0.171   0.174   0.194   0.195   0.221   0.224   0.224   0.227
  0.279   0.303   0.303   0.304   0.327   0.329   0.410   0.410
  0.439   0.482   0.483   0.506   0.507   0.508   0.530   0.556
[...]
               X      Y      Z        X      Y      Z        X      Y      Z
 C          0.000  0.009  0.000   -0.016  0.000  0.013    0.000 -0.014  0.000
 C          0.000 -0.012  0.000   -0.023  0.000 -0.056    0.000  0.022  0.000
 C          0.013  0.005 -0.029    0.013 -0.018  0.025   -0.016 -0.009  0.035
 C         -0.013  0.005  0.029    0.013  0.018  0.025    0.016 -0.009 -0.035
 H         -0.001 -0.053 -0.001   -0.083  0.000 -0.073    0.000  0.623  0.000
 H          0.014 -0.008 -0.026    0.002  0.000 -0.082    0.017 -0.228  0.486
 H         -0.014 -0.008  0.024    0.002  0.000 -0.082   -0.017 -0.228 -0.486
 H          0.397 -0.184 -0.042    0.377 -0.239  0.021    0.000 -0.055  0.043
 H         -0.163  0.064  0.311   -0.132  0.062  0.369   -0.043  0.000  0.086
 H         -0.145  0.113 -0.387   -0.133  0.078 -0.308   -0.025  0.032  0.011
 H         -0.391 -0.180  0.042    0.383  0.243  0.021    0.000 -0.055 -0.043
 H          0.143  0.112  0.382   -0.135 -0.080 -0.315    0.025  0.032 -0.012
 H          0.161  0.063 -0.305   -0.135 -0.063  0.374    0.043  0.000 -0.085
 TransDip   0.000  0.003  0.000   -0.006  0.000 -0.003    0.000 -0.004  0.000

 Mode:                 4                      5                      6
 Frequency:       266.68                 380.26                 382.98
 Force Cnst:      0.0965                 0.1759                 0.1795
 Red. Mass:       2.3027                 2.0653                 2.0767
 IR Active:          YES                    YES                    YES
 IR Intens:        3.311                  0.124                  0.134
 Raman Active:       YES                    YES                    YES
               X      Y      Z        X      Y      Z        X      Y      Z
 C          0.000  0.000  0.320    0.000 -0.125  0.000    0.125  0.000  0.001
 C         -0.039  0.000 -0.055    0.000  0.182  0.000    0.145 -0.001 -0.009
 C          0.019  0.037 -0.060   -0.141 -0.062 -0.010   -0.101  0.142  0.004
 C          0.019 -0.037 -0.060    0.140 -0.063  0.010   -0.102 -0.141  0.004
 H         -0.385  0.001 -0.155    0.001  0.175  0.000    0.158  0.000 -0.004
 H          0.096  0.002 -0.201   -0.305  0.392 -0.105    0.139 -0.002  0.001
 H          0.096 -0.002 -0.202    0.306  0.392  0.105    0.138  0.000  0.000
 H          0.170  0.371 -0.162   -0.157 -0.063 -0.006   -0.102  0.156  0.000
 H         -0.033 -0.087 -0.243   -0.302 -0.141  0.038   -0.387 -0.005  0.077
 H         -0.041 -0.096 -0.184   -0.146  0.126 -0.039   -0.124  0.454 -0.077
 H          0.170 -0.371 -0.162    0.156 -0.063  0.006   -0.103 -0.156  0.000
 H         -0.041  0.096 -0.184    0.146  0.124  0.038   -0.125 -0.455 -0.077
 H         -0.033  0.087 -0.243    0.300 -0.141 -0.038   -0.389  0.005  0.077
 TransDip   0.000  0.000 -0.058    0.000 -0.011  0.000    0.012  0.000  0.000

 Mode:                 7                      8                      9
 Frequency:       757.28                 937.72                 939.17
 Force Cnst:      1.2215                 0.6500                 0.6554
 Red. Mass:       3.6151                 1.2546                 1.2612
 IR Active:          YES                    YES                    YES
 IR Intens:        1.900                  0.581                  0.504
 Raman Active:       YES                    YES                    YES
               X      Y      Z        X      Y      Z        X      Y      Z
 C          0.000  0.000  0.091    0.000 -0.034  0.000   -0.037  0.000 -0.004
 C          0.275  0.000 -0.021    0.000 -0.035  0.000    0.029  0.000 -0.109
 C         -0.137 -0.239 -0.021    0.026  0.010  0.096   -0.021  0.028  0.056
 C         -0.137  0.239 -0.021   -0.026  0.010 -0.096   -0.021 -0.028  0.057
 H          0.207  0.000 -0.027    0.002  0.077  0.000    0.624  0.000  0.072
 H          0.321 -0.013 -0.038   -0.149  0.045  0.001   -0.202 -0.046  0.229
 H          0.321  0.013 -0.038    0.148  0.045  0.001   -0.202  0.045  0.229
 H         -0.100 -0.173 -0.029    0.239  0.495 -0.060    0.216  0.237 -0.034
 H         -0.172 -0.274 -0.042   -0.110 -0.223 -0.202    0.076  0.003 -0.115
 H         -0.150 -0.288 -0.040   -0.109 -0.064 -0.196   -0.105 -0.217 -0.115
 H         -0.100  0.173 -0.029   -0.238  0.494  0.059    0.217 -0.240 -0.035
 H         -0.150  0.288 -0.040    0.108 -0.063  0.196   -0.106  0.218 -0.116
 H         -0.172  0.274 -0.042    0.110 -0.224  0.202    0.076 -0.002 -0.116
 TransDip   0.000  0.000 -0.044    0.000 -0.024  0.000   -0.023  0.000  0.001

 Mode:                10                     11                     12
 Frequency:       974.99                1009.39                1012.30
 Force Cnst:      0.6824                 0.9839                 0.9827
 Red. Mass:       1.2183                 1.6391                 1.6277
 IR Active:          YES                    YES                    YES
 IR Intens:        0.009                  1.733                  1.879
 Raman Active:       YES                    YES                    YES
               X      Y      Z        X      Y      Z        X      Y      Z
 C          0.000 -0.006  0.000    0.000  0.108  0.000   -0.106  0.000  0.001
 C          0.000  0.071  0.000    0.000  0.124  0.000    0.124  0.000  0.036
 C          0.076 -0.036 -0.002   -0.098 -0.068  0.028   -0.056  0.104 -0.019
 C         -0.076 -0.036  0.002    0.098 -0.068 -0.028   -0.056 -0.104 -0.018
 H          0.000 -0.158  0.000    0.000 -0.193  0.000   -0.142  0.000 -0.034
 H          0.336 -0.109  0.004    0.486 -0.129 -0.001    0.243  0.011 -0.112
 H         -0.336 -0.109 -0.004   -0.485 -0.129  0.001    0.245 -0.011 -0.112
 H         -0.153  0.087  0.003    0.118  0.055 -0.028    0.091 -0.148  0.016
 H         -0.286 -0.259  0.008    0.041 -0.038 -0.088    0.340  0.394  0.060
 H          0.095  0.405  0.006   -0.165 -0.368 -0.094   -0.039 -0.282  0.053
 H          0.153  0.087 -0.003   -0.118  0.056  0.028    0.091  0.147  0.016
 H         -0.095  0.405 -0.006    0.165 -0.368  0.094   -0.039  0.284  0.052
 H          0.286 -0.259 -0.008   -0.040 -0.040  0.089    0.340 -0.394  0.059
 TransDip   0.000  0.003  0.000    0.000 -0.042  0.000    0.044  0.000 -0.001

 Mode:                13                     14                     15
 Frequency:      1098.55                1293.50                1295.36
 Force Cnst:      1.1491                 3.0010                 3.0035
 Red. Mass:       1.6162                 3.0443                 3.0380
 IR Active:          YES                    YES                    YES
 IR Intens:        0.680                  5.943                  6.033
 Raman Active:       YES                    YES                    YES
               X      Y      Z        X      Y      Z        X      Y      Z
 C         -0.001  0.000  0.170   -0.001  0.374  0.000    0.374  0.001  0.001
 C         -0.007  0.000 -0.096    0.000 -0.133  0.000   -0.109  0.000  0.021
 C          0.004  0.007 -0.093    0.010 -0.116 -0.020   -0.127  0.009 -0.011
 C          0.004 -0.007 -0.093   -0.009 -0.116  0.020   -0.127 -0.010 -0.011
 H          0.399  0.000  0.038    0.000  0.359  0.000   -0.190  0.001 -0.018
 H         -0.194 -0.051  0.207   -0.324  0.112 -0.107   -0.244  0.068  0.011
 H         -0.194  0.051  0.207    0.325  0.112  0.108   -0.242 -0.068  0.012
 H         -0.195 -0.337  0.035   -0.234 -0.047  0.015    0.221 -0.241  0.004
 H          0.050  0.182  0.202   -0.284 -0.261  0.052    0.133  0.107 -0.097
 H          0.141  0.142  0.200   -0.020 -0.040 -0.059   -0.083 -0.406  0.089
 H         -0.195  0.336  0.035    0.233 -0.049 -0.015    0.222  0.241  0.004
 H          0.140 -0.141  0.200    0.020 -0.042  0.059   -0.083  0.405  0.090
 H          0.050 -0.182  0.202    0.283 -0.260 -0.051    0.135 -0.109 -0.098
 TransDip  -0.001  0.000 -0.026    0.000  0.078  0.000    0.079  0.000 -0.001

 Mode:                16                     17                     18
 Frequency:      1397.68                1401.83                1427.98
 Force Cnst:      1.4358                 1.4399                 1.4435
 Red. Mass:       1.2475                 1.2436                 1.2015
 IR Active:          YES                    YES                    YES
 IR Intens:        3.582                  3.858                  2.424
 Raman Active:       YES                    YES                    YES
               X      Y      Z        X      Y      Z        X      Y      Z
 C          0.000  0.028  0.000    0.027  0.000 -0.002    0.006  0.000  0.016
 C          0.000 -0.010  0.000   -0.106  0.000  0.025   -0.088  0.000  0.014
 C         -0.048 -0.087 -0.024   -0.040 -0.051 -0.016    0.034  0.059  0.011
 C          0.048 -0.087  0.024   -0.040  0.051 -0.015    0.034 -0.059  0.011
 H          0.000  0.042  0.000    0.445  0.000  0.146    0.414  0.000  0.134
 H         -0.011  0.006 -0.018    0.327 -0.083 -0.220    0.280 -0.080 -0.183
 H          0.010  0.006  0.018    0.327  0.083 -0.219    0.281  0.080 -0.183
 H          0.207  0.368 -0.135    0.180  0.224 -0.091   -0.174 -0.290  0.107
 H          0.221  0.220  0.208    0.152  0.151  0.122   -0.161 -0.157 -0.148
 H          0.092  0.312  0.210    0.063  0.189  0.164   -0.064 -0.225 -0.158
 H         -0.207  0.369  0.135    0.180 -0.224 -0.091   -0.174  0.290  0.107
 H         -0.092  0.313 -0.210    0.063 -0.189  0.163   -0.064  0.225 -0.158
 H         -0.221  0.221 -0.208    0.152 -0.151  0.121   -0.161  0.157 -0.148
 TransDip   0.000  0.061  0.000    0.062  0.000  0.007    0.006  0.000 -0.050

 Mode:                19                     20                     21
 Frequency:      1470.16                1474.18                1477.84
 Force Cnst:      1.3291                 1.3618                 1.3663
 Red. Mass:       1.0437                 1.0635                 1.0618
 IR Active:          YES                    YES                    YES
 IR Intens:        0.008                  3.014                  2.937
 Raman Active:       YES                    YES                    YES
               X      Y      Z        X      Y      Z        X      Y      Z
 C          0.000  0.002  0.000    0.000  0.016  0.000    0.014  0.000  0.002
 C          0.000 -0.032  0.000    0.000 -0.009  0.000   -0.032  0.000 -0.041
 C         -0.028  0.018  0.002   -0.011 -0.029  0.038   -0.016 -0.013  0.023
 C          0.029  0.018 -0.002    0.011 -0.029 -0.038   -0.016  0.013  0.024
 H          0.000  0.388  0.000    0.000  0.077  0.000   -0.200  0.000 -0.067
 H          0.140  0.029 -0.230    0.017  0.006 -0.045    0.239 -0.318  0.335
 H         -0.140  0.029  0.231   -0.015  0.008  0.046    0.239  0.318  0.335
 H          0.357 -0.219 -0.002   -0.128 -0.135  0.060    0.009 -0.133  0.035
 H         -0.051 -0.150 -0.261    0.362  0.058 -0.283    0.224  0.014 -0.236
 H          0.102  0.112  0.241   -0.155  0.331 -0.329   -0.075  0.229 -0.143
 H         -0.357 -0.219  0.002    0.129 -0.134 -0.059    0.009  0.134  0.035
 H         -0.102  0.113 -0.241    0.155  0.329  0.328   -0.076 -0.231 -0.145
 H          0.051 -0.150  0.261   -0.361  0.058  0.281    0.226 -0.014 -0.238
 TransDip   0.000 -0.003  0.000    0.000  0.056  0.000    0.054  0.000 -0.009

 Mode:                22                     23                     24
 Frequency:      1492.94                1493.83                1495.24
 Force Cnst:      1.4005                 1.3968                 1.3954
 Red. Mass:       1.0664                 1.0624                 1.0593
 IR Active:          YES                    YES                    YES
 IR Intens:        3.150                  3.447                 18.911
 Raman Active:       YES                    YES                    YES
               X      Y      Z        X      Y      Z        X      Y      Z
 C         -0.055  0.000 -0.001    0.000 -0.054  0.000    0.004  0.000 -0.028
 C          0.018  0.000  0.003    0.000 -0.033  0.000   -0.026  0.000 -0.030
 C         -0.017  0.026 -0.003    0.021  0.006 -0.005    0.012  0.019 -0.025
 C         -0.017 -0.026 -0.003   -0.021  0.006  0.005    0.012 -0.019 -0.025
 H          0.011  0.000  0.001    0.000  0.564  0.000   -0.174 -0.001 -0.056
 H         -0.013  0.029 -0.026    0.251  0.034 -0.350    0.207 -0.264  0.270
 H         -0.013 -0.029 -0.026   -0.250  0.035  0.351    0.208  0.264  0.268
 H          0.414 -0.228 -0.008   -0.213  0.147 -0.002    0.050  0.137 -0.045
 H         -0.133 -0.204 -0.266    0.006  0.109  0.200   -0.280 -0.036  0.243
 H          0.152  0.116  0.325   -0.051 -0.124 -0.125    0.099 -0.284  0.207
 H          0.414  0.228 -0.008    0.213  0.147  0.002    0.050 -0.137 -0.045
 H          0.152 -0.116  0.325    0.051 -0.122  0.126    0.099  0.285  0.207
 H         -0.133  0.204 -0.266   -0.007  0.109 -0.198   -0.280  0.035  0.244
 TransDip   0.057  0.000  0.006    0.000  0.059  0.000    0.001  0.000  0.139

 Mode:                25                     26                     27
 Frequency:      2916.12                2916.72                2924.94
 Force Cnst:      5.3283                 5.3300                 5.3758
 Red. Mass:       1.0635                 1.0634                 1.0665
 IR Active:          YES                    YES                    YES
 IR Intens:       37.185                 39.444                103.036
 Raman Active:       YES                    YES                    YES
               X      Y      Z        X      Y      Z        X      Y      Z
 C          0.000 -0.004  0.000    0.004  0.000  0.000    0.000  0.000 -0.002
 C          0.000  0.000  0.000    0.019  0.000 -0.051    0.015  0.000 -0.045
 C         -0.009 -0.014 -0.047    0.006  0.009  0.030   -0.006 -0.010 -0.038
 C          0.009 -0.014  0.047    0.006 -0.009  0.031   -0.006  0.010 -0.038
 H          0.001  0.000 -0.003   -0.188  0.000  0.726   -0.168  0.000  0.615
 H         -0.001 -0.001  0.000   -0.032 -0.071 -0.057   -0.019 -0.042 -0.038
 H          0.001 -0.002  0.001   -0.032  0.071 -0.057   -0.019  0.042 -0.038
 H          0.093  0.143  0.675   -0.059 -0.092 -0.431    0.075  0.116  0.516
 H         -0.042  0.057 -0.051    0.027 -0.038  0.032   -0.021  0.030 -0.030
 H          0.069 -0.007 -0.052   -0.041  0.004  0.033    0.034 -0.003 -0.031
 H         -0.093  0.142 -0.671   -0.060  0.094 -0.438    0.075 -0.116  0.517
 H         -0.069 -0.007  0.052   -0.041 -0.005  0.033    0.035  0.003 -0.031
 H          0.042  0.057  0.051    0.027  0.038  0.032   -0.021 -0.030 -0.030
 TransDip  -0.001 -0.195  0.000    0.199 -0.001  0.029    0.016  0.000 -0.325

 Mode:                28                     29                     30
 Frequency:      3034.25                3035.42                3037.03
 Force Cnst:      5.7741                 5.7783                 5.7759
 Red. Mass:       1.0645                 1.0644                 1.0629
 IR Active:          YES                    YES                    YES
 IR Intens:       23.831                 23.948                 34.308
 Raman Active:       YES                    YES                    YES
               X      Y      Z        X      Y      Z        X      Y      Z
 C         -0.001  0.000  0.000    0.000  0.001  0.000    0.000  0.000  0.000
 C          0.038  0.000  0.049    0.000  0.002  0.000    0.023  0.000  0.027
 C          0.006  0.014 -0.020   -0.016 -0.027  0.041   -0.014 -0.024  0.033
 C          0.006 -0.014 -0.020    0.016 -0.026 -0.040   -0.014  0.024  0.033
 H          0.042  0.000 -0.110    0.000  0.001  0.000    0.017  0.000 -0.038
 H         -0.242 -0.498 -0.241   -0.007 -0.015 -0.008   -0.144 -0.290 -0.141
 H         -0.242  0.498 -0.241    0.004 -0.009  0.005   -0.144  0.290 -0.142
 H          0.009  0.015  0.049   -0.019 -0.029 -0.092   -0.012 -0.018 -0.051
 H          0.132 -0.196  0.099   -0.255  0.376 -0.190   -0.214  0.321 -0.162
 H         -0.219  0.015  0.097    0.459 -0.031 -0.206    0.392 -0.024 -0.176
 H          0.009 -0.015  0.049    0.018 -0.028  0.091   -0.012  0.019 -0.053
 H         -0.219 -0.015  0.097   -0.451 -0.030  0.202    0.401  0.025 -0.180
 H          0.132  0.195  0.099    0.250  0.369  0.186   -0.219 -0.329 -0.166
 TransDip   0.155  0.000  0.017    0.000 -0.157  0.002   -0.016  0.002  0.187

 Mode:                31                     32                     33
 Frequency:      3077.31                3081.25                3081.44
 Force Cnst:      6.1525                 6.1618                 6.1630
 Red. Mass:       1.1027                 1.1016                 1.1016
 IR Active:          YES                    YES                    YES
 IR Intens:        2.428                 43.923                 45.947
 Raman Active:       YES                    YES                    YES
               X      Y      Z        X      Y      Z        X      Y      Z
 C          0.000 -0.001  0.000    0.000 -0.002  0.000   -0.002  0.000  0.000
 C          0.000 -0.069  0.000    0.000 -0.061  0.000   -0.001  0.001 -0.001
 C         -0.038  0.022  0.001    0.041 -0.024  0.000   -0.057  0.034  0.000
 C          0.038  0.022 -0.001   -0.043 -0.025  0.000   -0.055 -0.032  0.000
 H          0.000 -0.020  0.000    0.000 -0.018  0.000   -0.001  0.000  0.000
 H          0.216  0.423  0.223    0.195  0.378  0.198    0.004  0.003  0.002
 H         -0.216  0.423 -0.222   -0.195  0.378 -0.198    0.013 -0.020  0.011
 H         -0.011  0.006  0.001    0.011 -0.008 -0.002   -0.016  0.010  0.003
 H          0.163 -0.250  0.135   -0.182  0.286 -0.153    0.251 -0.388  0.207
 H          0.302 -0.014 -0.146   -0.313  0.016  0.150    0.455 -0.019 -0.218
 H          0.011  0.006 -0.001   -0.012 -0.008  0.002   -0.016 -0.010  0.003
 H         -0.303 -0.014  0.146    0.333  0.017 -0.159    0.441  0.019 -0.211
 H         -0.163 -0.250 -0.135    0.193  0.302  0.162    0.243  0.375  0.200
 TransDip   0.000 -0.050  0.000   -0.005 -0.212  0.000   -0.217  0.005  0.000

 STANDARD THERMODYNAMIC QUANTITIES AT   298.18 K  AND     1.00 ATM

   This Molecule has  0 Imaginary Frequencies
   Zero point vibrational energy:       72.939 kcal/mol

   Atom    1 Element C  Has Mass   12.00000
   Atom    2 Element C  Has Mass   12.00000
   Atom    3 Element C  Has Mass   12.00000
   Atom    4 Element C  Has Mass   12.00000
   Atom    5 Element H  Has Mass    1.00783
   Atom    6 Element H  Has Mass    1.00783
   Atom    7 Element H  Has Mass    1.00783
   Atom    8 Element H  Has Mass    1.00783
   Atom    9 Element H  Has Mass    1.00783
   Atom   10 Element H  Has Mass    1.00783
   Atom   11 Element H  Has Mass    1.00783
   Atom   12 Element H  Has Mass    1.00783
   Atom   13 Element H  Has Mass    1.00783
   Molecular Mass:    57.070470 amu
   Principal axes and moments of inertia in atomic units:
                             1           2           3
    Eigenvalues --      224.74020   225.16171   414.82817
          X               1.00000    -0.00001    -0.00308
          Y               0.00001     1.00000     0.00000
          Z               0.00308     0.00000     1.00000
   Rotational Symmetry Number is   1
   The Molecule is an Asymmetric Top
   Translational Enthalpy:        0.889 kcal/mol
   Rotational Enthalpy:           0.889 kcal/mol
   Vibrational Enthalpy:         75.117 kcal/mol
   gas constant (RT):             0.593 kcal/mol
   Translational Entropy:        38.047  cal/mol.K
   Rotational Entropy:           24.555  cal/mol.K
   Vibrational Entropy:          12.915  cal/mol.K

   Total Enthalpy:               77.487 kcal/mol
   Total Entropy:                75.517  cal/mol.K
 Total job time:  24714.47s(wall), 24654.55s(cpu) 
 Thu Jul 25 00:03:28 2013

        *************************************************************
        *                                                           *
        *  Thank you very much for using Q-Chem.  Have a nice day.  *
        *                                                           *
        *************************************************************


0 sent ACK to 0 
now end server 0 ... 
