Process 0 of 1 is on cl132 - thread support 1
initial socket setup ...start
initial socket setup ...done 
now start server 0 ... 

cmd = /usr/bin/ssh clhead /usr/local/qchem/bin/get_hostid 788099654 > /tmp/1656822.1.medium.q/qchem2311/lic.dat

cmd = /usr/bin/ssh clhead /usr/local/qchem/bin/get_hostid 788099654 > /tmp/1656822.1.medium.q/qchem2311/lic.dat

cmd = /usr/bin/ssh clhead /usr/local/qchem/bin/get_hostid 788099654 > /tmp/1656822.1.medium.q/qchem2311/lic.dat

cmd = /usr/bin/ssh clhead /usr/local/qchem/bin/get_hostid 788099654 > /tmp/1656822.1.medium.q/qchem2311/lic.dat

cmd = /usr/bin/ssh clhead /usr/local/qchem/bin/get_hostid 788099654 > /tmp/1656822.1.medium.q/qchem2311/lic.dat
                  Welcome to Q-Chem
     A Quantum Leap Into The Future Of Chemistry

 Y. Shao, L. Fusti-Molnar, Y. Jung, J. Kussmann, C. Ochsenfeld,
 S. T. Brown, A. T. B. Gilbert, L. V. Slipchenko,S. V. Levchenko,
 D. P. O'Neill, R. A. DiStasio Jr., R. C. Lochan, T. Wang,
 G. J. O. Beran, N. A. Besley, J. M. Herbert, C. Y. Lin,
 T. Van Voorhis, S. H. Chien, A. Sodt, R. P. Steele, 
 V. A. Rassolov, P. E. Maslen, P. P. Korambath, R. D. Adamson,
 B. Austin, J. Baker, E. F. C. Byrd, H. Dachsel, R. J. Doerksen,
 A. Dreuw, B. D. Dunietz, A. D. Dutoi, T. R. Furlani,
 S. R. Gwaltney, A. Heyden, S. Hirata, C.-P. Hsu, G. Kedziora,
 R. Z. Khaliullin, P. Klunzinger, A. M. Lee, M. S. Lee, W. Liang,
 I. Lotan, N. Nair, B. Peters, E. I. Proynov, P. A. Pieniazek, 
 Y. M. Rhee, J. Ritchie, E. Rosta, C. D. Sherrill, 
 A. C. Simmonett, J. E. Subotnik, H. L. Woodcock III,
 W. Zhang, A. T. Bell, A. K. Chakraborty, D. M. Chipman,
 F. J. Keil, A. Warshel, W. J. Hehre, H. F. Schaefer III,
 J. Kong, A. I. Krylov, P. M. W. Gill, M. Head-Gordon,
 Q-Chem, Version 3.1, Q-Chem, Inc., Pittsburgh, PA (2007).

 Additional authors for Version 3.1: 
 Z. Gan, Y. Zhao, N. E. Schultz, D. Truhlar, E. Epifanovsky and M. Oana.

 Additional authors for Version 3.2: 
 R. Baer, B. R. Brooks, D. Casanova, J.-D. Chai, C.-L. Cheng, 
 C. Cramer, D. Crittenden, A. Ghysels, G. Hawkins, E. G. Hohenstein, 
 C. Kelley, W. Kurlancheek, D. Liotard, E. Livshits, P. Manohar, 
 A. Marenich, D. Neuhauser, R. Olson, M. A. Rohrdanz, K. S. Thanthiriwatte, 
 A. J. W. Thom, V. Vanovschi, C. F. Williams, Q. Wu and Z.-Q. You. 


 Intel X86 Linux Version

 Q-chem begins on Thu Jun 19 02:05:07 2014  

 Parallel job on  1  processors
Processing $rem in /usr/local/qchem/config/preferences.

theFileMan(): MAXOPENFILES=974 MAX_SUB_FILE_NUM=16
Maximum size of a physical file is 2.0 GB, maximum size of a tmp-file is 32.0 GB


--------------------------------------------------------------
User input:
--------------------------------------------------------------

$molecule
-1,2
V          0.03260       -1.87320        0.09818
O          0.08873       -3.27638       -0.62065
O          1.24907       -0.93737       -0.82191
O         -1.67099       -1.39830       -0.24263
O          0.49449       -2.36647        1.74418
N         -0.02368        0.23115        1.40233
C          2.14182        0.05739       -0.66285
C          3.40342       -0.10882       -1.26990
C          4.34362        0.91251       -1.14203
H          5.32663        0.82280       -1.59544
C          4.01799        2.05215       -0.42324
C          2.78699        2.22282        0.18410
H          2.57712        3.13007        0.74342
C          1.82699        1.21595        0.06427
C          0.46421        1.40388        0.66368
H         -0.26259        1.60305       -0.13463
H          0.47015        2.29263        1.31597
C         -1.39942        0.47043        1.86935
H         -1.42383        1.34444        2.54032
H         -1.70591       -0.39897        2.46341
C         -2.37052        0.66322        0.74404
C         -3.22288        1.76787        0.70603
H         -3.18065        2.53542        1.47350
C         -4.12976        1.87214       -0.33320
C         -4.22295        0.92379       -1.34059
H         -4.95046        1.05384       -2.13687
C         -3.38091       -0.18759       -1.32108
C         -2.45395       -0.30661       -0.26577
C          0.84366       -0.12811        2.52662
H          0.70567        0.54488        3.38825
H          1.88257       -0.03991        2.19393
C          0.56706       -1.57165        2.90555
H          1.37227       -1.96242        3.53899
H         -0.37234       -1.68319        3.46345
C          3.70420       -1.36413       -2.03147
H          3.61777       -2.24648       -1.38674
H          4.71528       -1.33689       -2.44694
H          2.99382       -1.50644       -2.85375
C         -3.44577       -1.24467       -2.38155
H         -2.48927       -1.33437       -2.90962
H         -4.22458       -1.01669       -3.11448
H         -3.65572       -2.22774       -1.94488
F         -4.95714        2.94563       -0.37239
F          4.94455        3.03396       -0.30495
$end

$comment
negative
$end

$xc_functional
C PBE   1.00
X wPBE  1.00
$end

$rem
SYMMETRY_DECOMPOSITION	0
exchange 		general
LRC_DFT                 true
BASIS                   gen
ECP                     lanl2dz
omega			2000
mem_static              760
max_scf_cycles          200
scf_final_print         1
sym_ignore              true
$end

$basis
   V 0
   lanl2dz
   ****
   O 0 
   6-31+G*
   ****
   N 0
   6-31+G*
   ****
   C 0
   6-31+G*
   ****
   H 0
   6-31+G*
   ****
   F 0
   6-31+G*
   ****
$end

--------------------------------------------------------------
 Writing REM_CC_EA           44
 ----------------------------------------------------
       Standard Nuclear Orientation (Angstroms)
    I     Atom         X            Y            Z
 ----------------------------------------------------
    1      V       0.032600    -1.873200     0.098180
    2      O       0.088730    -3.276380    -0.620650
    3      O       1.249070    -0.937370    -0.821910
    4      O      -1.670990    -1.398300    -0.242630
    5      O       0.494490    -2.366470     1.744180
    6      N      -0.023680     0.231150     1.402330
    7      C       2.141820     0.057390    -0.662850
    8      C       3.403420    -0.108820    -1.269900
    9      C       4.343620     0.912510    -1.142030
   10      H       5.326630     0.822800    -1.595440
   11      C       4.017990     2.052150    -0.423240
   12      C       2.786990     2.222820     0.184100
   13      H       2.577120     3.130070     0.743420
   14      C       1.826990     1.215950     0.064270
   15      C       0.464210     1.403880     0.663680
   16      H      -0.262590     1.603050    -0.134630
   17      H       0.470150     2.292630     1.315970
   18      C      -1.399420     0.470430     1.869350
   19      H      -1.423830     1.344440     2.540320
   20      H      -1.705910    -0.398970     2.463410
   21      C      -2.370520     0.663220     0.744040
   22      C      -3.222880     1.767870     0.706030
   23      H      -3.180650     2.535420     1.473500
   24      C      -4.129760     1.872140    -0.333200
   25      C      -4.222950     0.923790    -1.340590
   26      H      -4.950460     1.053840    -2.136870
   27      C      -3.380910    -0.187590    -1.321080
   28      C      -2.453950    -0.306610    -0.265770
   29      C       0.843660    -0.128110     2.526620
   30      H       0.705670     0.544880     3.388250
   31      H       1.882570    -0.039910     2.193930
   32      C       0.567060    -1.571650     2.905550
   33      H       1.372270    -1.962420     3.538990
   34      H      -0.372340    -1.683190     3.463450
   35      C       3.704200    -1.364130    -2.031470
   36      H       3.617770    -2.246480    -1.386740
   37      H       4.715280    -1.336890    -2.446940
   38      H       2.993820    -1.506440    -2.853750
   39      C      -3.445770    -1.244670    -2.381550
   40      H      -2.489270    -1.334370    -2.909620
   41      H      -4.224580    -1.016690    -3.114480
   42      H      -3.655720    -2.227740    -1.944880
   43      F      -4.957140     2.945630    -0.372390
   44      F       4.944550     3.033960    -0.304950
 ----------------------------------------------------
 Nuclear Repulsion Energy =  2631.8992343483 hartrees
 There are       99 alpha and       98 beta electrons

 Q-Chem warning in module BasisType.C, line 827:

 Setting pure/cartesian flag to 2111 for general basis


 Requested basis set is non-standard
 There are 169 shells and 508 basis functions

Total QAlloc Memory Limit   2000 MB
Mega-Array Size       743 MB
MEM_STATIC part       760 MB
 A cutoff of  1.0D-08 yielded   9221 shell pairs
 There are  90576 function pairs ( 98712 Cartesian)
Evaluating contribution to one-electron hamiltonian from nuclear
 Requested basis set is non-standard
 Compound shells will be simplified
Warning: Basis Set and ECP do not match
 There are 244 shells and 508 basis functions
 A cutoff of  1.0D-08 yielded  21038 shell pairs
 There are  90402 function pairs ( 98542 Cartesian)
 Smallest overlap matrix eigenvalue = 6.02E-07

 Q-Chem warning in module mkSTV.C, line 194:

 Overlap eigenvalue is smaller than square root of threshold

 Linear dependence detected in AO basis
 Number of orthogonalized atomic orbitals = 505
 Maximum deviation from orthogonality = 1.510E-10
 Multipole matrices computed through 2nd order

  Scale SEOQF with 1.000000e-02/1.000000e-01/1.000000e-01

 Standard Electronic Orientation quadrupole field applied
 Nucleus-field energy     =     0.0000000069 hartrees
 Guess MOs from core Hamiltonian diagonalization
 Long-range K will be added via erf
 Coulomb attenuation parameter = 2 bohr**(-1)
 An unrestricted Kohn-Sham SCF calculation will be
 performed using Pulay DIIS extrapolation
 Exchange:  wPBE + LR-HF      Correlation:  PBE
 Using SG-1 standard quadrature grid
 SCF converges when DIIS error is below 1.0E-05
 Requested basis set is non-standard
 There are 169 shells and 508 basis functions
 A cutoff of  1.0D-08 yielded   9221 shell pairs
 There are  90576 function pairs ( 98712 Cartesian)
 ---------------------------------------
  Cycle       Energy         DIIS Error
 ---------------------------------------
    1    -591.2972717193      8.02E-02
    2     299.7407753737      9.92E-02
    3    -829.2765550625      8.08E-02
    4    -974.5079283048      6.99E-02
    5   -1070.6512095342      5.96E-02
    6   -1186.1364343110      4.09E-02
    7    -952.7850740437      7.03E-02
    8   -1316.7109022313      1.28E-02
    9   -1310.7209337951      1.21E-02
   10   -1312.8712164229      1.52E-02
   11   -1320.1902548102      7.30E-03
   12   -1321.0451501082      5.41E-03
   13   -1322.1228396497      3.11E-03
   14   -1322.5026019979      9.93E-04
   15   -1322.5712864807      4.03E-04
   16   -1322.5816893983      2.02E-04
   17   -1322.5857680739      9.16E-05
   18   -1322.5870603076      5.56E-05
   19   -1322.5879377456      3.85E-05
   20   -1322.5887947099      3.41E-05
   21   -1322.5897714846      2.91E-05
   22   -1322.5913932917      2.11E-05
   23   -1322.5919627225      1.39E-05
   24   -1322.5922201587      7.05E-06 Convergence criterion met
 ---------------------------------------
 One-Electron    Energy = -7093.2954605917
 Total Coulomb   Energy =  3313.5323562091
 Alpha Exchange  Energy =   -54.4278838911
 Beta  Exchange  Energy =   -53.8284469234
 DFT   Exchange  Energy =   -59.6609499891
 DFT Correlation Energy =    -6.8110693277
 Nuclear Repu.   Energy =  2631.8992343552
 Nuclear Attr.   Energy = -8378.7850818930
 Kinetic         Energy =  1285.4896213012
 <S^2> = 0.7998
 SCF time:  CPU 6054.22 s  wall 6062.77 s
 Final Alpha MO Eigenvalues
            1           2           3           4           5           6
    1 -25.1633407 -25.1620429 -19.5924711 -19.5850626 -19.5533196 -19.5187145
            7           8           9          10          11          12
    1 -14.8827345 -10.8133738 -10.8118519 -10.7797357 -10.7789856 -10.7590476
           13          14          15          16          17          18
    1 -10.7563169 -10.7426300 -10.7392208 -10.7368793 -10.7366780 -10.7355579
           19          20          21          22          23          24
    1 -10.7352923 -10.7341272 -10.7336356 -10.7332643 -10.7329063 -10.7030054
           25          26          27          28          29          30
    1 -10.7028884  -3.1657121  -2.0761340  -2.0549503  -2.0423233  -1.5492652
           31          32          33          34          35          36
    1  -1.5478566  -1.2520926  -1.2446214  -1.2066048  -1.1745951  -1.0925393
           37          38          39          40          41          42
    1  -1.0894690  -1.0245577  -1.0094045  -0.9982621  -0.9571895  -0.9527924
           43          44          45          46          47          48
    1  -0.9175096  -0.8862873  -0.8736436  -0.8698281  -0.8217171  -0.7623499
           49          50          51          52          53          54
    1  -0.7602258  -0.7542146  -0.7493011  -0.7221773  -0.6647995  -0.6621951
           55          56          57          58          59          60
    1  -0.6555786  -0.6491293  -0.6329494  -0.6324290  -0.6212256  -0.6130294
           61          62          63          64          65          66
    1  -0.6020268  -0.5948935  -0.5886870  -0.5600237  -0.5575865  -0.5391171
           67          68          69          70          71          72
    1  -0.5337507  -0.5258940  -0.5194422  -0.5188620  -0.5178235  -0.5143891
           73          74          75          76          77          78
    1  -0.5063173  -0.4933126  -0.4863356  -0.4806569  -0.4721537  -0.4648665
           79          80          81          82          83          84
    1  -0.4600394  -0.4557460  -0.4546693  -0.4510637  -0.4450388  -0.4399068
           85          86          87          88          89          90
    1  -0.4115097  -0.4058377  -0.4040884  -0.3969199  -0.3685065  -0.3624519
           91          92          93          94          95          96
    1  -0.3525320  -0.3274499  -0.3034157  -0.2848914  -0.2786837  -0.2756269
           97          98          99         100         101         102
    1  -0.2629847  -0.2313312  -0.2186091   0.1314010   0.1366649   0.1394031
          103         104
    1   0.1446234   0.1552477
 Final Beta MO Eigenvalues
            1           2           3           4           5           6
    1 -25.1633816 -25.1620052 -19.5926980 -19.5845953 -19.5518602 -19.5254544
            7           8           9          10          11          12
    1 -14.8827295 -10.8137210 -10.8115476 -10.7791974 -10.7791143 -10.7590562
           13          14          15          16          17          18
    1 -10.7562769 -10.7426388 -10.7392113 -10.7368820 -10.7368386 -10.7356212
           19          20          21          22          23          24
    1 -10.7355235 -10.7341677 -10.7334302 -10.7329779 -10.7328548 -10.7030259
           25          26          27          28          29          30
    1 -10.7028644  -3.0901813  -2.0003865  -1.9555148  -1.9277526  -1.5494392
           31          32          33          34          35          36
    1  -1.5476975  -1.2511983  -1.2421935  -1.2039354  -1.1717293  -1.0923408
           37          38          39          40          41          42
    1  -1.0892611  -1.0501951  -1.0094077  -0.9981675  -0.9570227  -0.9524726
           43          44          45          46          47          48
    1  -0.9171175  -0.8861969  -0.8734309  -0.8694671  -0.8213939  -0.7620132
           49          50          51          52          53          54
    1  -0.7593302  -0.7541629  -0.7490963  -0.7217822  -0.6646973  -0.6621828
           55          56          57          58          59          60
    1  -0.6554409  -0.6490413  -0.6337488  -0.6316807  -0.6136418  -0.6095109
           61          62          63          64          65          66
    1  -0.6013316  -0.5943925  -0.5883192  -0.5594977  -0.5570605  -0.5362243
           67          68          69          70          71          72
    1  -0.5254914  -0.5248189  -0.5189079  -0.5181099  -0.5164221  -0.5135160
           73          74          75          76          77          78
    1  -0.5058909  -0.4871743  -0.4828797  -0.4802233  -0.4695694  -0.4621581
           79          80          81          82          83          84
    1  -0.4573418  -0.4545018  -0.4533605  -0.4466401  -0.4393261  -0.4332965
           85          86          87          88          89          90
    1  -0.4051838  -0.4041504  -0.3965646  -0.3876208  -0.3724580  -0.3589166
           91          92          93          94          95          96
    1  -0.3238956  -0.3142056  -0.3127718  -0.3034967  -0.2842765  -0.2754162
           97          98          99         100         101         102
    1  -0.2325054  -0.2281861   0.1313886   0.1367482   0.1393849   0.1446318
          103
    1   0.1552937
 Analysis of SCF Wavefunction
 
 --------------------------------------------------------------
                    Orbital Energies (a.u.)
 --------------------------------------------------------------
 
 Alpha MOs
 -- Occupied --
-25.163 -25.162 -19.592 -19.585 -19.553 -19.519 -14.883 -10.813
-10.812 -10.780 -10.779 -10.759 -10.756 -10.743 -10.739 -10.737
-10.737 -10.736 -10.735 -10.734 -10.734 -10.733 -10.733 -10.703
-10.703  -3.166  -2.076  -2.055  -2.042  -1.549  -1.548  -1.252
 -1.245  -1.207  -1.175  -1.093  -1.089  -1.025  -1.009  -0.998
 -0.957  -0.953  -0.918  -0.886  -0.874  -0.870  -0.822  -0.762
 -0.760  -0.754  -0.749  -0.722  -0.665  -0.662  -0.656  -0.649
 -0.633  -0.632  -0.621  -0.613  -0.602  -0.595  -0.589  -0.560
 -0.558  -0.539  -0.534  -0.526  -0.519  -0.519  -0.518  -0.514
 -0.506  -0.493  -0.486  -0.481  -0.472  -0.465  -0.460  -0.456
 -0.455  -0.451  -0.445  -0.440  -0.412  -0.406  -0.404  -0.397
 -0.369  -0.362  -0.353  -0.327  -0.303  -0.285  -0.279  -0.276
 -0.263  -0.231  -0.219
 -- Virtual --
  0.131   0.137   0.139   0.145   0.155   0.157   0.160   0.162
  0.168   0.174   0.176   0.177   0.182   0.184   0.189   0.196
  0.200   0.201   0.206   0.213   0.217   0.221   0.223   0.226
  0.230   0.230   0.237   0.238   0.244   0.247   0.250   0.259
  0.263   0.266   0.267   0.272   0.279   0.280   0.284   0.287
  0.294   0.297   0.298   0.301   0.303   0.309   0.311   0.313
  0.319   0.321   0.322   0.324   0.329   0.333   0.336   0.340
  0.343   0.348   0.353   0.357   0.360   0.363   0.367   0.370
  0.374   0.383   0.386   0.388   0.393   0.393   0.396   0.403
  0.406   0.409   0.411   0.415   0.416   0.423   0.426   0.428
  0.431   0.437   0.449   0.452   0.452   0.458   0.460   0.465
  0.468   0.471   0.472   0.481   0.486   0.490   0.494   0.499
  0.507   0.514   0.516   0.519   0.521   0.527   0.529   0.533
  0.535   0.541   0.545   0.552   0.555   0.559   0.561   0.562
  0.568   0.569   0.572   0.578   0.583   0.590   0.596   0.597
  0.601   0.608   0.609   0.611   0.619   0.622   0.626   0.627
  0.631   0.636   0.642   0.649   0.655   0.660   0.661   0.669
  0.673   0.678   0.687   0.690   0.700   0.708   0.709   0.713
  0.720   0.727   0.731   0.739   0.748   0.795   0.803   0.810
  0.854   0.882   0.896   0.914   0.924   0.934   0.940   0.953
  0.963   0.964   0.981   0.995   0.997   1.003   1.005   1.016
  1.023   1.032   1.041   1.048   1.058   1.061   1.074   1.079
  1.082   1.088   1.093   1.104   1.110   1.113   1.120   1.127
  1.137   1.144   1.152   1.157   1.166   1.172   1.177   1.193
  1.202   1.211   1.226   1.228   1.229   1.231   1.248   1.262
  1.268   1.271   1.280   1.303   1.313   1.320   1.325   1.344
  1.349   1.353   1.362   1.375   1.378   1.383   1.398   1.403
  1.413   1.418   1.433   1.440   1.450   1.461   1.471   1.478
  1.486   1.499   1.511   1.516   1.530   1.533   1.541   1.549
  1.554   1.557   1.568   1.583   1.587   1.601   1.609   1.628
  1.631   1.637   1.648   1.658   1.664   1.671   1.675   1.682
  1.689   1.697   1.714   1.722   1.726   1.729   1.742   1.745
  1.760   1.770   1.785   1.785   1.795   1.801   1.804   1.811
  1.857   1.862   1.893   1.904   1.921   1.936   1.940   1.975
  1.984   1.998   2.015   2.018   2.030   2.047   2.055   2.059
  2.070   2.086   2.090   2.105   2.107   2.126   2.140   2.144
  2.156   2.165   2.166   2.169   2.174   2.177   2.184   2.189
  2.204   2.212   2.218   2.233   2.247   2.251   2.257   2.260
  2.272   2.276   2.285   2.287   2.302   2.305   2.315   2.321
  2.327   2.338   2.343   2.346   2.359   2.371   2.377   2.384
  2.390   2.415   2.426   2.428   2.447   2.449   2.457   2.467
  2.471   2.498   2.502   2.511   2.518   2.540   2.545   2.555
  2.564   2.571   2.581   2.592   2.616   2.633   2.642   2.644
  2.658   2.661   2.670   2.675   2.685   2.688   2.693   2.711
  2.716   2.726   2.739   2.751   2.759   2.773   2.781   2.787
  2.797   2.810   2.810   2.833   2.837   2.851   2.876   2.878
  2.894   2.897   2.911   2.936   2.971   2.991   2.993   3.010
  3.028   3.058   3.061   3.077   3.086   3.129   3.158   3.187
  3.196   3.210   3.239   3.266   3.295   3.311   3.335   3.343
  3.399   3.421   3.437   3.456   3.490   3.581   3.591   3.678
  3.683   3.692   3.699   3.920   3.924  59.974
 
 Beta MOs
 -- Occupied --
-25.163 -25.162 -19.593 -19.585 -19.552 -19.525 -14.883 -10.814
-10.812 -10.779 -10.779 -10.759 -10.756 -10.743 -10.739 -10.737
-10.737 -10.736 -10.736 -10.734 -10.733 -10.733 -10.733 -10.703
-10.703  -3.090  -2.000  -1.956  -1.928  -1.549  -1.548  -1.251
 -1.242  -1.204  -1.172  -1.092  -1.089  -1.050  -1.009  -0.998
 -0.957  -0.952  -0.917  -0.886  -0.873  -0.869  -0.821  -0.762
 -0.759  -0.754  -0.749  -0.722  -0.665  -0.662  -0.655  -0.649
 -0.634  -0.632  -0.614  -0.610  -0.601  -0.594  -0.588  -0.559
 -0.557  -0.536  -0.525  -0.525  -0.519  -0.518  -0.516  -0.514
 -0.506  -0.487  -0.483  -0.480  -0.470  -0.462  -0.457  -0.455
 -0.453  -0.447  -0.439  -0.433  -0.405  -0.404  -0.397  -0.388
 -0.372  -0.359  -0.324  -0.314  -0.313  -0.303  -0.284  -0.275
 -0.233  -0.228
 -- Virtual --
  0.131   0.137   0.139   0.145   0.155   0.157   0.160   0.162
  0.168   0.174   0.177   0.177   0.182   0.184   0.189   0.197
  0.201   0.204   0.206   0.213   0.217   0.222   0.223   0.227
  0.230   0.233   0.238   0.242   0.247   0.250   0.258   0.263
  0.264   0.267   0.271   0.275   0.279   0.281   0.286   0.290
  0.297   0.298   0.300   0.305   0.309   0.311   0.318   0.319
  0.322   0.322   0.327   0.330   0.332   0.337   0.338   0.341
  0.344   0.345   0.350   0.355   0.357   0.361   0.364   0.368
  0.370   0.377   0.384   0.388   0.389   0.393   0.394   0.397
  0.403   0.407   0.409   0.412   0.415   0.416   0.424   0.426
  0.429   0.431   0.437   0.449   0.452   0.453   0.459   0.460
  0.465   0.470   0.471   0.473   0.481   0.487   0.491   0.495
  0.500   0.507   0.515   0.516   0.520   0.523   0.528   0.530
  0.535   0.535   0.541   0.546   0.552   0.555   0.560   0.562
  0.563   0.568   0.569   0.573   0.578   0.584   0.591   0.595
  0.598   0.601   0.608   0.610   0.611   0.620   0.624   0.626
  0.627   0.633   0.637   0.643   0.650   0.655   0.660   0.663
  0.673   0.676   0.679   0.689   0.691   0.702   0.710   0.712
  0.716   0.720   0.728   0.733   0.739   0.748   0.796   0.804
  0.820   0.857   0.885   0.897   0.917   0.927   0.936   0.943
  0.957   0.966   0.977   0.982   0.995   0.998   1.003   1.006
  1.016   1.026   1.033   1.042   1.050   1.059   1.062   1.074
  1.082   1.083   1.088   1.095   1.105   1.111   1.114   1.122
  1.128   1.138   1.145   1.153   1.157   1.167   1.172   1.178
  1.193   1.204   1.212   1.226   1.228   1.229   1.232   1.248
  1.263   1.268   1.272   1.280   1.304   1.313   1.322   1.326
  1.345   1.350   1.353   1.363   1.375   1.378   1.383   1.398
  1.403   1.413   1.418   1.434   1.441   1.450   1.462   1.471
  1.479   1.487   1.499   1.511   1.516   1.530   1.533   1.541
  1.549   1.554   1.557   1.568   1.583   1.587   1.600   1.609
  1.628   1.631   1.636   1.649   1.658   1.664   1.670   1.675
  1.682   1.689   1.697   1.715   1.722   1.725   1.729   1.742
  1.745   1.760   1.768   1.785   1.786   1.791   1.798   1.805
  1.811   1.855   1.861   1.895   1.903   1.922   1.936   1.941
  1.977   1.985   1.999   2.015   2.018   2.031   2.047   2.055
  2.059   2.070   2.086   2.091   2.105   2.107   2.126   2.140
  2.144   2.156   2.165   2.166   2.169   2.174   2.177   2.184
  2.189   2.204   2.211   2.218   2.233   2.247   2.251   2.257
  2.260   2.272   2.275   2.284   2.287   2.302   2.305   2.315
  2.321   2.327   2.338   2.342   2.346   2.358   2.371   2.377
  2.385   2.389   2.414   2.423   2.428   2.443   2.448   2.456
  2.467   2.470   2.496   2.502   2.509   2.517   2.539   2.544
  2.555   2.563   2.570   2.580   2.591   2.616   2.633   2.642
  2.644   2.658   2.661   2.669   2.674   2.685   2.688   2.693
  2.711   2.716   2.727   2.738   2.751   2.758   2.773   2.782
  2.788   2.797   2.810   2.810   2.833   2.837   2.852   2.877
  2.879   2.894   2.897   2.911   2.936   2.971   2.991   2.994
  3.010   3.028   3.058   3.061   3.077   3.086   3.129   3.158
  3.187   3.196   3.210   3.239   3.266   3.295   3.311   3.335
  3.343   3.399   3.421   3.437   3.456   3.490   3.581   3.591
  3.678   3.683   3.692   3.699   3.920   3.924  60.007
 --------------------------------------------------------------
 
          Ground-State Mulliken Net Atomic Charges

     Atom                 Charge (a.u.)    Spin (a.u.)
  --------------------------------------------------------
      1 V                     1.472145       1.174228
      2 O                    -0.408112      -0.185390
      3 O                    -0.635287      -0.000573
      4 O                    -0.650387       0.013616
      5 O                    -0.669567       0.030119
      6 N                    -0.133984      -0.010892
      7 C                    -0.900547      -0.023245
      8 C                     0.876465      -0.018961
      9 C                    -0.246701       0.030356
     10 H                     0.279272      -0.001088
     11 C                    -0.766977      -0.028481
     12 C                     0.022887       0.032583
     13 H                     0.276721      -0.001315
     14 C                     0.808164      -0.006791
     15 C                    -0.657336       0.009593
     16 H                     0.287186      -0.001012
     17 H                     0.210545      -0.000159
     18 C                    -0.845479      -0.024504
     19 H                     0.214230       0.000275
     20 H                     0.260592       0.000558
     21 C                     1.443041       0.069657
     22 C                    -0.024157      -0.026828
     23 H                     0.273790       0.001107
     24 C                    -0.814568       0.024367
     25 C                    -0.496911      -0.024245
     26 H                     0.280494       0.000904
     27 C                     0.932796       0.006265
     28 C                    -0.742500      -0.033620
     29 C                    -0.357827       0.000694
     30 H                     0.202022      -0.000273
     31 H                     0.266780       0.000272
     32 C                    -0.200290      -0.008088
     33 H                     0.197595      -0.000602
     34 H                     0.175003       0.003578
     35 C                    -0.820069       0.000587
     36 H                     0.276755      -0.000759
     37 H                     0.214497      -0.000053
     38 H                     0.262405      -0.000753
     39 C                    -0.768101      -0.002586
     40 H                     0.269852       0.000656
     41 H                     0.213007       0.000062
     42 H                     0.264144       0.000701
     43 F                    -0.419986      -0.000151
     44 F                    -0.421603       0.000191
  --------------------------------------------------------
  Sum of atomic charges =    -1.000000
  Sum of spin   charges =     1.000000

 -----------------------------------------------------------------
                    Cartesian Multipole Moments
 -----------------------------------------------------------------
    Charge (ESU x 10^10)
                -4.8032
    Dipole Moment (Debye)
         X      -0.0073      Y       6.7633      Z       2.3092
       Tot       7.1466
    Quadrupole Moments (Debye-Ang)
        XX    -201.3025     XY      -0.7244     YY    -211.6882
        XZ      -0.0920     YZ       4.8156     ZZ    -158.7421
    Octapole Moments (Debye-Ang^2)
       XXX      31.4805    XXY    -135.6782    XYY      -6.5044
       YYY      68.1487    XXZ     -17.1088    XYZ       1.8659
       YYZ      20.3561    XZZ     -11.8526    YZZ       5.7961
       ZZZ       7.5148
    Hexadecapole Moments (Debye-Ang^3)
      XXXX   -8519.1394   XXXY     -41.4922   XXYY   -2157.1962
      XYYY      15.5497   YYYY   -3342.9188   XXXZ       0.0932
      XXYZ      42.6230   XYYZ      -8.1013   YYYZ      21.2960
      XXZZ   -1517.7569   XYZZ     -13.1926   YYZZ    -831.5745
      XZZZ      26.9561   YZZZ      -3.9924   ZZZZ   -1960.0402
 -----------------------------------------------------------------
 Total job time:  6065.82s(wall), 6057.13s(cpu) 
 Thu Jun 19 03:46:13 2014

        *************************************************************
        *                                                           *
        *  Thank you very much for using Q-Chem.  Have a nice day.  *
        *                                                           *
        *************************************************************


0 sent ACK to 0 
now end server 0 ... 
 
**********************************************************************
Job 2 of 3 
**********************************************************************
 
Process 0 of 1 is on cl132 - thread support 1
initial socket setup ...start
initial socket setup ...done 
now start server 0 ... 

cmd = /usr/bin/ssh clhead /usr/local/qchem/bin/get_hostid 959667663 > /tmp/1656822.1.medium.q/qchem2311/lic.dat

cmd = /usr/bin/ssh clhead /usr/local/qchem/bin/get_hostid 959667663 > /tmp/1656822.1.medium.q/qchem2311/lic.dat

cmd = /usr/bin/ssh clhead /usr/local/qchem/bin/get_hostid 959667663 > /tmp/1656822.1.medium.q/qchem2311/lic.dat

cmd = /usr/bin/ssh clhead /usr/local/qchem/bin/get_hostid 959667663 > /tmp/1656822.1.medium.q/qchem2311/lic.dat

cmd = /usr/bin/ssh clhead /usr/local/qchem/bin/get_hostid 959667663 > /tmp/1656822.1.medium.q/qchem2311/lic.dat
                  Welcome to Q-Chem
     A Quantum Leap Into The Future Of Chemistry

 Y. Shao, L. Fusti-Molnar, Y. Jung, J. Kussmann, C. Ochsenfeld,
 S. T. Brown, A. T. B. Gilbert, L. V. Slipchenko,S. V. Levchenko,
 D. P. O'Neill, R. A. DiStasio Jr., R. C. Lochan, T. Wang,
 G. J. O. Beran, N. A. Besley, J. M. Herbert, C. Y. Lin,
 T. Van Voorhis, S. H. Chien, A. Sodt, R. P. Steele, 
 V. A. Rassolov, P. E. Maslen, P. P. Korambath, R. D. Adamson,
 B. Austin, J. Baker, E. F. C. Byrd, H. Dachsel, R. J. Doerksen,
 A. Dreuw, B. D. Dunietz, A. D. Dutoi, T. R. Furlani,
 S. R. Gwaltney, A. Heyden, S. Hirata, C.-P. Hsu, G. Kedziora,
 R. Z. Khaliullin, P. Klunzinger, A. M. Lee, M. S. Lee, W. Liang,
 I. Lotan, N. Nair, B. Peters, E. I. Proynov, P. A. Pieniazek, 
 Y. M. Rhee, J. Ritchie, E. Rosta, C. D. Sherrill, 
 A. C. Simmonett, J. E. Subotnik, H. L. Woodcock III,
 W. Zhang, A. T. Bell, A. K. Chakraborty, D. M. Chipman,
 F. J. Keil, A. Warshel, W. J. Hehre, H. F. Schaefer III,
 J. Kong, A. I. Krylov, P. M. W. Gill, M. Head-Gordon,
 Q-Chem, Version 3.1, Q-Chem, Inc., Pittsburgh, PA (2007).

 Additional authors for Version 3.1: 
 Z. Gan, Y. Zhao, N. E. Schultz, D. Truhlar, E. Epifanovsky and M. Oana.

 Additional authors for Version 3.2: 
 R. Baer, B. R. Brooks, D. Casanova, J.-D. Chai, C.-L. Cheng, 
 C. Cramer, D. Crittenden, A. Ghysels, G. Hawkins, E. G. Hohenstein, 
 C. Kelley, W. Kurlancheek, D. Liotard, E. Livshits, P. Manohar, 
 A. Marenich, D. Neuhauser, R. Olson, M. A. Rohrdanz, K. S. Thanthiriwatte, 
 A. J. W. Thom, V. Vanovschi, C. F. Williams, Q. Wu and Z.-Q. You. 


 Intel X86 Linux Version

 Q-chem begins on Thu Jun 19 03:46:18 2014  

 Parallel job on  1  processors
Processing $rem in /usr/local/qchem/config/preferences.

theFileMan(): MAXOPENFILES=974 MAX_SUB_FILE_NUM=16
Maximum size of a physical file is 2.0 GB, maximum size of a tmp-file is 32.0 GB


--------------------------------------------------------------
User input:
--------------------------------------------------------------

$molecule
0,1
V          0.03260       -1.87320        0.09818
O          0.08873       -3.27638       -0.62065
O          1.24907       -0.93737       -0.82191
O         -1.67099       -1.39830       -0.24263
O          0.49449       -2.36647        1.74418
N         -0.02368        0.23115        1.40233
C          2.14182        0.05739       -0.66285
C          3.40342       -0.10882       -1.26990
C          4.34362        0.91251       -1.14203
H          5.32663        0.82280       -1.59544
C          4.01799        2.05215       -0.42324
C          2.78699        2.22282        0.18410
H          2.57712        3.13007        0.74342
C          1.82699        1.21595        0.06427
C          0.46421        1.40388        0.66368
H         -0.26259        1.60305       -0.13463
H          0.47015        2.29263        1.31597
C         -1.39942        0.47043        1.86935
H         -1.42383        1.34444        2.54032
H         -1.70591       -0.39897        2.46341
C         -2.37052        0.66322        0.74404
C         -3.22288        1.76787        0.70603
H         -3.18065        2.53542        1.47350
C         -4.12976        1.87214       -0.33320
C         -4.22295        0.92379       -1.34059
H         -4.95046        1.05384       -2.13687
C         -3.38091       -0.18759       -1.32108
C         -2.45395       -0.30661       -0.26577
C          0.84366       -0.12811        2.52662
H          0.70567        0.54488        3.38825
H          1.88257       -0.03991        2.19393
C          0.56706       -1.57165        2.90555
H          1.37227       -1.96242        3.53899
H         -0.37234       -1.68319        3.46345
C          3.70420       -1.36413       -2.03147
H          3.61777       -2.24648       -1.38674
H          4.71528       -1.33689       -2.44694
H          2.99382       -1.50644       -2.85375
C         -3.44577       -1.24467       -2.38155
H         -2.48927       -1.33437       -2.90962
H         -4.22458       -1.01669       -3.11448
H         -3.65572       -2.22774       -1.94488
F         -4.95714        2.94563       -0.37239
F          4.94455        3.03396       -0.30495
$end

$comment
neutral
$end

$xc_functional
C PBE   1.00
X wPBE  1.00
$end


$rem
SYMMETRY_DECOMPOSITION	0
LRC_DFT                 true
exchange 		general
BASIS                   gen
ECP                     lanl2dz
omega			2000
mem_static              760
max_scf_cycles          200
scf_final_print         1
sym_ignore              true
$end

$basis
   V 0
   lanl2dz
   ****
   O 0 
   6-31+G*
   ****
   N 0
   6-31+G*
   ****
   C 0
   6-31+G*
   ****
   H 0
   6-31+G*
   ****
   F 0
   6-31+G*
   ****
$end

--------------------------------------------------------------
 Writing REM_CC_EA           44
 ----------------------------------------------------
       Standard Nuclear Orientation (Angstroms)
    I     Atom         X            Y            Z
 ----------------------------------------------------
    1      V       0.032600    -1.873200     0.098180
    2      O       0.088730    -3.276380    -0.620650
    3      O       1.249070    -0.937370    -0.821910
    4      O      -1.670990    -1.398300    -0.242630
    5      O       0.494490    -2.366470     1.744180
    6      N      -0.023680     0.231150     1.402330
    7      C       2.141820     0.057390    -0.662850
    8      C       3.403420    -0.108820    -1.269900
    9      C       4.343620     0.912510    -1.142030
   10      H       5.326630     0.822800    -1.595440
   11      C       4.017990     2.052150    -0.423240
   12      C       2.786990     2.222820     0.184100
   13      H       2.577120     3.130070     0.743420
   14      C       1.826990     1.215950     0.064270
   15      C       0.464210     1.403880     0.663680
   16      H      -0.262590     1.603050    -0.134630
   17      H       0.470150     2.292630     1.315970
   18      C      -1.399420     0.470430     1.869350
   19      H      -1.423830     1.344440     2.540320
   20      H      -1.705910    -0.398970     2.463410
   21      C      -2.370520     0.663220     0.744040
   22      C      -3.222880     1.767870     0.706030
   23      H      -3.180650     2.535420     1.473500
   24      C      -4.129760     1.872140    -0.333200
   25      C      -4.222950     0.923790    -1.340590
   26      H      -4.950460     1.053840    -2.136870
   27      C      -3.380910    -0.187590    -1.321080
   28      C      -2.453950    -0.306610    -0.265770
   29      C       0.843660    -0.128110     2.526620
   30      H       0.705670     0.544880     3.388250
   31      H       1.882570    -0.039910     2.193930
   32      C       0.567060    -1.571650     2.905550
   33      H       1.372270    -1.962420     3.538990
   34      H      -0.372340    -1.683190     3.463450
   35      C       3.704200    -1.364130    -2.031470
   36      H       3.617770    -2.246480    -1.386740
   37      H       4.715280    -1.336890    -2.446940
   38      H       2.993820    -1.506440    -2.853750
   39      C      -3.445770    -1.244670    -2.381550
   40      H      -2.489270    -1.334370    -2.909620
   41      H      -4.224580    -1.016690    -3.114480
   42      H      -3.655720    -2.227740    -1.944880
   43      F      -4.957140     2.945630    -0.372390
   44      F       4.944550     3.033960    -0.304950
 ----------------------------------------------------
 Nuclear Repulsion Energy =  2631.8992343483 hartrees
 There are       98 alpha and       98 beta electrons

 Q-Chem warning in module BasisType.C, line 827:

 Setting pure/cartesian flag to 2111 for general basis


 Requested basis set is non-standard
 There are 169 shells and 508 basis functions

Total QAlloc Memory Limit   2000 MB
Mega-Array Size       743 MB
MEM_STATIC part       760 MB
 A cutoff of  1.0D-08 yielded   9221 shell pairs
 There are  90576 function pairs ( 98712 Cartesian)
Evaluating contribution to one-electron hamiltonian from nuclear
 Requested basis set is non-standard
 Compound shells will be simplified
Warning: Basis Set and ECP do not match
 There are 244 shells and 508 basis functions
 A cutoff of  1.0D-08 yielded  21038 shell pairs
 There are  90402 function pairs ( 98542 Cartesian)
 Smallest overlap matrix eigenvalue = 6.02E-07

 Q-Chem warning in module mkSTV.C, line 194:

 Overlap eigenvalue is smaller than square root of threshold

 Linear dependence detected in AO basis
 Number of orthogonalized atomic orbitals = 505
 Maximum deviation from orthogonality = 1.510E-10
 Multipole matrices computed through 2nd order

  Scale SEOQF with 1.000000e-02/1.000000e-01/1.000000e-01

 Standard Electronic Orientation quadrupole field applied
 Nucleus-field energy     =     0.0000000069 hartrees
 Guess MOs from core Hamiltonian diagonalization
 Long-range K will be added via erf
 Coulomb attenuation parameter = 2 bohr**(-1)
 A restricted Kohn-Sham SCF calculation will be
 performed using Pulay DIIS extrapolation
 Exchange:  wPBE + LR-HF      Correlation:  PBE
 Using SG-1 standard quadrature grid
 SCF converges when DIIS error is below 1.0E-05
 Requested basis set is non-standard
 There are 169 shells and 508 basis functions
 A cutoff of  1.0D-08 yielded   9221 shell pairs
 There are  90576 function pairs ( 98712 Cartesian)
 ---------------------------------------
  Cycle       Energy         DIIS Error
 ---------------------------------------
    1    -600.4289746078      8.01E-02
    2     290.4623240553      1.00E-01
    3    -835.8467239050      8.57E-02
    4    -989.6013080366      6.84E-02
    5    -994.8547534119      6.95E-02
    6   -1301.2287687991      1.81E-02
    7   -1212.3479722783      4.28E-02
    8   -1317.4274506049      1.21E-02
    9   -1321.8439690587      4.30E-03
   10   -1321.9131830830      4.72E-03
   11   -1322.3767145255      1.40E-03
   12   -1322.4295570062      2.18E-04
   13   -1322.4328684273      1.19E-04
   14   -1322.4341722883      6.76E-05
   15   -1322.4350790258      4.64E-05
   16   -1322.4355805656      3.20E-05
   17   -1322.4358872211      1.61E-05
   18   -1322.4359561556      9.83E-06 Convergence criterion met
 ---------------------------------------
 One-Electron    Energy = -7065.6082300189
 Total Coulomb   Energy =  3285.3254677215
 Alpha Exchange  Energy =   -53.8529225617
 Beta  Exchange  Energy =   -53.8529225617
 DFT   Exchange  Energy =   -59.5689568258
 DFT Correlation Energy =    -6.7776262643
 Nuclear Repu.   Energy =  2631.8992343552
 Nuclear Attr.   Energy = -8349.2431047753
 Kinetic         Energy =  1283.6348747564
 SCF time:  CPU 3773.09 s  wall 3787.55 s
 Final Alpha MO Eigenvalues
            1           2           3           4           5           6
    1 -25.2636316 -25.2626320 -19.7883977 -19.7758673 -19.7721863 -19.7681534
            7           8           9          10          11          12
    1 -15.0220118 -10.9289959 -10.9276733 -10.9084874 -10.9072012 -10.8931713
           13          14          15          16          17          18
    1 -10.8847262 -10.8799576 -10.8735235 -10.8616364 -10.8596732 -10.8565504
           19          20          21          22          23          24
    1 -10.8555630 -10.8479372 -10.8474419 -10.8428337 -10.8427902 -10.8127295
           25          26          27          28          29          30
    1 -10.8121265  -3.4262396  -2.3096092  -2.2947008  -2.2934789  -1.6488257
           31          32          33          34          35          36
    1  -1.6475244  -1.4171865  -1.4102072  -1.3864630  -1.3214326  -1.2803055
           37          38          39          40          41          42
    1  -1.2120575  -1.2085450  -1.1284344  -1.1180126  -1.0789533  -1.0757720
           43          44          45          46          47          48
    1  -1.0490962  -1.0060082  -0.9883968  -0.9872411  -0.9546971  -0.8954704
           49          50          51          52          53          54
    1  -0.8778800  -0.8712801  -0.8660989  -0.8514243  -0.7808318  -0.7759929
           55          56          57          58          59          60
    1  -0.7707255  -0.7673342  -0.7582394  -0.7565018  -0.7364557  -0.7321324
           61          62          63          64          65          66
    1  -0.7307968  -0.7289436  -0.7214838  -0.6883463  -0.6790883  -0.6689910
           67          68          69          70          71          72
    1  -0.6614102  -0.6574732  -0.6514888  -0.6472322  -0.6449306  -0.6387501
           73          74          75          76          77          78
    1  -0.6325446  -0.6263680  -0.6194742  -0.6109662  -0.6094569  -0.6032223
           79          80          81          82          83          84
    1  -0.5987261  -0.5970082  -0.5899260  -0.5852201  -0.5796888  -0.5693036
           85          86          87          88          89          90
    1  -0.5684309  -0.5616038  -0.5493023  -0.5275532  -0.5232894  -0.5211181
           91          92          93          94          95          96
    1  -0.5038964  -0.5019343  -0.4980387  -0.4526663  -0.3976286  -0.3879881
           97          98          99         100         101         102
    1  -0.3627339  -0.3558579  -0.0106206  -0.0040832   0.0273919   0.0318502
          103
    1   0.0415997
 Analysis of SCF Wavefunction
 
 --------------------------------------------------------------
                    Orbital Energies (a.u.)
 --------------------------------------------------------------
 
 Alpha MOs
 -- Occupied --
-25.264 -25.263 -19.788 -19.776 -19.772 -19.768 -15.022 -10.929
-10.928 -10.908 -10.907 -10.893 -10.885 -10.880 -10.874 -10.862
-10.860 -10.857 -10.856 -10.848 -10.847 -10.843 -10.843 -10.813
-10.812  -3.426  -2.310  -2.295  -2.293  -1.649  -1.648  -1.417
 -1.410  -1.386  -1.321  -1.280  -1.212  -1.209  -1.128  -1.118
 -1.079  -1.076  -1.049  -1.006  -0.988  -0.987  -0.955  -0.895
 -0.878  -0.871  -0.866  -0.851  -0.781  -0.776  -0.771  -0.767
 -0.758  -0.757  -0.736  -0.732  -0.731  -0.729  -0.721  -0.688
 -0.679  -0.669  -0.661  -0.657  -0.651  -0.647  -0.645  -0.639
 -0.633  -0.626  -0.619  -0.611  -0.609  -0.603  -0.599  -0.597
 -0.590  -0.585  -0.580  -0.569  -0.568  -0.562  -0.549  -0.528
 -0.523  -0.521  -0.504  -0.502  -0.498  -0.453  -0.398  -0.388
 -0.363  -0.356
 -- Virtual --
 -0.011  -0.004   0.027   0.032   0.042   0.048   0.050   0.054
  0.058   0.064   0.071   0.074   0.077   0.079   0.083   0.086
  0.092   0.095   0.096   0.102   0.104   0.105   0.108   0.119
  0.122   0.125   0.129   0.131   0.135   0.139   0.141   0.144
  0.151   0.155   0.160   0.161   0.166   0.170   0.174   0.177
  0.181   0.184   0.189   0.191   0.199   0.204   0.207   0.210
  0.215   0.217   0.222   0.226   0.227   0.234   0.235   0.236
  0.241   0.246   0.247   0.251   0.253   0.258   0.260   0.263
  0.268   0.269   0.277   0.280   0.283   0.287   0.290   0.294
  0.297   0.299   0.303   0.306   0.310   0.314   0.318   0.319
  0.322   0.326   0.326   0.334   0.335   0.340   0.346   0.349
  0.352   0.355   0.357   0.360   0.369   0.370   0.379   0.383
  0.385   0.392   0.396   0.399   0.400   0.403   0.409   0.413
  0.414   0.416   0.422   0.427   0.434   0.437   0.441   0.447
  0.450   0.453   0.456   0.460   0.466   0.469   0.473   0.477
  0.480   0.481   0.486   0.487   0.495   0.501   0.502   0.509
  0.511   0.516   0.522   0.523   0.528   0.533   0.536   0.541
  0.547   0.549   0.556   0.560   0.568   0.572   0.578   0.582
  0.586   0.594   0.610   0.611   0.623   0.631   0.644   0.656
  0.667   0.698   0.740   0.750   0.768   0.787   0.791   0.813
  0.814   0.835   0.841   0.868   0.872   0.885   0.889   0.894
  0.897   0.901   0.913   0.919   0.930   0.934   0.945   0.952
  0.961   0.968   0.973   0.978   0.984   0.992   0.997   0.997
  1.012   1.018   1.025   1.031   1.036   1.046   1.051   1.058
  1.069   1.075   1.088   1.104   1.110   1.116   1.119   1.131
  1.147   1.156   1.158   1.160   1.176   1.186   1.197   1.200
  1.220   1.231   1.233   1.239   1.254   1.260   1.267   1.276
  1.286   1.300   1.305   1.317   1.325   1.330   1.340   1.349
  1.359   1.365   1.374   1.387   1.394   1.411   1.418   1.423
  1.426   1.432   1.435   1.437   1.458   1.470   1.473   1.478
  1.499   1.502   1.508   1.517   1.527   1.529   1.539   1.545
  1.555   1.563   1.567   1.577   1.578   1.589   1.602   1.605
  1.609   1.614   1.624   1.626   1.633   1.647   1.664   1.675
  1.679   1.699   1.700   1.729   1.762   1.767   1.787   1.797
  1.819   1.832   1.840   1.870   1.896   1.920   1.923   1.925
  1.942   1.947   1.964   1.973   1.990   1.996   2.002   2.010
  2.013   2.017   2.026   2.032   2.047   2.053   2.058   2.065
  2.071   2.073   2.076   2.086   2.100   2.104   2.115   2.122
  2.133   2.138   2.147   2.149   2.159   2.164   2.176   2.179
  2.188   2.194   2.210   2.214   2.221   2.222   2.233   2.236
  2.241   2.252   2.254   2.263   2.269   2.288   2.293   2.311
  2.321   2.333   2.348   2.359   2.361   2.380   2.392   2.402
  2.412   2.421   2.435   2.439   2.451   2.472   2.487   2.502
  2.506   2.527   2.531   2.541   2.546   2.566   2.567   2.576
  2.584   2.590   2.596   2.608   2.622   2.629   2.652   2.661
  2.667   2.672   2.684   2.688   2.695   2.709   2.714   2.734
  2.740   2.776   2.778   2.783   2.801   2.842   2.864   2.868
  2.880   2.896   2.938   2.942   2.956   2.961   3.009   3.036
  3.066   3.068   3.080   3.115   3.140   3.171   3.192   3.197
  3.216   3.257   3.286   3.314   3.332   3.366   3.435   3.446
  3.558   3.566   3.577   3.580   3.801   3.805  59.682
 --------------------------------------------------------------
 
          Ground-State Mulliken Net Atomic Charges

     Atom                 Charge (a.u.)
  ----------------------------------------
      1 V                     1.483987
      2 O                    -0.148260
      3 O                    -0.580364
      4 O                    -0.593134
      5 O                    -0.574101
      6 N                    -0.221608
      7 C                    -0.945814
      8 C                     0.858641
      9 C                    -0.216324
     10 H                     0.306869
     11 C                    -0.768452
     12 C                     0.028930
     13 H                     0.299674
     14 C                     0.828980
     15 C                    -0.585739
     16 H                     0.302828
     17 H                     0.241914
     18 C                    -0.740614
     19 H                     0.247476
     20 H                     0.267283
     21 C                     1.434565
     22 C                    -0.005544
     23 H                     0.296710
     24 C                    -0.812455
     25 C                    -0.493730
     26 H                     0.308485
     27 C                     0.885347
     28 C                    -0.756794
     29 C                    -0.328243
     30 H                     0.244939
     31 H                     0.288837
     32 C                    -0.230603
     33 H                     0.252098
     34 H                     0.224669
     35 C                    -0.820723
     36 H                     0.269296
     37 H                     0.246796
     38 H                     0.269244
     39 C                    -0.751527
     40 H                     0.267366
     41 H                     0.245016
     42 H                     0.270177
     43 F                    -0.397232
     44 F                    -0.398865
  ----------------------------------------
  Sum of atomic charges =     0.000000

 -----------------------------------------------------------------
                    Cartesian Multipole Moments
 -----------------------------------------------------------------
    Charge (ESU x 10^10)
                 0.0000
    Dipole Moment (Debye)
         X       0.2755      Y       1.7601      Z       3.0887
       Tot       3.5657
    Quadrupole Moments (Debye-Ang)
        XX    -168.5125     XY      -1.8330     YY    -180.2614
        XZ       0.8971     YZ       4.8158     ZZ    -141.4933
    Octapole Moments (Debye-Ang^2)
       XXX      30.7292    XXY    -104.2285    XYY      -2.0918
       YYY      15.1912    XXZ     -45.3056    XYZ      -1.1702
       YYZ      20.7548    XZZ      -9.5689    YZZ      -9.1149
       ZZZ      30.7112
    Hexadecapole Moments (Debye-Ang^3)
      XXXX   -7797.2469   XXXY     -51.6900   XXYY   -2004.3974
      XYYY      11.5677   YYYY   -3000.3195   XXXZ      -1.7554
      XXYZ      42.7487   XYYZ      -4.2531   YYYZ      37.5364
      XXZZ   -1400.9350   XYZZ     -24.8472   YYZZ    -761.7489
      XZZZ      50.7201   YZZZ     -26.5800   ZZZZ   -1770.7198
 -----------------------------------------------------------------
 Total job time:  3790.38s(wall), 3775.88s(cpu) 
 Thu Jun 19 04:49:29 2014

        *************************************************************
        *                                                           *
        *  Thank you very much for using Q-Chem.  Have a nice day.  *
        *                                                           *
        *************************************************************


0 sent ACK to 0 
now end server 0 ... 
 
**********************************************************************
Job 3 of 3 
**********************************************************************
 
Process 0 of 1 is on cl132 - thread support 1
initial socket setup ...start
initial socket setup ...done 
now start server 0 ... 

cmd = /usr/bin/ssh clhead /usr/local/qchem/bin/get_hostid 770380431 > /tmp/1656822.1.medium.q/qchem2311/lic.dat

cmd = /usr/bin/ssh clhead /usr/local/qchem/bin/get_hostid 770380431 > /tmp/1656822.1.medium.q/qchem2311/lic.dat

cmd = /usr/bin/ssh clhead /usr/local/qchem/bin/get_hostid 770380431 > /tmp/1656822.1.medium.q/qchem2311/lic.dat

cmd = /usr/bin/ssh clhead /usr/local/qchem/bin/get_hostid 770380431 > /tmp/1656822.1.medium.q/qchem2311/lic.dat

cmd = /usr/bin/ssh clhead /usr/local/qchem/bin/get_hostid 770380431 > /tmp/1656822.1.medium.q/qchem2311/lic.dat
                  Welcome to Q-Chem
     A Quantum Leap Into The Future Of Chemistry

 Y. Shao, L. Fusti-Molnar, Y. Jung, J. Kussmann, C. Ochsenfeld,
 S. T. Brown, A. T. B. Gilbert, L. V. Slipchenko,S. V. Levchenko,
 D. P. O'Neill, R. A. DiStasio Jr., R. C. Lochan, T. Wang,
 G. J. O. Beran, N. A. Besley, J. M. Herbert, C. Y. Lin,
 T. Van Voorhis, S. H. Chien, A. Sodt, R. P. Steele, 
 V. A. Rassolov, P. E. Maslen, P. P. Korambath, R. D. Adamson,
 B. Austin, J. Baker, E. F. C. Byrd, H. Dachsel, R. J. Doerksen,
 A. Dreuw, B. D. Dunietz, A. D. Dutoi, T. R. Furlani,
 S. R. Gwaltney, A. Heyden, S. Hirata, C.-P. Hsu, G. Kedziora,
 R. Z. Khaliullin, P. Klunzinger, A. M. Lee, M. S. Lee, W. Liang,
 I. Lotan, N. Nair, B. Peters, E. I. Proynov, P. A. Pieniazek, 
 Y. M. Rhee, J. Ritchie, E. Rosta, C. D. Sherrill, 
 A. C. Simmonett, J. E. Subotnik, H. L. Woodcock III,
 W. Zhang, A. T. Bell, A. K. Chakraborty, D. M. Chipman,
 F. J. Keil, A. Warshel, W. J. Hehre, H. F. Schaefer III,
 J. Kong, A. I. Krylov, P. M. W. Gill, M. Head-Gordon,
 Q-Chem, Version 3.1, Q-Chem, Inc., Pittsburgh, PA (2007).

 Additional authors for Version 3.1: 
 Z. Gan, Y. Zhao, N. E. Schultz, D. Truhlar, E. Epifanovsky and M. Oana.

 Additional authors for Version 3.2: 
 R. Baer, B. R. Brooks, D. Casanova, J.-D. Chai, C.-L. Cheng, 
 C. Cramer, D. Crittenden, A. Ghysels, G. Hawkins, E. G. Hohenstein, 
 C. Kelley, W. Kurlancheek, D. Liotard, E. Livshits, P. Manohar, 
 A. Marenich, D. Neuhauser, R. Olson, M. A. Rohrdanz, K. S. Thanthiriwatte, 
 A. J. W. Thom, V. Vanovschi, C. F. Williams, Q. Wu and Z.-Q. You. 


 Intel X86 Linux Version

 Q-chem begins on Thu Jun 19 04:49:33 2014  

 Parallel job on  1  processors
Processing $rem in /usr/local/qchem/config/preferences.

theFileMan(): MAXOPENFILES=974 MAX_SUB_FILE_NUM=16
Maximum size of a physical file is 2.0 GB, maximum size of a tmp-file is 32.0 GB


--------------------------------------------------------------
User input:
--------------------------------------------------------------

$molecule
1,2
V          0.03260       -1.87320        0.09818
O          0.08873       -3.27638       -0.62065
O          1.24907       -0.93737       -0.82191
O         -1.67099       -1.39830       -0.24263
O          0.49449       -2.36647        1.74418
N         -0.02368        0.23115        1.40233
C          2.14182        0.05739       -0.66285
C          3.40342       -0.10882       -1.26990
C          4.34362        0.91251       -1.14203
H          5.32663        0.82280       -1.59544
C          4.01799        2.05215       -0.42324
C          2.78699        2.22282        0.18410
H          2.57712        3.13007        0.74342
C          1.82699        1.21595        0.06427
C          0.46421        1.40388        0.66368
H         -0.26259        1.60305       -0.13463
H          0.47015        2.29263        1.31597
C         -1.39942        0.47043        1.86935
H         -1.42383        1.34444        2.54032
H         -1.70591       -0.39897        2.46341
C         -2.37052        0.66322        0.74404
C         -3.22288        1.76787        0.70603
H         -3.18065        2.53542        1.47350
C         -4.12976        1.87214       -0.33320
C         -4.22295        0.92379       -1.34059
H         -4.95046        1.05384       -2.13687
C         -3.38091       -0.18759       -1.32108
C         -2.45395       -0.30661       -0.26577
C          0.84366       -0.12811        2.52662
H          0.70567        0.54488        3.38825
H          1.88257       -0.03991        2.19393
C          0.56706       -1.57165        2.90555
H          1.37227       -1.96242        3.53899
H         -0.37234       -1.68319        3.46345
C          3.70420       -1.36413       -2.03147
H          3.61777       -2.24648       -1.38674
H          4.71528       -1.33689       -2.44694
H          2.99382       -1.50644       -2.85375
C         -3.44577       -1.24467       -2.38155
H         -2.48927       -1.33437       -2.90962
H         -4.22458       -1.01669       -3.11448
H         -3.65572       -2.22774       -1.94488
F         -4.95714        2.94563       -0.37239
F          4.94455        3.03396       -0.30495
$end

$comment
positive
$end

$xc_functional
C PBE   1.00
X wPBE  1.00
$end

$rem
SYMMETRY_DECOMPOSITION	0
LRC_DFT                 true
exchange 		general
BASIS                   gen
ECP                     lanl2dz
omega			2000
mem_static              760
max_scf_cycles          200
scf_final_print         1
sym_ignore              true
$end

$basis
   V 0
   lanl2dz
   ****
   O 0 
   6-31+G*
   ****
   N 0
   6-31+G*
   ****
   C 0
   6-31+G*
   ****
   H 0
   6-31+G*
   ****
   F 0
   6-31+G*
   ****
$end
--------------------------------------------------------------
 Writing REM_CC_EA           44
 ----------------------------------------------------
       Standard Nuclear Orientation (Angstroms)
    I     Atom         X            Y            Z
 ----------------------------------------------------
    1      V       0.032600    -1.873200     0.098180
    2      O       0.088730    -3.276380    -0.620650
    3      O       1.249070    -0.937370    -0.821910
    4      O      -1.670990    -1.398300    -0.242630
    5      O       0.494490    -2.366470     1.744180
    6      N      -0.023680     0.231150     1.402330
    7      C       2.141820     0.057390    -0.662850
    8      C       3.403420    -0.108820    -1.269900
    9      C       4.343620     0.912510    -1.142030
   10      H       5.326630     0.822800    -1.595440
   11      C       4.017990     2.052150    -0.423240
   12      C       2.786990     2.222820     0.184100
   13      H       2.577120     3.130070     0.743420
   14      C       1.826990     1.215950     0.064270
   15      C       0.464210     1.403880     0.663680
   16      H      -0.262590     1.603050    -0.134630
   17      H       0.470150     2.292630     1.315970
   18      C      -1.399420     0.470430     1.869350
   19      H      -1.423830     1.344440     2.540320
   20      H      -1.705910    -0.398970     2.463410
   21      C      -2.370520     0.663220     0.744040
   22      C      -3.222880     1.767870     0.706030
   23      H      -3.180650     2.535420     1.473500
   24      C      -4.129760     1.872140    -0.333200
   25      C      -4.222950     0.923790    -1.340590
   26      H      -4.950460     1.053840    -2.136870
   27      C      -3.380910    -0.187590    -1.321080
   28      C      -2.453950    -0.306610    -0.265770
   29      C       0.843660    -0.128110     2.526620
   30      H       0.705670     0.544880     3.388250
   31      H       1.882570    -0.039910     2.193930
   32      C       0.567060    -1.571650     2.905550
   33      H       1.372270    -1.962420     3.538990
   34      H      -0.372340    -1.683190     3.463450
   35      C       3.704200    -1.364130    -2.031470
   36      H       3.617770    -2.246480    -1.386740
   37      H       4.715280    -1.336890    -2.446940
   38      H       2.993820    -1.506440    -2.853750
   39      C      -3.445770    -1.244670    -2.381550
   40      H      -2.489270    -1.334370    -2.909620
   41      H      -4.224580    -1.016690    -3.114480
   42      H      -3.655720    -2.227740    -1.944880
   43      F      -4.957140     2.945630    -0.372390
   44      F       4.944550     3.033960    -0.304950
 ----------------------------------------------------
 Nuclear Repulsion Energy =  2631.8992343483 hartrees
 There are       98 alpha and       97 beta electrons

 Q-Chem warning in module BasisType.C, line 827:

 Setting pure/cartesian flag to 2111 for general basis


 Requested basis set is non-standard
 There are 169 shells and 508 basis functions

Total QAlloc Memory Limit   2000 MB
Mega-Array Size       743 MB
MEM_STATIC part       760 MB
 A cutoff of  1.0D-08 yielded   9221 shell pairs
 There are  90576 function pairs ( 98712 Cartesian)
Evaluating contribution to one-electron hamiltonian from nuclear
 Requested basis set is non-standard
 Compound shells will be simplified
Warning: Basis Set and ECP do not match
 There are 244 shells and 508 basis functions
 A cutoff of  1.0D-08 yielded  21038 shell pairs
 There are  90402 function pairs ( 98542 Cartesian)
 Smallest overlap matrix eigenvalue = 6.02E-07

 Q-Chem warning in module mkSTV.C, line 194:

 Overlap eigenvalue is smaller than square root of threshold

 Linear dependence detected in AO basis
 Number of orthogonalized atomic orbitals = 505
 Maximum deviation from orthogonality = 1.510E-10
 Multipole matrices computed through 2nd order

  Scale SEOQF with 1.000000e-02/1.000000e-01/1.000000e-01

 Standard Electronic Orientation quadrupole field applied
 Nucleus-field energy     =     0.0000000069 hartrees
 Guess MOs from core Hamiltonian diagonalization
 Long-range K will be added via erf
 Coulomb attenuation parameter = 2 bohr**(-1)
 An unrestricted Kohn-Sham SCF calculation will be
 performed using Pulay DIIS extrapolation
 Exchange:  wPBE + LR-HF      Correlation:  PBE
 Using SG-1 standard quadrature grid
 SCF converges when DIIS error is below 1.0E-05
 Requested basis set is non-standard
 There are 169 shells and 508 basis functions
 A cutoff of  1.0D-08 yielded   9221 shell pairs
 There are  90576 function pairs ( 98712 Cartesian)
 ---------------------------------------
  Cycle       Energy         DIIS Error
 ---------------------------------------
    1    -610.8927284833      7.86E-02
    2     226.1512315474      1.00E-01
    3    -837.1920143316      7.85E-02
    4    -968.5578479559      7.13E-02
    5   -1130.7914192461      5.41E-02
    6   -1190.0743983298      4.42E-02
    7   -1201.8751207097      4.42E-02
    8   -1229.0259641060      3.46E-02
    9   -1261.2887773460      2.71E-02
   10   -1319.3571892402      9.20E-03
   11   -1311.9419296437      1.88E-02
   12   -1321.7845884649      2.93E-03
   13   -1322.0187980923      1.27E-03
   14   -1322.0787277133      6.05E-04
   15   -1322.0936428500      2.61E-04
   16   -1322.0980209288      1.44E-04
   17   -1322.1004084920      6.10E-05
   18   -1322.1017365555      4.66E-05
   19   -1322.1031527056      4.53E-05
   20   -1322.1040734335      4.51E-05
   21   -1322.1038256885      4.49E-05
   22   -1322.1031605848      4.38E-05
   23   -1322.1045331951      4.25E-05
   24   -1322.1054760748      4.43E-05
   25   -1322.1055159074      4.43E-05
   26   -1322.1053347283      4.43E-05
   27   -1322.1038435876      4.52E-05
   28   -1322.1052396729      4.54E-05
   29   -1322.1059663078      4.40E-05
   30   -1322.1066051296      4.34E-05
   31   -1322.1035058024      4.13E-05
   32   -1322.0967328342      7.58E-05
   33   -1322.0974247959      7.46E-05
   34   -1322.0971589197      7.04E-05
   35   -1322.0963991881      4.23E-05
   36   -1322.0956333056      2.55E-05
   37   -1322.0954219271      1.34E-05
   38   -1322.0953820643      1.00E-05
   39   -1322.0953763006      1.08E-05
   40   -1322.0953894882      1.45E-05
   41   -1322.0954201967      1.46E-05
   42   -1322.0954227029      1.45E-05
   43   -1322.0954199389      1.38E-05
   44   -1322.0953768125      2.16E-05
   45   -1322.0954608017      1.62E-05
   46   -1322.0956263856      1.01E-05
   47   -1322.0957110856      7.95E-06 Convergence criterion met
 ---------------------------------------
 One-Electron    Energy = -7040.1287281220
 Total Coulomb   Energy =  3259.8844808183
 Alpha Exchange  Energy =   -53.9150585343
 Beta  Exchange  Energy =   -53.5334378170
 DFT   Exchange  Energy =   -59.5680352908
 DFT Correlation Energy =    -6.7341664950
 Nuclear Repu.   Energy =  2631.8992343552
 Nuclear Attr.   Energy = -8323.6906946904
 Kinetic         Energy =  1283.5619665685
 <S^2> = 0.8362
 SCF time:  CPU 10578.53 s  wall 10597.91 s
 Final Alpha MO Eigenvalues
            1           2           3           4           5           6
    1 -25.4250385 -25.3428313 -19.9121058 -19.9039921 -19.8789542 -19.8789515
            7           8           9          10          11          12
    1 -15.1487692 -11.1116414 -11.0850852 -11.0830749 -11.0781684 -11.0751764
           13          14          15          16          17          18
    1 -11.0676349 -11.0308042 -11.0165105 -11.0021031 -10.9995739 -10.9947244
           19          20          21          22          23          24
    1 -10.9918700 -10.9712520 -10.9560118 -10.9453862 -10.9388964 -10.9300282
           25          26          27          28          29          30
    1 -10.8938531  -3.5392113  -2.4230275  -2.4082674  -2.4064584  -1.8084561
           31          32          33          34          35          36
    1  -1.7274241  -1.5621779  -1.5161566  -1.4970439  -1.4512553  -1.4233456
           37          38          39          40          41          42
    1  -1.3916748  -1.3342725  -1.3021575  -1.2583806  -1.2198121  -1.1973382
           43          44          45          46          47          48
    1  -1.1743359  -1.1653391  -1.1340440  -1.0815850  -1.0746907  -1.0585012
           49          50          51          52          53          54
    1  -1.0483277  -0.9965993  -0.9688810  -0.9593720  -0.9546216  -0.9466830
           55          56          57          58          59          60
    1  -0.9218098  -0.8932063  -0.8804197  -0.8713108  -0.8662507  -0.8565698
           61          62          63          64          65          66
    1  -0.8500807  -0.8443888  -0.8344888  -0.8337054  -0.8175481  -0.8149156
           67          68          69          70          71          72
    1  -0.8108409  -0.8091365  -0.7813084  -0.7721710  -0.7673148  -0.7611937
           73          74          75          76          77          78
    1  -0.7552647  -0.7481061  -0.7447262  -0.7398931  -0.7370956  -0.7338448
           79          80          81          82          83          84
    1  -0.7267968  -0.7192568  -0.7161790  -0.7098593  -0.7029297  -0.6976449
           85          86          87          88          89          90
    1  -0.6892518  -0.6818985  -0.6645727  -0.6518750  -0.6449022  -0.6356905
           91          92          93          94          95          96
    1  -0.6178201  -0.6137845  -0.6109935  -0.6064086  -0.5746237  -0.5376362
           97          98          99         100         101         102
    1  -0.4835085  -0.4511367  -0.1556168  -0.1276435  -0.1195293  -0.0933765
          103
    1  -0.0817507
 Final Beta MO Eigenvalues
            1           2           3           4           5           6
    1 -25.4255890 -25.3428365 -19.9126166 -19.9041461 -19.8790118 -19.8789383
            7           8           9          10          11          12
    1 -15.1484141 -11.1159477 -11.0887886 -11.0767660 -11.0717056 -11.0695754
           13          14          15          16          17          18
    1 -11.0622147 -11.0313669 -11.0165343 -11.0020550 -10.9995887 -10.9945995
           19          20          21          22          23          24
    1 -10.9918948 -10.9715508 -10.9559935 -10.9454148 -10.9388743 -10.9299874
           25          26          27          28          29          30
    1 -10.8938520  -3.5393281  -2.4227977  -2.4082909  -2.4070995  -1.8107033
           31          32          33          34          35          36
    1  -1.7274402  -1.5643493  -1.5162950  -1.4969468  -1.4480198  -1.4021249
           37          38          39          40          41          42
    1  -1.3922416  -1.3046396  -1.2972697  -1.2564769  -1.2194813  -1.1905079
           43          44          45          46          47          48
    1  -1.1694525  -1.1636427  -1.1328056  -1.0785393  -1.0745059  -1.0524740
           49          50          51          52          53          54
    1  -1.0409799  -0.9958737  -0.9677896  -0.9589482  -0.9515485  -0.9438618
           55          56          57          58          59          60
    1  -0.9185805  -0.8963228  -0.8780872  -0.8696557  -0.8653923  -0.8542382
           61          62          63          64          65          66
    1  -0.8466157  -0.8414425  -0.8331156  -0.8309265  -0.8130526  -0.8121991
           67          68          69          70          71          72
    1  -0.8098535  -0.8002155  -0.7784421  -0.7701636  -0.7662944  -0.7564462
           73          74          75          76          77          78
    1  -0.7507410  -0.7458132  -0.7433413  -0.7383641  -0.7362096  -0.7327077
           79          80          81          82          83          84
    1  -0.7194760  -0.7183569  -0.7115033  -0.7029790  -0.6971436  -0.6894550
           85          86          87          88          89          90
    1  -0.6826246  -0.6647169  -0.6609560  -0.6517724  -0.6450598  -0.6177035
           91          92          93          94          95          96
    1  -0.6144004  -0.6111296  -0.6068393  -0.5742776  -0.5457671  -0.4833477
           97          98          99         100         101         102
    1  -0.4509312  -0.2898394  -0.1253000  -0.1189349  -0.0890011  -0.0814556
 Analysis of SCF Wavefunction
 
 --------------------------------------------------------------
                    Orbital Energies (a.u.)
 --------------------------------------------------------------
 
 Alpha MOs
 -- Occupied --
-25.425 -25.343 -19.912 -19.904 -19.879 -19.879 -15.149 -11.112
-11.085 -11.083 -11.078 -11.075 -11.068 -11.031 -11.017 -11.002
-11.000 -10.995 -10.992 -10.971 -10.956 -10.945 -10.939 -10.930
-10.894  -3.539  -2.423  -2.408  -2.406  -1.808  -1.727  -1.562
 -1.516  -1.497  -1.451  -1.423  -1.392  -1.334  -1.302  -1.258
 -1.220  -1.197  -1.174  -1.165  -1.134  -1.082  -1.075  -1.059
 -1.048  -0.997  -0.969  -0.959  -0.955  -0.947  -0.922  -0.893
 -0.880  -0.871  -0.866  -0.857  -0.850  -0.844  -0.834  -0.834
 -0.818  -0.815  -0.811  -0.809  -0.781  -0.772  -0.767  -0.761
 -0.755  -0.748  -0.745  -0.740  -0.737  -0.734  -0.727  -0.719
 -0.716  -0.710  -0.703  -0.698  -0.689  -0.682  -0.665  -0.652
 -0.645  -0.636  -0.618  -0.614  -0.611  -0.606  -0.575  -0.538
 -0.484  -0.451
 -- Virtual --
 -0.156  -0.128  -0.120  -0.093  -0.082  -0.065  -0.062  -0.050
 -0.046  -0.036  -0.032  -0.029  -0.027  -0.023  -0.017  -0.014
 -0.007  -0.005   0.001   0.004   0.008   0.014   0.015   0.020
  0.020   0.028   0.032   0.037   0.040   0.045   0.048   0.052
  0.053   0.059   0.062   0.066   0.068   0.074   0.075   0.078
  0.083   0.087   0.088   0.092   0.095   0.100   0.104   0.105
  0.109   0.112   0.114   0.120   0.123   0.126   0.129   0.131
  0.136   0.138   0.143   0.144   0.146   0.154   0.156   0.160
  0.163   0.167   0.168   0.170   0.175   0.177   0.181   0.183
  0.188   0.191   0.196   0.198   0.205   0.207   0.208   0.211
  0.219   0.221   0.222   0.225   0.228   0.231   0.234   0.235
  0.241   0.244   0.246   0.253   0.256   0.257   0.260   0.265
  0.269   0.278   0.282   0.284   0.286   0.294   0.299   0.300
  0.304   0.307   0.316   0.318   0.324   0.328   0.332   0.335
  0.339   0.344   0.347   0.350   0.353   0.356   0.360   0.364
  0.371   0.373   0.375   0.381   0.383   0.387   0.394   0.397
  0.399   0.402   0.406   0.408   0.414   0.419   0.426   0.429
  0.435   0.442   0.445   0.449   0.453   0.455   0.459   0.463
  0.474   0.478   0.483   0.503   0.514   0.531   0.537   0.547
  0.547   0.589   0.604   0.631   0.634   0.644   0.668   0.673
  0.680   0.691   0.708   0.712   0.729   0.738   0.741   0.754
  0.770   0.783   0.789   0.795   0.800   0.801   0.809   0.814
  0.826   0.828   0.839   0.846   0.856   0.858   0.870   0.882
  0.885   0.893   0.899   0.908   0.912   0.923   0.927   0.936
  0.942   0.946   0.954   0.962   0.974   0.979   0.990   1.004
  1.015   1.029   1.047   1.057   1.062   1.068   1.081   1.084
  1.087   1.097   1.100   1.112   1.123   1.133   1.147   1.151
  1.154   1.168   1.172   1.178   1.208   1.211   1.217   1.226
  1.228   1.241   1.244   1.250   1.267   1.271   1.277   1.288
  1.295   1.308   1.310   1.323   1.336   1.338   1.344   1.350
  1.357   1.366   1.379   1.386   1.389   1.403   1.405   1.414
  1.420   1.426   1.433   1.442   1.449   1.461   1.470   1.474
  1.481   1.493   1.498   1.506   1.514   1.521   1.538   1.552
  1.564   1.569   1.594   1.610   1.631   1.645   1.663   1.679
  1.694   1.706   1.729   1.753   1.770   1.773   1.792   1.802
  1.821   1.831   1.843   1.845   1.850   1.865   1.867   1.871
  1.885   1.894   1.902   1.904   1.913   1.927   1.931   1.935
  1.941   1.954   1.959   1.964   1.971   1.975   1.989   1.990
  2.001   2.001   2.012   2.014   2.028   2.032   2.043   2.049
  2.060   2.063   2.070   2.077   2.087   2.091   2.110   2.121
  2.124   2.130   2.134   2.138   2.154   2.170   2.172   2.184
  2.187   2.208   2.214   2.222   2.239   2.246   2.262   2.264
  2.276   2.291   2.310   2.315   2.323   2.341   2.348   2.356
  2.371   2.382   2.396   2.401   2.411   2.421   2.425   2.442
  2.458   2.468   2.476   2.483   2.496   2.501   2.511   2.518
  2.522   2.547   2.567   2.573   2.584   2.593   2.601   2.605
  2.611   2.629   2.657   2.667   2.690   2.694   2.703   2.724
  2.736   2.761   2.780   2.805   2.829   2.851   2.855   2.878
  2.925   2.943   2.955   2.977   2.999   3.020   3.048   3.083
  3.103   3.112   3.140   3.169   3.220   3.252   3.271   3.347
  3.374   3.407   3.471   3.491   3.611   3.714  59.573
 
 Beta MOs
 -- Occupied --
-25.426 -25.343 -19.913 -19.904 -19.879 -19.879 -15.148 -11.116
-11.089 -11.077 -11.072 -11.070 -11.062 -11.031 -11.017 -11.002
-11.000 -10.995 -10.992 -10.972 -10.956 -10.945 -10.939 -10.930
-10.894  -3.539  -2.423  -2.408  -2.407  -1.811  -1.727  -1.564
 -1.516  -1.497  -1.448  -1.402  -1.392  -1.305  -1.297  -1.256
 -1.219  -1.191  -1.169  -1.164  -1.133  -1.079  -1.075  -1.052
 -1.041  -0.996  -0.968  -0.959  -0.952  -0.944  -0.919  -0.896
 -0.878  -0.870  -0.865  -0.854  -0.847  -0.841  -0.833  -0.831
 -0.813  -0.812  -0.810  -0.800  -0.778  -0.770  -0.766  -0.756
 -0.751  -0.746  -0.743  -0.738  -0.736  -0.733  -0.719  -0.718
 -0.712  -0.703  -0.697  -0.689  -0.683  -0.665  -0.661  -0.652
 -0.645  -0.618  -0.614  -0.611  -0.607  -0.574  -0.546  -0.483
 -0.451
 -- Virtual --
 -0.290  -0.125  -0.119  -0.089  -0.081  -0.072  -0.063  -0.058
 -0.050  -0.043  -0.035  -0.031  -0.029  -0.027  -0.022  -0.016
 -0.012  -0.005  -0.003   0.001   0.006   0.009   0.015   0.017
  0.020   0.022   0.029   0.032   0.036   0.041   0.045   0.049
  0.053   0.054   0.060   0.064   0.067   0.071   0.074   0.075
  0.078   0.085   0.088   0.089   0.092   0.096   0.104   0.105
  0.109   0.111   0.114   0.115   0.122   0.126   0.129   0.130
  0.133   0.138   0.139   0.144   0.145   0.148   0.154   0.157
  0.161   0.165   0.167   0.170   0.171   0.177   0.180   0.182
  0.183   0.189   0.192   0.198   0.200   0.205   0.208   0.210
  0.212   0.219   0.222   0.223   0.227   0.230   0.232   0.234
  0.236   0.242   0.245   0.247   0.254   0.258   0.259   0.262
  0.267   0.271   0.280   0.283   0.284   0.289   0.295   0.300
  0.301   0.305   0.308   0.317   0.319   0.325   0.329   0.332
  0.336   0.340   0.344   0.349   0.350   0.354   0.357   0.361
  0.364   0.373   0.374   0.375   0.382   0.383   0.387   0.395
  0.399   0.400   0.402   0.406   0.409   0.415   0.420   0.426
  0.429   0.436   0.442   0.446   0.450   0.454   0.455   0.460
  0.464   0.475   0.478   0.483   0.503   0.515   0.532   0.537
  0.547   0.548   0.590   0.606   0.632   0.636   0.650   0.672
  0.676   0.686   0.705   0.711   0.719   0.733   0.740   0.750
  0.760   0.778   0.787   0.790   0.797   0.803   0.808   0.810
  0.816   0.829   0.835   0.842   0.854   0.856   0.859   0.872
  0.884   0.886   0.897   0.902   0.908   0.913   0.925   0.930
  0.939   0.944   0.948   0.954   0.962   0.979   0.981   0.991
  1.005   1.016   1.029   1.047   1.058   1.063   1.068   1.082
  1.086   1.089   1.098   1.102   1.113   1.125   1.134   1.149
  1.152   1.155   1.170   1.172   1.181   1.210   1.214   1.221
  1.228   1.230   1.245   1.250   1.255   1.270   1.271   1.279
  1.289   1.296   1.309   1.313   1.324   1.339   1.341   1.345
  1.352   1.359   1.366   1.380   1.388   1.392   1.403   1.408
  1.415   1.423   1.429   1.438   1.445   1.453   1.466   1.474
  1.475   1.484   1.494   1.502   1.506   1.515   1.522   1.539
  1.552   1.566   1.570   1.594   1.611   1.633   1.646   1.667
  1.680   1.694   1.706   1.729   1.754   1.770   1.772   1.794
  1.805   1.822   1.831   1.844   1.846   1.851   1.866   1.868
  1.873   1.886   1.895   1.902   1.907   1.914   1.928   1.932
  1.935   1.943   1.955   1.961   1.967   1.972   1.977   1.989
  1.992   2.001   2.003   2.013   2.021   2.029   2.036   2.044
  2.050   2.062   2.064   2.075   2.078   2.088   2.093   2.111
  2.123   2.125   2.131   2.135   2.140   2.156   2.171   2.173
  2.186   2.188   2.209   2.215   2.223   2.240   2.247   2.264
  2.265   2.277   2.291   2.311   2.317   2.324   2.342   2.352
  2.361   2.378   2.383   2.398   2.402   2.414   2.421   2.426
  2.443   2.459   2.473   2.479   2.485   2.496   2.502   2.512
  2.519   2.523   2.547   2.567   2.574   2.584   2.593   2.600
  2.605   2.610   2.629   2.658   2.668   2.690   2.695   2.704
  2.727   2.742   2.761   2.780   2.808   2.833   2.851   2.856
  2.878   2.927   2.943   2.957   2.978   3.001   3.021   3.049
  3.083   3.106   3.113   3.140   3.169   3.220   3.252   3.271
  3.347   3.375   3.407   3.471   3.491   3.611   3.714  59.573
 --------------------------------------------------------------
 
          Ground-State Mulliken Net Atomic Charges

     Atom                 Charge (a.u.)    Spin (a.u.)
  --------------------------------------------------------
      1 V                     1.456038      -0.005667
      2 O                    -0.094142      -0.004754
      3 O                    -0.591716      -0.004093
      4 O                    -0.564725      -0.001338
      5 O                    -0.551149       0.000135
      6 N                    -0.258705       0.018278
      7 C                    -0.932158      -0.245215
      8 C                     0.882242       0.253332
      9 C                    -0.039340       0.609020
     10 H                     0.386306      -0.030027
     11 C                    -0.879937      -0.377622
     12 C                     0.167664       0.439075
     13 H                     0.372806      -0.021479
     14 C                     0.862853       0.407878
     15 C                    -0.537354      -0.068137
     16 H                     0.353633       0.024494
     17 H                     0.271151       0.004195
     18 C                    -0.722040      -0.004114
     19 H                     0.265470      -0.000082
     20 H                     0.288361       0.000735
     21 C                     1.424973      -0.002374
     22 C                    -0.027472       0.001392
     23 H                     0.307409      -0.000071
     24 C                    -0.812870      -0.001610
     25 C                    -0.478028       0.002509
     26 H                     0.327119      -0.000167
     27 C                     0.860161      -0.002071
     28 C                    -0.776006       0.005679
     29 C                    -0.299603       0.000670
     30 H                     0.272093      -0.000437
     31 H                     0.251077      -0.003564
     32 C                    -0.247487      -0.002764
     33 H                     0.273096       0.000322
     34 H                     0.250703       0.000602
     35 C                    -0.730889      -0.027785
     36 H                     0.325080       0.017666
     37 H                     0.281932       0.000823
     38 H                     0.326167       0.017446
     39 C                    -0.728992       0.000724
     40 H                     0.260898      -0.000079
     41 H                     0.261951      -0.000006
     42 H                     0.280372      -0.000084
     43 F                    -0.382981      -0.000021
     44 F                    -0.353960      -0.001415
  --------------------------------------------------------
  Sum of atomic charges =     1.000000
  Sum of spin   charges =     1.000000

 -----------------------------------------------------------------
                    Cartesian Multipole Moments
 -----------------------------------------------------------------
    Charge (ESU x 10^10)
                 4.8032
    Dipole Moment (Debye)
         X      11.1013      Y       4.8430      Z       0.9809
       Tot      12.1513
    Quadrupole Moments (Debye-Ang)
        XX    -107.2682     XY       7.4733     YY    -160.3060
        XZ      -9.4340     YZ       5.6207     ZZ    -126.6116
    Octapole Moments (Debye-Ang^2)
       XXX     210.2030    XXY     -56.4938    XYY      33.8043
       YYY      31.8155    XXZ    -104.3997    XYZ       0.0434
       YYZ      17.2410    XZZ      15.2208    YZZ     -12.5741
       ZZZ      26.1752
    Hexadecapole Moments (Debye-Ang^3)
      XXXX   -6528.2030   XXXY      79.1016   XXYY   -1799.0105
      XYYY      75.4696   YYYY   -2819.5324   XXXZ    -195.6884
      XXYZ      45.5607   XYYZ     -23.2960   YYYZ      50.7446
      XXZZ   -1234.3030   XYZZ     -23.7028   YYZZ    -713.8308
      XZZZ      -1.0352   YZZZ     -26.3117   ZZZZ   -1640.4956
 -----------------------------------------------------------------
 Total job time:  10600.78s(wall), 10581.37s(cpu) 
 Thu Jun 19 07:46:13 2014

        *************************************************************
        *                                                           *
        *  Thank you very much for using Q-Chem.  Have a nice day.  *
        *                                                           *
        *************************************************************


0 sent ACK to 0 
now end server 0 ... 
