Process 0 of 1 is on cl219.stfx.acenet.ca - thread support 1
initial socket setup ...start
initial socket setup ...done 
now start server 0 ... 

cmd = /usr/bin/ssh clhead /usr/local/qchem/bin/get_hostid 299080872 > /scratch/tmp/6063736.1.medium.q/qchem19148/lic.dat
                  Welcome to Q-Chem
     A Quantum Leap Into The Future Of Chemistry

 Y. Shao, L. Fusti-Molnar, Y. Jung, J. Kussmann, C. Ochsenfeld,
 S. T. Brown, A. T. B. Gilbert, L. V. Slipchenko,S. V. Levchenko,
 D. P. O'Neill, R. A. DiStasio Jr., R. C. Lochan, T. Wang,
 G. J. O. Beran, N. A. Besley, J. M. Herbert, C. Y. Lin,
 T. Van Voorhis, S. H. Chien, A. Sodt, R. P. Steele, 
 V. A. Rassolov, P. E. Maslen, P. P. Korambath, R. D. Adamson,
 B. Austin, J. Baker, E. F. C. Byrd, H. Dachsel, R. J. Doerksen,
 A. Dreuw, B. D. Dunietz, A. D. Dutoi, T. R. Furlani,
 S. R. Gwaltney, A. Heyden, S. Hirata, C.-P. Hsu, G. Kedziora,
 R. Z. Khaliullin, P. Klunzinger, A. M. Lee, M. S. Lee, W. Liang,
 I. Lotan, N. Nair, B. Peters, E. I. Proynov, P. A. Pieniazek, 
 Y. M. Rhee, J. Ritchie, E. Rosta, C. D. Sherrill, 
 A. C. Simmonett, J. E. Subotnik, H. L. Woodcock III,
 W. Zhang, A. T. Bell, A. K. Chakraborty, D. M. Chipman,
 F. J. Keil, A. Warshel, W. J. Hehre, H. F. Schaefer III,
 J. Kong, A. I. Krylov, P. M. W. Gill, M. Head-Gordon,
 Q-Chem, Version 3.1, Q-Chem, Inc., Pittsburgh, PA (2007).

 Additional authors for Version 3.1: 
 Z. Gan, Y. Zhao, N. E. Schultz, D. Truhlar, E. Epifanovsky and M. Oana.

 Additional authors for Version 3.2: 
 R. Baer, B. R. Brooks, D. Casanova, J.-D. Chai, C.-L. Cheng, 
 C. Cramer, D. Crittenden, A. Ghysels, G. Hawkins, E. G. Hohenstein, 
 C. Kelley, W. Kurlancheek, D. Liotard, E. Livshits, P. Manohar, 
 A. Marenich, D. Neuhauser, R. Olson, M. A. Rohrdanz, K. S. Thanthiriwatte, 
 A. J. W. Thom, V. Vanovschi, C. F. Williams, Q. Wu and Z.-Q. You. 


 Intel X86 Linux Version

 Q-chem begins on Sun Jul  7 08:40:49 2013  

 Parallel job on  1  processors
Processing $rem in /usr/local/qchem/config/preferences.

theFileMan(): MAXOPENFILES=974 MAX_SUB_FILE_NUM=16
Maximum size of a physical file is 2.0 GB, maximum size of a tmp-file is 32.0 GB


--------------------------------------------------------------
User input:
--------------------------------------------------------------

$molecule
-1,2
C          0.74096        0.79405        0.00000
S          0.00000       -0.83481        0.00000
C         -0.74096        0.79405        0.00000
H          1.24877        1.08067       -0.91461
H          1.24877        1.08067        0.91461
H         -1.24877        1.08067        0.91461
H         -1.24877        1.08067       -0.91461
$end

$comment
negative
$end

$xc_functional
C PBE   1.00
X wPBE  1.00
$end

$rem
SYMMETRY_DECOMPOSITION	0
exchange 		general
LRC_DFT                 true
BASIS                   g3large
omega			1000
mem_static              760
max_scf_cycles          200
scf_final_print         1
sym_ignore              true
$end

--------------------------------------------------------------
 Writing REM_CC_EA            7
 ----------------------------------------------------
       Standard Nuclear Orientation (Angstroms)
    I     Atom         X            Y            Z
 ----------------------------------------------------
    1      C       0.740960     0.794050     0.000000
    2      S       0.000000    -0.834810     0.000000
    3      C      -0.740960     0.794050     0.000000
    4      H       1.248770     1.080670    -0.914610
    5      H       1.248770     1.080670     0.914610
    6      H      -1.248770     1.080670     0.914610
    7      H      -1.248770     1.080670    -0.914610
 ----------------------------------------------------
 Nuclear Repulsion Energy =   102.1883315095 hartrees
 There are       17 alpha and       16 beta electrons
 Requested basis set is G3large
 There are 63 shells and 190 basis functions

Total QAlloc Memory Limit   2000 MB
Mega-Array Size       743 MB
MEM_STATIC part       760 MB

                       Distance Matrix (Angstroms)
             C (  1)   S (  2)   C (  3)   H (  4)   H (  5)   H (  6)
   S (  2)  1.789471
   C (  3)  1.481920  1.789471
   H (  4)  1.084681  2.462722  2.208549
   H (  5)  1.084681  2.462722  2.208549  1.829220
   H (  6)  2.208549  2.462722  1.084681  3.095764  2.497540
   H (  7)  2.208549  2.462722  1.084681  2.497540  3.095764  1.829220

 
 A cutoff of  1.0D-08 yielded   1930 shell pairs
 There are  17755 function pairs ( 22821 Cartesian)
Evaluating contribution to one-electron hamiltonian from nuclear
 Smallest overlap matrix eigenvalue = 7.57E-05

 Q-Chem warning in module mkSTV.C, line 194:

 Overlap eigenvalue is smaller than square root of threshold

 Multipole matrices computed through 2nd order

  Scale SEOQF with 1.000000e-01/1.000000e-01/1.000000e-01

 Standard Electronic Orientation quadrupole field applied
 Nucleus-field energy     =     0.0000000018 hartrees
 Guess from superposition of atomic densities
 Warning:  Energy on first SCF cycle will be non-variational
 Long-range K will be added via erf
 Coulomb attenuation parameter = 1 bohr**(-1)
 An unrestricted Kohn-Sham SCF calculation will be
 performed using Pulay DIIS extrapolation
 Exchange:  wPBE + LR-HF      Correlation:  PBE
 Using SG-1 standard quadrature grid
 SCF converges when DIIS error is below 1.0E-05
 Requested basis set is G3large
 There are 63 shells and 190 basis functions
 A cutoff of  1.0D-08 yielded   1930 shell pairs
 There are  17755 function pairs ( 22821 Cartesian)
 Warning!  Inaccurate integrated density:
   Number of electrons =    33
   Numerical integral  =    32.000168574254
   Relative error      =    -3.0297921992 %
 ---------------------------------------
  Cycle       Energy         DIIS Error
 ---------------------------------------
    1    -477.6854895701      3.33E-02
    2    -476.5415732871      2.94E-03
    3    -476.6101725599      1.80E-03
    4    -476.6276851720      4.61E-04
    5    -476.6348602635      3.01E-04
    6    -476.6403913379      2.53E-04
    7    -476.6452367318      2.19E-04
    8    -476.6506072819      1.25E-04
    9    -476.6544205166      5.50E-05
   10    -476.6552111725      7.45E-05
   11    -476.6559482381      4.34E-05
   12    -476.6564401424      3.32E-05
   13    -476.6570480732      5.62E-05
   14    -476.6576810160      3.71E-05
   15    -476.6577417987      2.72E-05
   16    -476.6578903374      2.21E-05
   17    -476.6579311959      1.63E-05
   18    -476.6579806435      1.23E-05
   19    -476.6580172373      7.82E-06 Convergence criterion met
 ---------------------------------------
 One-Electron    Energy =  -862.0273621851
 Total Coulomb   Energy =   321.1995526766
 Alpha Exchange  Energy =    -6.4733978138
 Beta  Exchange  Energy =    -6.3950626400
 DFT   Exchange  Energy =   -23.9999247459
 DFT Correlation Energy =    -1.1501540403
 Nuclear Repu.   Energy =   102.1883315112
 Nuclear Attr.   Energy = -1337.6175128239
 Kinetic         Energy =   475.5901506388
 <S^2> = 0.7501
 SCF time:  CPU 278.47 s  wall 279.47 s
 Final Alpha MO Eigenvalues
            1           2           3           4           5           6
    1 -88.4513603 -10.3268482 -10.3212512  -8.0881336  -6.0536192  -6.0517303
            7           8           9          10          11          12
    1  -6.0434481  -1.0243168  -0.7248811  -0.7144282  -0.5579253  -0.5021214
           13          14          15          16          17          18
    1  -0.4232731  -0.3402254  -0.3356815  -0.2479673   0.0299673   0.1383033
           19          20          21          22
    1   0.1385821   0.1751861   0.1794737   0.2105615
 Final Beta MO Eigenvalues
            1           2           3           4           5           6
    1 -88.4513334 -10.3265579 -10.3206644  -8.0881061  -6.0534761  -6.0517307
            7           8           9          10          11          12
    1  -6.0434622  -1.0235586  -0.7219465  -0.7126658  -0.5574445  -0.4997949
           13          14          15          16          17          18
    1  -0.4230182  -0.3388117  -0.3353085  -0.2478790   0.1459238   0.1576313
           19          20          21
    1   0.1611805   0.1787768   0.1879018
 Analysis of SCF Wavefunction
 
 --------------------------------------------------------------
                    Orbital Energies (a.u.)
 --------------------------------------------------------------
 
 Alpha MOs
 -- Occupied --
-88.451 -10.327 -10.321  -8.088  -6.054  -6.052  -6.043  -1.024
 -0.725  -0.714  -0.558  -0.502  -0.423  -0.340  -0.336  -0.248
  0.030
 -- Virtual --
  0.138   0.139   0.175   0.179   0.211   0.232   0.234   0.239
  0.250   0.276   0.284   0.305   0.310   0.313   0.320   0.329
  0.368   0.388   0.420   0.446   0.474   0.508   0.538   0.550
  0.572   0.577   0.597   0.642   0.647   0.684   0.710   0.727
  0.811   0.829   0.841   0.855   0.861   0.866   0.890   0.902
  0.954   1.016   1.073   1.076   1.140   1.155   1.169   1.188
  1.230   1.268   1.277   1.308   1.315   1.338   1.346   1.394
  1.425   1.476   1.504   1.526   1.566   1.568   1.597   1.618
  1.631   1.649   1.657   1.702   1.739   1.763   1.778   1.781
  1.820   1.826   1.879   1.915   1.930   2.269   2.477   2.554
  2.860   2.867   3.036   3.050   3.158   3.191   3.198   3.248
  3.284   3.372   3.424   3.430   3.490   3.508   3.514   3.524
  3.532   3.654   3.713   3.758   3.771   3.780   3.800   3.915
  3.926   3.953   3.958   4.052   4.056   4.068   4.071   4.166
  4.212   4.240   4.378   4.388   4.404   4.496   4.580   4.620
  4.621   4.628   4.709   4.718   4.829   4.922   4.930   5.082
  5.120   5.216   5.405   5.498   5.544   5.767   5.824   5.977
  6.035   6.079   8.898  17.591  17.794  17.959  23.910  24.014
 24.059  24.105  24.164  24.523  24.707  27.881  28.192  28.422
 28.491  28.550  28.860  31.351  31.352  31.358  31.365  31.369
 31.380  31.403  41.325  41.390  41.412  41.512  41.556  41.570
 41.578  41.581  41.658  41.678 189.549
 
 Beta MOs
 -- Occupied --
-88.451 -10.327 -10.321  -8.088  -6.053  -6.052  -6.043  -1.024
 -0.722  -0.713  -0.557  -0.500  -0.423  -0.339  -0.335  -0.248
 -- Virtual --
  0.146   0.158   0.161   0.179   0.188   0.213   0.234   0.236
  0.240   0.249   0.273   0.284   0.304   0.308   0.312   0.325
  0.328   0.370   0.387   0.418   0.445   0.474   0.507   0.538
  0.549   0.570   0.575   0.597   0.642   0.647   0.684   0.708
  0.725   0.808   0.827   0.840   0.850   0.860   0.865   0.889
  0.902   0.954   1.016   1.073   1.077   1.140   1.155   1.169
  1.188   1.230   1.268   1.277   1.308   1.314   1.338   1.346
  1.394   1.425   1.476   1.504   1.526   1.566   1.568   1.596
  1.618   1.631   1.648   1.657   1.701   1.739   1.763   1.778
  1.780   1.820   1.826   1.879   1.915   1.931   2.269   2.477
  2.555   2.860   2.867   3.035   3.050   3.158   3.191   3.198
  3.248   3.285   3.373   3.424   3.430   3.490   3.509   3.515
  3.524   3.532   3.655   3.714   3.758   3.771   3.781   3.800
  3.915   3.926   3.954   3.958   4.052   4.057   4.068   4.071
  4.166   4.212   4.240   4.379   4.388   4.404   4.496   4.580
  4.620   4.621   4.628   4.709   4.719   4.829   4.922   4.930
  5.082   5.120   5.217   5.405   5.498   5.544   5.767   5.824
  5.978   6.036   6.079   8.898  17.591  17.794  17.959  23.910
 24.014  24.059  24.105  24.164  24.523  24.708  27.881  28.192
 28.423  28.492  28.551  28.861  31.351  31.352  31.358  31.365
 31.369  31.380  31.403  41.326  41.390  41.412  41.512  41.556
 41.570  41.579  41.581  41.658  41.679 189.549
 --------------------------------------------------------------
 
          Ground-State Mulliken Net Atomic Charges

     Atom                 Charge (a.u.)    Spin (a.u.)
  --------------------------------------------------------
      1 C                     0.259391      -0.217107
      2 S                    -0.446784       0.035067
      3 C                     1.909940      -1.850364
      4 H                    -0.400488       0.471969
      5 H                    -0.400470       0.471974
      6 H                    -0.960851       1.044281
      7 H                    -0.960736       1.044178
  --------------------------------------------------------
  Sum of atomic charges =    -1.000000
  Sum of spin   charges =     1.000000

 -----------------------------------------------------------------
                    Cartesian Multipole Moments
 -----------------------------------------------------------------
    Charge (ESU x 10^10)
                -4.8032
    Dipole Moment (Debye)
         X       3.2264      Y      -6.2459      Z       0.0000
       Tot       7.0300
    Quadrupole Moments (Debye-Ang)
        XX     -49.7273     XY       5.4128     YY     -56.8951
        XZ       0.0001     YZ       0.0000     ZZ     -56.7839
    Octapole Moments (Debye-Ang^2)
       XXX      41.7085    XXY     -41.0329    XYY      17.7113
       YYY    -101.8884    XXZ      -0.0006    XYZ       0.0003
       YYZ      -0.0003    XZZ      17.0953    YZZ     -42.5253
       ZZZ      -0.0005
    Hexadecapole Moments (Debye-Ang^3)
      XXXX    -423.8827   XXXY      61.1865   XXYY    -174.7605
      XYYY      54.0958   YYYY    -555.8833   XXXZ       0.0017
      XXYZ      -0.0011   XYYZ       0.0009   YYYZ      -0.0014
      XXZZ    -148.3701   XYZZ      23.6136   YYZZ    -179.9074
      XZZZ       0.0014   YZZZ      -0.0014   ZZZZ    -428.5450
 -----------------------------------------------------------------
 Total job time:  279.72s(wall), 278.71s(cpu) 
 Sun Jul  7 08:45:29 2013

        *************************************************************
        *                                                           *
        *  Thank you very much for using Q-Chem.  Have a nice day.  *
        *                                                           *
        *************************************************************


0 sent ACK to 0 
now end server 0 ... 
 
**********************************************************************
Job 2 of 3 
**********************************************************************
 
Process 0 of 1 is on cl219.stfx.acenet.ca - thread support 1
initial socket setup ...start
initial socket setup ...done 
now start server 0 ... 

cmd = /usr/bin/ssh clhead /usr/local/qchem/bin/get_hostid 1191260683 > /scratch/tmp/6063736.1.medium.q/qchem19148/lic.dat
                  Welcome to Q-Chem
     A Quantum Leap Into The Future Of Chemistry

 Y. Shao, L. Fusti-Molnar, Y. Jung, J. Kussmann, C. Ochsenfeld,
 S. T. Brown, A. T. B. Gilbert, L. V. Slipchenko,S. V. Levchenko,
 D. P. O'Neill, R. A. DiStasio Jr., R. C. Lochan, T. Wang,
 G. J. O. Beran, N. A. Besley, J. M. Herbert, C. Y. Lin,
 T. Van Voorhis, S. H. Chien, A. Sodt, R. P. Steele, 
 V. A. Rassolov, P. E. Maslen, P. P. Korambath, R. D. Adamson,
 B. Austin, J. Baker, E. F. C. Byrd, H. Dachsel, R. J. Doerksen,
 A. Dreuw, B. D. Dunietz, A. D. Dutoi, T. R. Furlani,
 S. R. Gwaltney, A. Heyden, S. Hirata, C.-P. Hsu, G. Kedziora,
 R. Z. Khaliullin, P. Klunzinger, A. M. Lee, M. S. Lee, W. Liang,
 I. Lotan, N. Nair, B. Peters, E. I. Proynov, P. A. Pieniazek, 
 Y. M. Rhee, J. Ritchie, E. Rosta, C. D. Sherrill, 
 A. C. Simmonett, J. E. Subotnik, H. L. Woodcock III,
 W. Zhang, A. T. Bell, A. K. Chakraborty, D. M. Chipman,
 F. J. Keil, A. Warshel, W. J. Hehre, H. F. Schaefer III,
 J. Kong, A. I. Krylov, P. M. W. Gill, M. Head-Gordon,
 Q-Chem, Version 3.1, Q-Chem, Inc., Pittsburgh, PA (2007).

 Additional authors for Version 3.1: 
 Z. Gan, Y. Zhao, N. E. Schultz, D. Truhlar, E. Epifanovsky and M. Oana.

 Additional authors for Version 3.2: 
 R. Baer, B. R. Brooks, D. Casanova, J.-D. Chai, C.-L. Cheng, 
 C. Cramer, D. Crittenden, A. Ghysels, G. Hawkins, E. G. Hohenstein, 
 C. Kelley, W. Kurlancheek, D. Liotard, E. Livshits, P. Manohar, 
 A. Marenich, D. Neuhauser, R. Olson, M. A. Rohrdanz, K. S. Thanthiriwatte, 
 A. J. W. Thom, V. Vanovschi, C. F. Williams, Q. Wu and Z.-Q. You. 


 Intel X86 Linux Version

 Q-chem begins on Sun Jul  7 08:45:31 2013  

 Parallel job on  1  processors
Processing $rem in /usr/local/qchem/config/preferences.

theFileMan(): MAXOPENFILES=974 MAX_SUB_FILE_NUM=16
Maximum size of a physical file is 2.0 GB, maximum size of a tmp-file is 32.0 GB


--------------------------------------------------------------
User input:
--------------------------------------------------------------

$molecule
0,1
C          0.74096        0.79405        0.00000
S          0.00000       -0.83481        0.00000
C         -0.74096        0.79405        0.00000
H          1.24877        1.08067       -0.91461
H          1.24877        1.08067        0.91461
H         -1.24877        1.08067        0.91461
H         -1.24877        1.08067       -0.91461
$end

$comment
neutral
$end

$xc_functional
C PBE   1.00
X wPBE  1.00
$end


$rem
SYMMETRY_DECOMPOSITION	0
LRC_DFT                 true
exchange 		general
BASIS                   g3large
omega			1000
mem_static              760
max_scf_cycles          200
scf_final_print         1
sym_ignore              true
$end

--------------------------------------------------------------
 Writing REM_CC_EA            7
 ----------------------------------------------------
       Standard Nuclear Orientation (Angstroms)
    I     Atom         X            Y            Z
 ----------------------------------------------------
    1      C       0.740960     0.794050     0.000000
    2      S       0.000000    -0.834810     0.000000
    3      C      -0.740960     0.794050     0.000000
    4      H       1.248770     1.080670    -0.914610
    5      H       1.248770     1.080670     0.914610
    6      H      -1.248770     1.080670     0.914610
    7      H      -1.248770     1.080670    -0.914610
 ----------------------------------------------------
 Nuclear Repulsion Energy =   102.1883315095 hartrees
 There are       16 alpha and       16 beta electrons
 Requested basis set is G3large
 There are 63 shells and 190 basis functions

Total QAlloc Memory Limit   2000 MB
Mega-Array Size       743 MB
MEM_STATIC part       760 MB

                       Distance Matrix (Angstroms)
             C (  1)   S (  2)   C (  3)   H (  4)   H (  5)   H (  6)
   S (  2)  1.789471
   C (  3)  1.481920  1.789471
   H (  4)  1.084681  2.462722  2.208549
   H (  5)  1.084681  2.462722  2.208549  1.829220
   H (  6)  2.208549  2.462722  1.084681  3.095764  2.497540
   H (  7)  2.208549  2.462722  1.084681  2.497540  3.095764  1.829220

 
 A cutoff of  1.0D-08 yielded   1930 shell pairs
 There are  17755 function pairs ( 22821 Cartesian)
Evaluating contribution to one-electron hamiltonian from nuclear
 Smallest overlap matrix eigenvalue = 7.57E-05

 Q-Chem warning in module mkSTV.C, line 194:

 Overlap eigenvalue is smaller than square root of threshold

 Multipole matrices computed through 2nd order

  Scale SEOQF with 1.000000e-01/1.000000e-01/1.000000e-01

 Standard Electronic Orientation quadrupole field applied
 Nucleus-field energy     =     0.0000000018 hartrees
 Guess from superposition of atomic densities
 Warning:  Energy on first SCF cycle will be non-variational
 Long-range K will be added via erf
 Coulomb attenuation parameter = 1 bohr**(-1)
 A restricted Kohn-Sham SCF calculation will be
 performed using Pulay DIIS extrapolation
 Exchange:  wPBE + LR-HF      Correlation:  PBE
 Using SG-1 standard quadrature grid
 SCF converges when DIIS error is below 1.0E-05
 Requested basis set is G3large
 There are 63 shells and 190 basis functions
 A cutoff of  1.0D-08 yielded   1930 shell pairs
 There are  17755 function pairs ( 22821 Cartesian)
 ---------------------------------------
  Cycle       Energy         DIIS Error
 ---------------------------------------
    1    -477.6854895701      3.33E-02
    2    -476.6378302861      2.58E-03
    3    -476.6842775415      1.16E-03
    4    -476.6917446673      5.09E-04
    5    -476.6938868590      1.27E-04
    6    -476.6941215050      4.20E-05
    7    -476.6941448417      1.66E-05
    8    -476.6941470063      4.36E-06 Convergence criterion met
 ---------------------------------------
 One-Electron    Energy =  -857.7147529496
 Total Coulomb   Energy =   316.7703813271
 Alpha Exchange  Energy =    -6.3991516787
 Beta  Exchange  Energy =    -6.3991516787
 DFT   Exchange  Energy =   -23.9973690288
 DFT Correlation Energy =    -1.1424345089
 Nuclear Repu.   Energy =   102.1883315112
 Nuclear Attr.   Energy = -1333.2314721581
 Kinetic         Energy =   475.5167192085
 SCF time:  CPU 91.82 s  wall 92.56 s
 Final Alpha MO Eigenvalues
            1           2           3           4           5           6
    1 -88.5850870 -10.4645978 -10.4638381  -8.2214237  -6.1870491  -6.1852863
            7           8           9          10          11          12
    1  -6.1763806  -1.1609199  -0.8630455  -0.8502526  -0.6983595  -0.6377113
           13          14          15          16          17          18
    1  -0.5651576  -0.4753400  -0.4706202  -0.3800409   0.0432983   0.0518927
           19          20          21
    1   0.0580585   0.0804683   0.0857191
 Analysis of SCF Wavefunction
 
 --------------------------------------------------------------
                    Orbital Energies (a.u.)
 --------------------------------------------------------------
 
 Alpha MOs
 -- Occupied --
-88.585 -10.465 -10.464  -8.221  -6.187  -6.185  -6.176  -1.161
 -0.863  -0.850  -0.698  -0.638  -0.565  -0.475  -0.471  -0.380
 -- Virtual --
  0.043   0.052   0.058   0.080   0.086   0.107   0.128   0.133
  0.134   0.135   0.169   0.176   0.196   0.198   0.203   0.207
  0.212   0.245   0.258   0.294   0.314   0.344   0.379   0.410
  0.424   0.450   0.454   0.475   0.516   0.517   0.552   0.578
  0.597   0.676   0.693   0.711   0.719   0.725   0.731   0.757
  0.767   0.824   0.880   0.933   0.937   1.007   1.023   1.032
  1.055   1.094   1.129   1.144   1.177   1.184   1.206   1.206
  1.263   1.286   1.337   1.370   1.389   1.433   1.436   1.464
  1.481   1.496   1.514   1.525   1.563   1.600   1.626   1.640
  1.642   1.684   1.689   1.741   1.775   1.790   2.138   2.345
  2.422   2.722   2.727   2.896   2.911   3.019   3.052   3.058
  3.109   3.146   3.234   3.285   3.291   3.355   3.368   3.377
  3.384   3.393   3.513   3.574   3.618   3.633   3.641   3.660
  3.783   3.794   3.815   3.819   3.918   3.918   3.932   3.936
  4.031   4.072   4.099   4.240   4.250   4.264   4.357   4.439
  4.480   4.484   4.484   4.569   4.578   4.688   4.781   4.790
  4.949   4.986   5.076   5.270   5.358   5.405   5.632   5.689
  5.836   5.893   5.938   8.765  17.458  17.661  17.825  23.777
 23.881  23.926  23.971  24.030  24.383  24.567  27.741  28.052
 28.283  28.351  28.410  28.720  31.218  31.219  31.224  31.232
 31.236  31.247  31.269  41.185  41.251  41.272  41.372  41.416
 41.431  41.437  41.440  41.518  41.538 189.415
 --------------------------------------------------------------
 
          Ground-State Mulliken Net Atomic Charges

     Atom                 Charge (a.u.)
  ----------------------------------------
      1 C                     0.019258
      2 S                    -0.343460
      3 C                     0.019683
      4 H                     0.076117
      5 H                     0.076124
      6 H                     0.076138
      7 H                     0.076140
  ----------------------------------------
  Sum of atomic charges =     0.000000

 -----------------------------------------------------------------
                    Cartesian Multipole Moments
 -----------------------------------------------------------------
    Charge (ESU x 10^10)
                 0.0000
    Dipole Moment (Debye)
         X      -0.0007      Y       2.0235      Z       0.0000
       Tot       2.0235
    Quadrupole Moments (Debye-Ang)
        XX     -23.9027     XY      -0.0005     YY     -25.8729
        XZ       0.0001     YZ       0.0000     ZZ     -25.6931
    Octapole Moments (Debye-Ang^2)
       XXX      -0.0008    XXY       1.7845    XYY      -0.0022
       YYY      -2.5682    XXZ       0.0000    XYZ      -0.0005
       YYZ       0.0002    XZZ      -0.0004    YZZ       3.9720
       ZZZ       0.0000
    Hexadecapole Moments (Debye-Ang^3)
      XXXX     -86.6814   XXXY      -0.0008   XXYY     -35.0521
      XYYY      -0.0010   YYYY    -142.7080   XXXZ      -0.0001
      XXYZ       0.0000   XYYZ       0.0002   YYYZ      -0.0002
      XXZZ     -18.3362   XYZZ      -0.0011   YYZZ     -31.2181
      XZZZ       0.0000   YZZZ       0.0000   ZZZZ     -43.9897
 -----------------------------------------------------------------
 Total job time:  92.79s(wall), 92.04s(cpu) 
 Sun Jul  7 08:47:04 2013

        *************************************************************
        *                                                           *
        *  Thank you very much for using Q-Chem.  Have a nice day.  *
        *                                                           *
        *************************************************************


0 sent ACK to 0 
now end server 0 ... 
 
**********************************************************************
Job 3 of 3 
**********************************************************************
 
Process 0 of 1 is on cl219.stfx.acenet.ca - thread support 1
initial socket setup ...start
initial socket setup ...done 
now start server 0 ... 

cmd = /usr/bin/ssh clhead /usr/local/qchem/bin/get_hostid 2069907627 > /scratch/tmp/6063736.1.medium.q/qchem19148/lic.dat
                  Welcome to Q-Chem
     A Quantum Leap Into The Future Of Chemistry

 Y. Shao, L. Fusti-Molnar, Y. Jung, J. Kussmann, C. Ochsenfeld,
 S. T. Brown, A. T. B. Gilbert, L. V. Slipchenko,S. V. Levchenko,
 D. P. O'Neill, R. A. DiStasio Jr., R. C. Lochan, T. Wang,
 G. J. O. Beran, N. A. Besley, J. M. Herbert, C. Y. Lin,
 T. Van Voorhis, S. H. Chien, A. Sodt, R. P. Steele, 
 V. A. Rassolov, P. E. Maslen, P. P. Korambath, R. D. Adamson,
 B. Austin, J. Baker, E. F. C. Byrd, H. Dachsel, R. J. Doerksen,
 A. Dreuw, B. D. Dunietz, A. D. Dutoi, T. R. Furlani,
 S. R. Gwaltney, A. Heyden, S. Hirata, C.-P. Hsu, G. Kedziora,
 R. Z. Khaliullin, P. Klunzinger, A. M. Lee, M. S. Lee, W. Liang,
 I. Lotan, N. Nair, B. Peters, E. I. Proynov, P. A. Pieniazek, 
 Y. M. Rhee, J. Ritchie, E. Rosta, C. D. Sherrill, 
 A. C. Simmonett, J. E. Subotnik, H. L. Woodcock III,
 W. Zhang, A. T. Bell, A. K. Chakraborty, D. M. Chipman,
 F. J. Keil, A. Warshel, W. J. Hehre, H. F. Schaefer III,
 J. Kong, A. I. Krylov, P. M. W. Gill, M. Head-Gordon,
 Q-Chem, Version 3.1, Q-Chem, Inc., Pittsburgh, PA (2007).

 Additional authors for Version 3.1: 
 Z. Gan, Y. Zhao, N. E. Schultz, D. Truhlar, E. Epifanovsky and M. Oana.

 Additional authors for Version 3.2: 
 R. Baer, B. R. Brooks, D. Casanova, J.-D. Chai, C.-L. Cheng, 
 C. Cramer, D. Crittenden, A. Ghysels, G. Hawkins, E. G. Hohenstein, 
 C. Kelley, W. Kurlancheek, D. Liotard, E. Livshits, P. Manohar, 
 A. Marenich, D. Neuhauser, R. Olson, M. A. Rohrdanz, K. S. Thanthiriwatte, 
 A. J. W. Thom, V. Vanovschi, C. F. Williams, Q. Wu and Z.-Q. You. 


 Intel X86 Linux Version

 Q-chem begins on Sun Jul  7 08:47:07 2013  

 Parallel job on  1  processors
Processing $rem in /usr/local/qchem/config/preferences.

theFileMan(): MAXOPENFILES=974 MAX_SUB_FILE_NUM=16
Maximum size of a physical file is 2.0 GB, maximum size of a tmp-file is 32.0 GB


--------------------------------------------------------------
User input:
--------------------------------------------------------------

$molecule
1,2
C          0.74096        0.79405        0.00000
S          0.00000       -0.83481        0.00000
C         -0.74096        0.79405        0.00000
H          1.24877        1.08067       -0.91461
H          1.24877        1.08067        0.91461
H         -1.24877        1.08067        0.91461
H         -1.24877        1.08067       -0.91461
$end

$comment
positive
$end

$xc_functional
C PBE   1.00
X wPBE  1.00
$end

$rem
SYMMETRY_DECOMPOSITION	0
LRC_DFT                 true
exchange 		general
BASIS                   g3large
omega			1000
mem_static              760
max_scf_cycles          200
scf_final_print         1
sym_ignore              true
$end

--------------------------------------------------------------
 Writing REM_CC_EA            7
 ----------------------------------------------------
       Standard Nuclear Orientation (Angstroms)
    I     Atom         X            Y            Z
 ----------------------------------------------------
    1      C       0.740960     0.794050     0.000000
    2      S       0.000000    -0.834810     0.000000
    3      C      -0.740960     0.794050     0.000000
    4      H       1.248770     1.080670    -0.914610
    5      H       1.248770     1.080670     0.914610
    6      H      -1.248770     1.080670     0.914610
    7      H      -1.248770     1.080670    -0.914610
 ----------------------------------------------------
 Nuclear Repulsion Energy =   102.1883315095 hartrees
 There are       16 alpha and       15 beta electrons
 Requested basis set is G3large
 There are 63 shells and 190 basis functions

Total QAlloc Memory Limit   2000 MB
Mega-Array Size       743 MB
MEM_STATIC part       760 MB

                       Distance Matrix (Angstroms)
             C (  1)   S (  2)   C (  3)   H (  4)   H (  5)   H (  6)
   S (  2)  1.789471
   C (  3)  1.481920  1.789471
   H (  4)  1.084681  2.462722  2.208549
   H (  5)  1.084681  2.462722  2.208549  1.829220
   H (  6)  2.208549  2.462722  1.084681  3.095764  2.497540
   H (  7)  2.208549  2.462722  1.084681  2.497540  3.095764  1.829220

 
 A cutoff of  1.0D-08 yielded   1930 shell pairs
 There are  17755 function pairs ( 22821 Cartesian)
Evaluating contribution to one-electron hamiltonian from nuclear
 Smallest overlap matrix eigenvalue = 7.57E-05

 Q-Chem warning in module mkSTV.C, line 194:

 Overlap eigenvalue is smaller than square root of threshold

 Multipole matrices computed through 2nd order

  Scale SEOQF with 1.000000e-01/1.000000e-01/1.000000e-01

 Standard Electronic Orientation quadrupole field applied
 Nucleus-field energy     =     0.0000000018 hartrees
 Guess from superposition of atomic densities
 Warning:  Energy on first SCF cycle will be non-variational
 Long-range K will be added via erf
 Coulomb attenuation parameter = 1 bohr**(-1)
 An unrestricted Kohn-Sham SCF calculation will be
 performed using Pulay DIIS extrapolation
 Exchange:  wPBE + LR-HF      Correlation:  PBE
 Using SG-1 standard quadrature grid
 SCF converges when DIIS error is below 1.0E-05
 Requested basis set is G3large
 There are 63 shells and 190 basis functions
 A cutoff of  1.0D-08 yielded   1930 shell pairs
 There are  17755 function pairs ( 22821 Cartesian)
 Warning!  Inaccurate integrated density:
   Number of electrons =    31
   Numerical integral  =    32.000168574254
   Relative error      =     3.2263502395 %
 ---------------------------------------
  Cycle       Energy         DIIS Error
 ---------------------------------------
    1    -477.6854895701      3.33E-02
    2    -476.2624763484      3.32E-03
    3    -476.3466955969      1.44E-03
    4    -476.3585097721      4.59E-04
    5    -476.3615242577      1.37E-04
    6    -476.3619027167      5.51E-05
    7    -476.3619520727      1.80E-05
    8    -476.3619625769      5.57E-06 Convergence criterion met
 ---------------------------------------
 One-Electron    Energy =  -848.4916945800
 Total Coulomb   Energy =   307.5807997765
 Alpha Exchange  Energy =    -6.4527566432
 Beta  Exchange  Energy =    -6.1180939462
 DFT   Exchange  Energy =   -23.9666067533
 DFT Correlation Energy =    -1.1019419418
 Nuclear Repu.   Energy =   102.1883315112
 Nuclear Attr.   Energy = -1323.7347703037
 Kinetic         Energy =   475.2430757237
 <S^2> = 0.7627
 SCF time:  CPU 112.90 s  wall 113.32 s
 Final Alpha MO Eigenvalues
            1           2           3           4           5           6
    1 -88.9396819 -10.7112113 -10.7104287  -8.5714854  -6.5421493  -6.5319307
            7           8           9          10          11          12
    1  -6.5296649  -1.4499052  -1.1498213  -1.1060353  -0.9568241  -0.8998777
           13          14          15          16          17          18
    1  -0.8037128  -0.7588128  -0.7412862  -0.7385781  -0.1370496  -0.1075502
           19          20          21
    1  -0.0947049  -0.0814771  -0.0691143
 Final Beta MO Eigenvalues
            1           2           3           4           5           6
    1 -88.9342152 -10.7116322 -10.7108554  -8.5657987  -6.5289220  -6.5260253
            7           8           9          10          11          12
    1  -6.5240014  -1.4236922  -1.1041684  -1.0942021  -0.9301791  -0.8887314
           13          14          15          16          17          18
    1  -0.7950186  -0.7453950  -0.7370462  -0.2867777  -0.1354745  -0.1001342
           19          20
    1  -0.0875138  -0.0790841
 Analysis of SCF Wavefunction
 
 --------------------------------------------------------------
                    Orbital Energies (a.u.)
 --------------------------------------------------------------
 
 Alpha MOs
 -- Occupied --
-88.940 -10.711 -10.710  -8.571  -6.542  -6.532  -6.530  -1.450
 -1.150  -1.106  -0.957  -0.900  -0.804  -0.759  -0.741  -0.739
 -- Virtual --
 -0.137  -0.108  -0.095  -0.081  -0.069  -0.044  -0.032  -0.021
 -0.019  -0.019  -0.011   0.027   0.027   0.035   0.039   0.041
  0.051   0.051   0.062   0.086   0.118   0.153   0.169   0.186
  0.194   0.224   0.236   0.258   0.286   0.301   0.343   0.362
  0.398   0.467   0.481   0.483   0.511   0.519   0.525   0.537
  0.550   0.582   0.635   0.691   0.722   0.746   0.764   0.776
  0.806   0.830   0.884   0.896   0.900   0.937   0.938   0.981
  0.984   1.059   1.101   1.119   1.154   1.162   1.172   1.198
  1.229   1.252   1.281   1.286   1.344   1.367   1.382   1.402
  1.414   1.440   1.456   1.514   1.553   1.555   1.809   2.065
  2.136   2.475   2.487   2.664   2.664   2.773   2.805   2.820
  2.860   2.888   2.979   3.029   3.032   3.088   3.102   3.126
  3.134   3.146   3.267   3.330   3.367   3.380   3.403   3.410
  3.443   3.451   3.550   3.560   3.588   3.638   3.649   3.658
  3.721   3.829   3.860   3.977   3.983   4.021   4.107   4.200
  4.222   4.230   4.252   4.324   4.328   4.437   4.532   4.539
  4.615   4.658   4.833   4.956   5.110   5.132   5.326   5.393
  5.597   5.656   5.698   8.426  17.094  17.320  17.484  23.423
 23.524  23.569  23.629  23.689  24.130  24.320  27.494  27.804
 28.034  28.105  28.164  28.474  30.866  30.867  30.879  30.882
 30.887  30.896  30.929  40.938  41.003  41.025  41.125  41.169
 41.183  41.190  41.193  41.272  41.292 189.062
 
 Beta MOs
 -- Occupied --
-88.934 -10.712 -10.711  -8.566  -6.529  -6.526  -6.524  -1.424
 -1.104  -1.094  -0.930  -0.889  -0.795  -0.745  -0.737
 -- Virtual --
 -0.287  -0.135  -0.100  -0.088  -0.079  -0.069  -0.036  -0.032
 -0.021  -0.017  -0.011  -0.005   0.027   0.039   0.041   0.041
  0.044   0.052   0.062   0.067   0.100   0.130   0.154   0.186
  0.195   0.219   0.238   0.247   0.261   0.304   0.316   0.349
  0.375   0.399   0.470   0.483   0.484   0.513   0.522   0.525
  0.543   0.551   0.589   0.647   0.697   0.724   0.760   0.776
  0.803   0.807   0.853   0.902   0.904   0.918   0.941   0.952
  0.987   0.997   1.065   1.108   1.128   1.157   1.176   1.182
  1.211   1.248   1.252   1.282   1.287   1.346   1.369   1.383
  1.407   1.416   1.444   1.458   1.516   1.554   1.557   1.856
  2.071   2.142   2.476   2.488   2.664   2.666   2.775   2.806
  2.822   2.860   2.893   2.981   3.034   3.034   3.089   3.113
  3.128   3.138   3.146   3.272   3.330   3.372   3.381   3.403
  3.416   3.474   3.487   3.562   3.562   3.618   3.650   3.652
  3.661   3.740   3.831   3.861   3.980   3.984   4.022   4.109
  4.202   4.227   4.232   4.255   4.325   4.330   4.440   4.536
  4.540   4.626   4.671   4.833   4.967   5.113   5.139   5.329
  5.400   5.599   5.657   5.699   8.435  17.116  17.323  17.487
 23.435  23.537  23.581  23.636  23.692  24.130  24.320  27.493
 27.803  28.034  28.105  28.164  28.474  30.870  30.871  30.883
 30.885  30.890  30.899  30.930  40.938  41.003  41.025  41.125
 41.169  41.183  41.189  41.193  41.272  41.292 189.068
 --------------------------------------------------------------
 
          Ground-State Mulliken Net Atomic Charges

     Atom                 Charge (a.u.)    Spin (a.u.)
  --------------------------------------------------------
      1 C                     0.084452      -0.029567
      2 S                     0.285490       0.987429
      3 C                     0.084865      -0.029179
      4 H                     0.136225       0.017569
      5 H                     0.136398       0.018080
      6 H                     0.136222       0.017593
      7 H                     0.136348       0.018076
  --------------------------------------------------------
  Sum of atomic charges =     1.000000
  Sum of spin   charges =     1.000000

 -----------------------------------------------------------------
                    Cartesian Multipole Moments
 -----------------------------------------------------------------
    Charge (ESU x 10^10)
                 4.8032
    Dipole Moment (Debye)
         X      -0.0006      Y       1.0642      Z       0.0021
       Tot       1.0643
    Quadrupole Moments (Debye-Ang)
        XX     -18.8193     XY      -0.0003     YY     -17.5559
        XZ       0.0066     YZ      -0.0060     ZZ     -19.5149
    Octapole Moments (Debye-Ang^2)
       XXX      -0.0004    XXY       4.4914    XYY      -0.0011
       YYY      -2.9202    XXZ       0.0008    XYZ      -0.0007
       YYZ       0.0065    XZZ      -0.0001    YZZ       2.1048
       ZZZ       0.0017
    Hexadecapole Moments (Debye-Ang^3)
      XXXX     -71.2568   XXXY       0.0000   XXYY     -25.6709
      XYYY      -0.0001   YYYY    -114.3915   XXXZ       0.0083
      XXYZ      -0.0017   XYYZ       0.0096   YYYZ      -0.0172
      XXZZ     -12.1473   XYZZ      -0.0004   YYZZ     -21.0622
      XZZZ       0.0059   YZZZ      -0.0054   ZZZZ     -29.3149
 -----------------------------------------------------------------
 Total job time:  113.55s(wall), 113.13s(cpu) 
 Sun Jul  7 08:49:01 2013

        *************************************************************
        *                                                           *
        *  Thank you very much for using Q-Chem.  Have a nice day.  *
        *                                                           *
        *************************************************************


0 sent ACK to 0 
now end server 0 ... 
