Process 0 of 1 is on cl200.stfx.acenet.ca - thread support 1
initial socket setup ...start
initial socket setup ...done 
now start server 0 ... 

cmd = /usr/bin/ssh clhead /usr/local/qchem/bin/get_hostid 1084264485 > /scratch/tmp/6065097.1.medium.q/qchem526/lic.dat
                  Welcome to Q-Chem
     A Quantum Leap Into The Future Of Chemistry

 Y. Shao, L. Fusti-Molnar, Y. Jung, J. Kussmann, C. Ochsenfeld,
 S. T. Brown, A. T. B. Gilbert, L. V. Slipchenko,S. V. Levchenko,
 D. P. O'Neill, R. A. DiStasio Jr., R. C. Lochan, T. Wang,
 G. J. O. Beran, N. A. Besley, J. M. Herbert, C. Y. Lin,
 T. Van Voorhis, S. H. Chien, A. Sodt, R. P. Steele, 
 V. A. Rassolov, P. E. Maslen, P. P. Korambath, R. D. Adamson,
 B. Austin, J. Baker, E. F. C. Byrd, H. Dachsel, R. J. Doerksen,
 A. Dreuw, B. D. Dunietz, A. D. Dutoi, T. R. Furlani,
 S. R. Gwaltney, A. Heyden, S. Hirata, C.-P. Hsu, G. Kedziora,
 R. Z. Khaliullin, P. Klunzinger, A. M. Lee, M. S. Lee, W. Liang,
 I. Lotan, N. Nair, B. Peters, E. I. Proynov, P. A. Pieniazek, 
 Y. M. Rhee, J. Ritchie, E. Rosta, C. D. Sherrill, 
 A. C. Simmonett, J. E. Subotnik, H. L. Woodcock III,
 W. Zhang, A. T. Bell, A. K. Chakraborty, D. M. Chipman,
 F. J. Keil, A. Warshel, W. J. Hehre, H. F. Schaefer III,
 J. Kong, A. I. Krylov, P. M. W. Gill, M. Head-Gordon,
 Q-Chem, Version 3.1, Q-Chem, Inc., Pittsburgh, PA (2007).

 Additional authors for Version 3.1: 
 Z. Gan, Y. Zhao, N. E. Schultz, D. Truhlar, E. Epifanovsky and M. Oana.

 Additional authors for Version 3.2: 
 R. Baer, B. R. Brooks, D. Casanova, J.-D. Chai, C.-L. Cheng, 
 C. Cramer, D. Crittenden, A. Ghysels, G. Hawkins, E. G. Hohenstein, 
 C. Kelley, W. Kurlancheek, D. Liotard, E. Livshits, P. Manohar, 
 A. Marenich, D. Neuhauser, R. Olson, M. A. Rohrdanz, K. S. Thanthiriwatte, 
 A. J. W. Thom, V. Vanovschi, C. F. Williams, Q. Wu and Z.-Q. You. 


 Intel X86 Linux Version

 Q-chem begins on Mon Jul  8 16:55:36 2013  

 Parallel job on  1  processors
Processing $rem in /usr/local/qchem/config/preferences.

theFileMan(): MAXOPENFILES=974 MAX_SUB_FILE_NUM=16
Maximum size of a physical file is 2.0 GB, maximum size of a tmp-file is 32.0 GB


--------------------------------------------------------------
User input:
--------------------------------------------------------------

$molecule
-1,2
C          0.00000        0.00000        0.01177
Cl        -0.00002        0.00000        1.77233
H          1.02690        0.00000       -0.33985
H         -0.51345       -0.88931       -0.33981
H         -0.51345        0.88931       -0.33981
$end

$comment
negative
$end

$xc_functional
C PBE   1.00
X wPBE  1.00
$end

$rem
SYMMETRY_DECOMPOSITION	0
exchange 		general
LRC_DFT                 true
BASIS                   g3large
omega			390
mem_static              760
max_scf_cycles          200
scf_final_print         1
sym_ignore              true
$end

--------------------------------------------------------------
 Writing REM_CC_EA            5
 ----------------------------------------------------
       Standard Nuclear Orientation (Angstroms)
    I     Atom         X            Y            Z
 ----------------------------------------------------
    1      C       0.000000     0.000000     0.011770
    2      Cl     -0.000020     0.000000     1.772330
    3      H       1.026900     0.000000    -0.339850
    4      H      -0.513450    -0.889310    -0.339810
    5      H      -0.513450     0.889310    -0.339810
 ----------------------------------------------------
 Nuclear Repulsion Energy =    51.8179865038 hartrees
 There are       14 alpha and       13 beta electrons
 Requested basis set is G3large
 There are 47 shells and 138 basis functions

Total QAlloc Memory Limit   2000 MB
Mega-Array Size       743 MB
MEM_STATIC part       760 MB

                       Distance Matrix (Angstroms)
             C (  1)   Cl(  2)   H (  3)   H (  4)
   Cl(  2)  1.760560
   H (  3)  1.085431  2.348589
   H (  4)  1.085409  2.348535  1.778637
   H (  5)  1.085409  2.348535  1.778637  1.778620
 
 A cutoff of  1.0D-08 yielded   1082 shell pairs
 There are   9427 function pairs ( 12263 Cartesian)
Evaluating contribution to one-electron hamiltonian from nuclear
 Smallest overlap matrix eigenvalue = 3.55E-04
 Multipole matrices computed through 2nd order

  Scale SEOQF with 1.000000e-01/1.000000e-01/1.000000e-01

 Standard Electronic Orientation quadrupole field applied
 Nucleus-field energy     =    -0.0000000056 hartrees
 Guess from superposition of atomic densities
 Warning:  Energy on first SCF cycle will be non-variational
 Long-range K will be added via erf
 Coulomb attenuation parameter = 0.39 bohr**(-1)
 An unrestricted Kohn-Sham SCF calculation will be
 performed using Pulay DIIS extrapolation
 Exchange:  wPBE + LR-HF      Correlation:  PBE
 Using SG-1 standard quadrature grid
 SCF converges when DIIS error is below 1.0E-05
 Requested basis set is G3large
 There are 47 shells and 138 basis functions
 A cutoff of  1.0D-08 yielded   1082 shell pairs
 There are   9427 function pairs ( 12263 Cartesian)
 Warning!  Inaccurate integrated density:
   Number of electrons =    27
   Numerical integral  =    26.000009345257
   Relative error      =    -3.7036690916 %
 ---------------------------------------
  Cycle       Energy         DIIS Error
 ---------------------------------------
    1    -500.1901737055      3.00E-02
    2    -499.8155077034      4.17E-03
    3    -499.8692657310      4.50E-03
    4    -499.9138995100      1.00E-03
    5    -499.9236097489      6.48E-04
    6    -499.9299289228      3.00E-04
    7    -499.9337342217      1.12E-04
    8    -499.9347028689      5.95E-05
    9    -499.9350700307      3.66E-05
   10    -499.9352304389      1.53E-05
   11    -499.9352492341      6.09E-06 Convergence criterion met
 ---------------------------------------
 One-Electron    Energy =  -795.0262946479
 Total Coulomb   Energy =   277.9838756550
 Alpha Exchange  Energy =    -2.6693788066
 Beta  Exchange  Energy =    -2.5974346670
 DFT   Exchange  Energy =   -28.4898728989
 DFT Correlation Energy =    -0.9541303668
 Nuclear Repu.   Energy =    51.8179864982
 Nuclear Attr.   Energy = -1294.2647730697
 Kinetic         Energy =   499.2384784218
 <S^2> = 0.7501
 SCF time:  CPU 61.81 s  wall 62.36 s
 Final Alpha MO Eigenvalues
            1           2           3           4           5           6
    1-100.7269602  -9.9969436  -9.2496505  -7.0680202  -7.0583979  -7.0583972
            7           8           9          10          11          12
    1  -0.8635959  -0.6684379  -0.4282276  -0.4282141  -0.3940791  -0.2786795
           13          14          15          16          17          18
    1  -0.2786761   0.0249159   0.1584718   0.1585148   0.1823643   0.2421751
           19
    1   0.2575453
 Final Beta MO Eigenvalues
            1           2           3           4           5           6
    1-100.7269001  -9.9960994  -9.2495917  -7.0678069  -7.0583814  -7.0583811
            7           8           9          10          11          12
    1  -0.8628922  -0.6662279  -0.4272356  -0.4272220  -0.3922965  -0.2782442
           13          14          15          16          17          18
    1  -0.2782403   0.1498745   0.1770315   0.1771129   0.1866095   0.2463249
 Analysis of SCF Wavefunction
 
 --------------------------------------------------------------
                    Orbital Energies (a.u.)
 --------------------------------------------------------------
 
 Alpha MOs
 -- Occupied --
*******  -9.997  -9.250  -7.068  -7.058  -7.058  -0.864  -0.668
 -0.428  -0.428  -0.394  -0.279  -0.279   0.025
 -- Virtual --
  0.158   0.159   0.182   0.242   0.258   0.258   0.269   0.269
  0.272   0.321   0.352   0.381   0.381   0.462   0.512   0.512
  0.546   0.546   0.618   0.652   0.668   0.668   0.720   0.720
  0.791   0.791   0.846   0.867   0.959   0.995   0.995   1.104
  1.198   1.198   1.236   1.274   1.274   1.322   1.353   1.353
  1.367   1.367   1.391   1.456   1.474   1.606   1.606   1.617
  1.651   1.651   1.682   1.682   1.768   1.807   1.807   1.929
  2.437   2.437   2.550   2.709   2.709   2.770   3.162   3.198
  3.319   3.319   3.410   3.410   3.552   3.552   3.658   3.753
  3.753   3.815   4.093   4.093   4.129   4.336   4.336   4.484
  4.538   4.538   4.577   4.621   4.655   4.655   4.716   4.792
  4.792   4.881   5.270   5.272   5.327   5.427   5.427   5.881
  5.881   5.958   9.946  20.743  20.743  20.961  24.270  27.239
 27.294  27.320  27.365  27.365  28.134  28.185  28.185  36.963
 36.964  36.968  36.968  36.976  36.976  36.987  41.056  41.076
 41.289  41.320  41.374 215.810
 
 Beta MOs
 -- Occupied --
*******  -9.996  -9.250  -7.068  -7.058  -7.058  -0.863  -0.666
 -0.427  -0.427  -0.392  -0.278  -0.278
 -- Virtual --
  0.150   0.177   0.177   0.187   0.246   0.258   0.258   0.267
  0.267   0.281   0.324   0.352   0.383   0.383   0.458   0.513
  0.513   0.546   0.546   0.617   0.652   0.667   0.667   0.720
  0.720   0.789   0.789   0.845   0.866   0.960   0.996   0.996
  1.105   1.199   1.199   1.236   1.274   1.274   1.322   1.354
  1.354   1.367   1.367   1.391   1.456   1.475   1.606   1.606
  1.616   1.651   1.651   1.683   1.683   1.769   1.808   1.808
  1.929   2.438   2.438   2.551   2.709   2.709   2.769   3.163
  3.199   3.320   3.320   3.411   3.411   3.553   3.553   3.659
  3.754   3.754   3.817   4.094   4.094   4.129   4.337   4.337
  4.484   4.538   4.538   4.577   4.621   4.656   4.656   4.716
  4.792   4.792   4.882   5.270   5.272   5.328   5.427   5.427
  5.882   5.882   5.958   9.946  20.743  20.743  20.961  24.271
 27.239  27.294  27.320  27.365  27.365  28.134  28.186  28.186
 36.963  36.964  36.968  36.968  36.976  36.976  36.987  41.057
 41.076  41.289  41.320  41.374 215.810
 --------------------------------------------------------------
 
          Ground-State Mulliken Net Atomic Charges

     Atom                 Charge (a.u.)    Spin (a.u.)
  --------------------------------------------------------
      1 C                     3.687588      -3.643013
      2 Cl                   -1.042822       0.723501
      3 H                    -1.216923       1.308566
      4 H                    -1.216708       1.308361
      5 H                    -1.211135       1.302586
  --------------------------------------------------------
  Sum of atomic charges =    -1.000000
  Sum of spin   charges =     1.000000

 -----------------------------------------------------------------
                    Cartesian Multipole Moments
 -----------------------------------------------------------------
    Charge (ESU x 10^10)
                -4.8032
    Dipole Moment (Debye)
         X      -0.0088      Y       0.0183      Z       3.3324
       Tot       3.3324
    Quadrupole Moments (Debye-Ang)
        XX     -43.0636     XY      -0.0147     YY     -43.0450
        XZ       0.0089     YZ      -0.0181     ZZ     -45.5276
    Octapole Moments (Debye-Ang^2)
       XXX      -4.4845    XXY       0.0661    XYY       4.3431
       YYY       0.1984    XXZ      -1.7515    XYZ       0.0086
       YYZ      -1.7625    XZZ      -0.0334    YZZ       0.0620
       ZZZ     -18.0375
    Hexadecapole Moments (Debye-Ang^3)
      XXXX    -289.6981   XXXY      -0.1141   XXYY     -96.5040
      XYYY      -0.1335   YYYY    -289.3681   XXXZ       2.5633
      XXYZ      -0.0483   XYYZ      -2.4622   YYYZ      -0.1450
      XXZZ    -134.0332   XYZZ      -0.0391   YYZZ    -133.9801
      XZZZ       0.0737   YZZZ      -0.1361   ZZZZ    -490.8876
 -----------------------------------------------------------------
 Total job time:  62.52s(wall), 61.97s(cpu) 
 Mon Jul  8 16:56:38 2013

        *************************************************************
        *                                                           *
        *  Thank you very much for using Q-Chem.  Have a nice day.  *
        *                                                           *
        *************************************************************


0 sent ACK to 0 
now end server 0 ... 
 
**********************************************************************
Job 2 of 3 
**********************************************************************
 
Process 0 of 1 is on cl200.stfx.acenet.ca - thread support 1
initial socket setup ...start
initial socket setup ...done 
now start server 0 ... 

cmd = /usr/bin/ssh clhead /usr/local/qchem/bin/get_hostid 30113279 > /scratch/tmp/6065097.1.medium.q/qchem526/lic.dat
                  Welcome to Q-Chem
     A Quantum Leap Into The Future Of Chemistry

 Y. Shao, L. Fusti-Molnar, Y. Jung, J. Kussmann, C. Ochsenfeld,
 S. T. Brown, A. T. B. Gilbert, L. V. Slipchenko,S. V. Levchenko,
 D. P. O'Neill, R. A. DiStasio Jr., R. C. Lochan, T. Wang,
 G. J. O. Beran, N. A. Besley, J. M. Herbert, C. Y. Lin,
 T. Van Voorhis, S. H. Chien, A. Sodt, R. P. Steele, 
 V. A. Rassolov, P. E. Maslen, P. P. Korambath, R. D. Adamson,
 B. Austin, J. Baker, E. F. C. Byrd, H. Dachsel, R. J. Doerksen,
 A. Dreuw, B. D. Dunietz, A. D. Dutoi, T. R. Furlani,
 S. R. Gwaltney, A. Heyden, S. Hirata, C.-P. Hsu, G. Kedziora,
 R. Z. Khaliullin, P. Klunzinger, A. M. Lee, M. S. Lee, W. Liang,
 I. Lotan, N. Nair, B. Peters, E. I. Proynov, P. A. Pieniazek, 
 Y. M. Rhee, J. Ritchie, E. Rosta, C. D. Sherrill, 
 A. C. Simmonett, J. E. Subotnik, H. L. Woodcock III,
 W. Zhang, A. T. Bell, A. K. Chakraborty, D. M. Chipman,
 F. J. Keil, A. Warshel, W. J. Hehre, H. F. Schaefer III,
 J. Kong, A. I. Krylov, P. M. W. Gill, M. Head-Gordon,
 Q-Chem, Version 3.1, Q-Chem, Inc., Pittsburgh, PA (2007).

 Additional authors for Version 3.1: 
 Z. Gan, Y. Zhao, N. E. Schultz, D. Truhlar, E. Epifanovsky and M. Oana.

 Additional authors for Version 3.2: 
 R. Baer, B. R. Brooks, D. Casanova, J.-D. Chai, C.-L. Cheng, 
 C. Cramer, D. Crittenden, A. Ghysels, G. Hawkins, E. G. Hohenstein, 
 C. Kelley, W. Kurlancheek, D. Liotard, E. Livshits, P. Manohar, 
 A. Marenich, D. Neuhauser, R. Olson, M. A. Rohrdanz, K. S. Thanthiriwatte, 
 A. J. W. Thom, V. Vanovschi, C. F. Williams, Q. Wu and Z.-Q. You. 


 Intel X86 Linux Version

 Q-chem begins on Mon Jul  8 16:56:41 2013  

 Parallel job on  1  processors
Processing $rem in /usr/local/qchem/config/preferences.

theFileMan(): MAXOPENFILES=974 MAX_SUB_FILE_NUM=16
Maximum size of a physical file is 2.0 GB, maximum size of a tmp-file is 32.0 GB


--------------------------------------------------------------
User input:
--------------------------------------------------------------

$molecule
0,1
C          0.00000        0.00000        0.01177
Cl        -0.00002        0.00000        1.77233
H          1.02690        0.00000       -0.33985
H         -0.51345       -0.88931       -0.33981
H         -0.51345        0.88931       -0.33981
$end

$comment
neutral
$end

$xc_functional
C PBE   1.00
X wPBE  1.00
$end


$rem
SYMMETRY_DECOMPOSITION	0
LRC_DFT                 true
exchange 		general
BASIS                   g3large
omega			390
mem_static              760
max_scf_cycles          200
scf_final_print         1
sym_ignore              true
$end

--------------------------------------------------------------
 Writing REM_CC_EA            5
 ----------------------------------------------------
       Standard Nuclear Orientation (Angstroms)
    I     Atom         X            Y            Z
 ----------------------------------------------------
    1      C       0.000000     0.000000     0.011770
    2      Cl     -0.000020     0.000000     1.772330
    3      H       1.026900     0.000000    -0.339850
    4      H      -0.513450    -0.889310    -0.339810
    5      H      -0.513450     0.889310    -0.339810
 ----------------------------------------------------
 Nuclear Repulsion Energy =    51.8179865038 hartrees
 There are       13 alpha and       13 beta electrons
 Requested basis set is G3large
 There are 47 shells and 138 basis functions

Total QAlloc Memory Limit   2000 MB
Mega-Array Size       743 MB
MEM_STATIC part       760 MB

                       Distance Matrix (Angstroms)
             C (  1)   Cl(  2)   H (  3)   H (  4)
   Cl(  2)  1.760560
   H (  3)  1.085431  2.348589
   H (  4)  1.085409  2.348535  1.778637
   H (  5)  1.085409  2.348535  1.778637  1.778620
 
 A cutoff of  1.0D-08 yielded   1082 shell pairs
 There are   9427 function pairs ( 12263 Cartesian)
Evaluating contribution to one-electron hamiltonian from nuclear
 Smallest overlap matrix eigenvalue = 3.55E-04
 Multipole matrices computed through 2nd order

  Scale SEOQF with 1.000000e-01/1.000000e-01/1.000000e-01

 Standard Electronic Orientation quadrupole field applied
 Nucleus-field energy     =    -0.0000000056 hartrees
 Guess from superposition of atomic densities
 Warning:  Energy on first SCF cycle will be non-variational
 Long-range K will be added via erf
 Coulomb attenuation parameter = 0.39 bohr**(-1)
 A restricted Kohn-Sham SCF calculation will be
 performed using Pulay DIIS extrapolation
 Exchange:  wPBE + LR-HF      Correlation:  PBE
 Using SG-1 standard quadrature grid
 SCF converges when DIIS error is below 1.0E-05
 Requested basis set is G3large
 There are 47 shells and 138 basis functions
 A cutoff of  1.0D-08 yielded   1082 shell pairs
 There are   9427 function pairs ( 12263 Cartesian)
 ---------------------------------------
  Cycle       Energy         DIIS Error
 ---------------------------------------
    1    -500.1901737055      3.00E-02
    2    -499.9475258833      2.49E-03
    3    -499.9620034336      1.27E-03
    4    -499.9643877290      3.19E-04
    5    -499.9646190709      9.25E-05
    6    -499.9646481322      2.69E-05
    7    -499.9646515391      7.00E-06 Convergence criterion met
 ---------------------------------------
 One-Electron    Energy =  -791.3972218628
 Total Coulomb   Energy =   274.2394281223
 Alpha Exchange  Energy =    -2.5987207486
 Beta  Exchange  Energy =    -2.5987207486
 DFT   Exchange  Energy =   -28.4811184285
 DFT Correlation Energy =    -0.9462843711
 Nuclear Repu.   Energy =    51.8179864982
 Nuclear Attr.   Energy = -1290.5565455180
 Kinetic         Energy =   499.1593236551
 SCF time:  CPU 31.96 s  wall 32.42 s
 Final Alpha MO Eigenvalues
            1           2           3           4           5           6
    1-100.8626112 -10.1515772  -9.3851506  -7.2041143  -7.1936081  -7.1936054
            7           8           9          10          11          12
    1  -1.0027061  -0.8154765  -0.5782913  -0.5782865  -0.5340896  -0.4151734
           13          14          15          16          17          18
    1  -0.4151691   0.0362619   0.0688234   0.0688296   0.0782548   0.1331839
 Analysis of SCF Wavefunction
 
 --------------------------------------------------------------
                    Orbital Energies (a.u.)
 --------------------------------------------------------------
 
 Alpha MOs
 -- Occupied --
******* -10.152  -9.385  -7.204  -7.194  -7.194  -1.003  -0.815
 -0.578  -0.578  -0.534  -0.415  -0.415
 -- Virtual --
  0.036   0.069   0.069   0.078   0.133   0.151   0.151   0.153
  0.155   0.155   0.194   0.235   0.242   0.242   0.328   0.379
  0.379   0.415   0.415   0.481   0.522   0.522   0.533   0.592
  0.592   0.649   0.649   0.704   0.723   0.818   0.849   0.849
  0.949   1.058   1.058   1.096   1.133   1.133   1.180   1.216
  1.216   1.222   1.222   1.259   1.323   1.329   1.465   1.465
  1.477   1.502   1.502   1.534   1.534   1.620   1.669   1.669
  1.792   2.304   2.304   2.412   2.557   2.557   2.619   3.008
  3.048   3.168   3.168   3.258   3.258   3.402   3.402   3.513
  3.601   3.601   3.663   3.941   3.941   3.976   4.183   4.183
  4.333   4.386   4.386   4.439   4.486   4.520   4.520   4.565
  4.653   4.653   4.742   5.136   5.138   5.175   5.290   5.290
  5.727   5.727   5.819   9.811  20.608  20.608  20.825  24.116
 27.104  27.154  27.185  27.229  27.229  27.983  28.031  28.031
 36.828  36.829  36.832  36.833  36.840  36.840  36.851  40.902
 40.922  41.135  41.166  41.219 215.675
 --------------------------------------------------------------
 
          Ground-State Mulliken Net Atomic Charges

     Atom                 Charge (a.u.)
  ----------------------------------------
      1 C                     0.007492
      2 Cl                   -0.276821
      3 H                     0.089791
      4 H                     0.089782
      5 H                     0.089756
  ----------------------------------------
  Sum of atomic charges =     0.000000

 -----------------------------------------------------------------
                    Cartesian Multipole Moments
 -----------------------------------------------------------------
    Charge (ESU x 10^10)
                 0.0000
    Dipole Moment (Debye)
         X       0.0003      Y      -0.0001      Z      -1.9389
       Tot       1.9389
    Quadrupole Moments (Debye-Ang)
        XX     -19.8255     XY       0.0000     YY     -19.8256
        XZ       0.0006     YZ      -0.0001     ZZ     -22.4251
    Octapole Moments (Debye-Ang^2)
       XXX       0.8499    XXY       0.0000    XYY      -0.8485
       YYY      -0.0001    XXZ     -23.2923    XYZ      -0.0002
       YYZ     -23.2923    XZZ       0.0024    YZZ      -0.0019
       ZZZ     -66.3019
    Hexadecapole Moments (Debye-Ang^3)
      XXXX     -28.5875   XXXY       0.0001   XXYY      -9.5293
      XYYY       0.0001   YYYY     -28.5877   XXXZ      -0.3042
      XXYZ       0.0001   XYYZ       0.3072   YYYZ       0.0003
      XXZZ     -50.9679   XYZZ      -0.0002   YYZZ     -50.9681
      XZZZ       0.0070   YZZZ      -0.0059   ZZZZ    -253.1290
 -----------------------------------------------------------------
 Total job time:  32.57s(wall), 32.11s(cpu) 
 Mon Jul  8 16:57:14 2013

        *************************************************************
        *                                                           *
        *  Thank you very much for using Q-Chem.  Have a nice day.  *
        *                                                           *
        *************************************************************


0 sent ACK to 0 
now end server 0 ... 
 
**********************************************************************
Job 3 of 3 
**********************************************************************
 
Process 0 of 1 is on cl200.stfx.acenet.ca - thread support 1
initial socket setup ...start
initial socket setup ...done 
now start server 0 ... 

cmd = /usr/bin/ssh clhead /usr/local/qchem/bin/get_hostid 122540566 > /scratch/tmp/6065097.1.medium.q/qchem526/lic.dat
                  Welcome to Q-Chem
     A Quantum Leap Into The Future Of Chemistry

 Y. Shao, L. Fusti-Molnar, Y. Jung, J. Kussmann, C. Ochsenfeld,
 S. T. Brown, A. T. B. Gilbert, L. V. Slipchenko,S. V. Levchenko,
 D. P. O'Neill, R. A. DiStasio Jr., R. C. Lochan, T. Wang,
 G. J. O. Beran, N. A. Besley, J. M. Herbert, C. Y. Lin,
 T. Van Voorhis, S. H. Chien, A. Sodt, R. P. Steele, 
 V. A. Rassolov, P. E. Maslen, P. P. Korambath, R. D. Adamson,
 B. Austin, J. Baker, E. F. C. Byrd, H. Dachsel, R. J. Doerksen,
 A. Dreuw, B. D. Dunietz, A. D. Dutoi, T. R. Furlani,
 S. R. Gwaltney, A. Heyden, S. Hirata, C.-P. Hsu, G. Kedziora,
 R. Z. Khaliullin, P. Klunzinger, A. M. Lee, M. S. Lee, W. Liang,
 I. Lotan, N. Nair, B. Peters, E. I. Proynov, P. A. Pieniazek, 
 Y. M. Rhee, J. Ritchie, E. Rosta, C. D. Sherrill, 
 A. C. Simmonett, J. E. Subotnik, H. L. Woodcock III,
 W. Zhang, A. T. Bell, A. K. Chakraborty, D. M. Chipman,
 F. J. Keil, A. Warshel, W. J. Hehre, H. F. Schaefer III,
 J. Kong, A. I. Krylov, P. M. W. Gill, M. Head-Gordon,
 Q-Chem, Version 3.1, Q-Chem, Inc., Pittsburgh, PA (2007).

 Additional authors for Version 3.1: 
 Z. Gan, Y. Zhao, N. E. Schultz, D. Truhlar, E. Epifanovsky and M. Oana.

 Additional authors for Version 3.2: 
 R. Baer, B. R. Brooks, D. Casanova, J.-D. Chai, C.-L. Cheng, 
 C. Cramer, D. Crittenden, A. Ghysels, G. Hawkins, E. G. Hohenstein, 
 C. Kelley, W. Kurlancheek, D. Liotard, E. Livshits, P. Manohar, 
 A. Marenich, D. Neuhauser, R. Olson, M. A. Rohrdanz, K. S. Thanthiriwatte, 
 A. J. W. Thom, V. Vanovschi, C. F. Williams, Q. Wu and Z.-Q. You. 


 Intel X86 Linux Version

 Q-chem begins on Mon Jul  8 16:57:16 2013  

 Parallel job on  1  processors
Processing $rem in /usr/local/qchem/config/preferences.

theFileMan(): MAXOPENFILES=974 MAX_SUB_FILE_NUM=16
Maximum size of a physical file is 2.0 GB, maximum size of a tmp-file is 32.0 GB


--------------------------------------------------------------
User input:
--------------------------------------------------------------

$molecule
1,2
C          0.00000        0.00000        0.01177
Cl        -0.00002        0.00000        1.77233
H          1.02690        0.00000       -0.33985
H         -0.51345       -0.88931       -0.33981
H         -0.51345        0.88931       -0.33981
$end

$comment
positive
$end

$xc_functional
C PBE   1.00
X wPBE  1.00
$end

$rem
SYMMETRY_DECOMPOSITION	0
LRC_DFT                 true
exchange 		general
BASIS                   g3large
omega			390
mem_static              760
max_scf_cycles          200
scf_final_print         1
sym_ignore              true
$end

--------------------------------------------------------------
 Writing REM_CC_EA            5
 ----------------------------------------------------
       Standard Nuclear Orientation (Angstroms)
    I     Atom         X            Y            Z
 ----------------------------------------------------
    1      C       0.000000     0.000000     0.011770
    2      Cl     -0.000020     0.000000     1.772330
    3      H       1.026900     0.000000    -0.339850
    4      H      -0.513450    -0.889310    -0.339810
    5      H      -0.513450     0.889310    -0.339810
 ----------------------------------------------------
 Nuclear Repulsion Energy =    51.8179865038 hartrees
 There are       13 alpha and       12 beta electrons
 Requested basis set is G3large
 There are 47 shells and 138 basis functions

Total QAlloc Memory Limit   2000 MB
Mega-Array Size       743 MB
MEM_STATIC part       760 MB

                       Distance Matrix (Angstroms)
             C (  1)   Cl(  2)   H (  3)   H (  4)
   Cl(  2)  1.760560
   H (  3)  1.085431  2.348589
   H (  4)  1.085409  2.348535  1.778637
   H (  5)  1.085409  2.348535  1.778637  1.778620
 
 A cutoff of  1.0D-08 yielded   1082 shell pairs
 There are   9427 function pairs ( 12263 Cartesian)
Evaluating contribution to one-electron hamiltonian from nuclear
 Smallest overlap matrix eigenvalue = 3.55E-04
 Multipole matrices computed through 2nd order

  Scale SEOQF with 1.000000e-01/1.000000e-01/1.000000e-01

 Standard Electronic Orientation quadrupole field applied
 Nucleus-field energy     =    -0.0000000056 hartrees
 Guess from superposition of atomic densities
 Warning:  Energy on first SCF cycle will be non-variational
 Long-range K will be added via erf
 Coulomb attenuation parameter = 0.39 bohr**(-1)
 An unrestricted Kohn-Sham SCF calculation will be
 performed using Pulay DIIS extrapolation
 Exchange:  wPBE + LR-HF      Correlation:  PBE
 Using SG-1 standard quadrature grid
 SCF converges when DIIS error is below 1.0E-05
 Requested basis set is G3large
 There are 47 shells and 138 basis functions
 A cutoff of  1.0D-08 yielded   1082 shell pairs
 There are   9427 function pairs ( 12263 Cartesian)
 Warning!  Inaccurate integrated density:
   Number of electrons =    25
   Numerical integral  =    26.000009345257
   Relative error      =     4.0000373810 %
 ---------------------------------------
  Cycle       Energy         DIIS Error
 ---------------------------------------
    1    -500.1901737055      3.00E-02
    2    -499.4986905734      3.47E-03
    3    -499.5362782079      2.00E-03
    4    -499.5438659760      2.93E-04
    5    -499.5452013250      1.98E-04
    6    -499.5456463827      1.01E-04
    7    -499.5459544183      5.95E-05
    8    -499.5460760155      1.26E-05
    9    -499.5460829463      4.95E-06 Convergence criterion met
 ---------------------------------------
 One-Electron    Energy =  -782.6655271589
 Total Coulomb   Energy =   265.5826368470
 Alpha Exchange  Energy =    -2.6146961685
 Beta  Exchange  Energy =    -2.4122258486
 DFT   Exchange  Energy =   -28.3473555018
 DFT Correlation Energy =    -0.9069016137
 Nuclear Repu.   Energy =    51.8179864982
 Nuclear Attr.   Energy = -1281.4402466341
 Kinetic         Energy =   498.7747194752
 <S^2> = 0.7550
 SCF time:  CPU 48.87 s  wall 49.44 s
 Final Alpha MO Eigenvalues
            1           2           3           4           5           6
    1-101.2622192 -10.4217075  -9.7780997  -7.6033312  -7.5913043  -7.5811161
            7           8           9          10          11          12
    1  -1.3534602  -1.1073427  -0.8840014  -0.8541064  -0.8487612  -0.7744120
           13          14          15          16          17          18
    1  -0.7364069  -0.1653412  -0.1168061  -0.0773366  -0.0730992  -0.0595585
 Final Beta MO Eigenvalues
            1           2           3           4           5           6
    1-101.2563945 -10.4212103  -9.7728021  -7.5881702  -7.5879597  -7.5771765
            7           8           9          10          11          12
    1  -1.3147394  -1.0874078  -0.8480226  -0.8378043  -0.8255886  -0.7249992
           13          14          15          16          17
    1  -0.4199566  -0.1540153  -0.1152291  -0.0753092  -0.0726879
 Analysis of SCF Wavefunction
 
 --------------------------------------------------------------
                    Orbital Energies (a.u.)
 --------------------------------------------------------------
 
 Alpha MOs
 -- Occupied --
******* -10.422  -9.778  -7.603  -7.591  -7.581  -1.353  -1.107
 -0.884  -0.854  -0.849  -0.774  -0.736
 -- Virtual --
 -0.165  -0.117  -0.077  -0.073  -0.060  -0.034  -0.032  -0.031
 -0.016  -0.011   0.024   0.040   0.048   0.052   0.078   0.087
  0.132   0.143   0.145   0.255   0.297   0.301   0.304   0.331
  0.348   0.427   0.434   0.454   0.505   0.567   0.583   0.598
  0.719   0.769   0.784   0.811   0.847   0.849   0.873   0.879
  0.897   0.946   0.970   0.974   1.025   1.072   1.172   1.181
  1.193   1.252   1.264   1.276   1.279   1.375   1.385   1.402
  1.512   1.942   1.980   2.099   2.290   2.301   2.364   2.749
  2.774   2.897   2.906   2.990   2.998   3.130   3.136   3.220
  3.336   3.338   3.394   3.672   3.679   3.712   3.912   3.915
  4.033   4.053   4.100   4.101   4.106   4.144   4.154   4.291
  4.296   4.324   4.402   4.746   4.747   4.907   4.910   4.937
  5.458   5.466   5.470   9.429  20.199  20.223  20.441  23.846
 26.704  26.776  26.794  26.829  26.846  27.692  27.760  27.762
 36.430  36.432  36.438  36.440  36.444  36.459  36.466  40.631
 40.651  40.864  40.895  40.949 215.277
 
 Beta MOs
 -- Occupied --
******* -10.421  -9.773  -7.588  -7.588  -7.577  -1.315  -1.087
 -0.848  -0.838  -0.826  -0.725
 -- Virtual --
 -0.420  -0.154  -0.115  -0.075  -0.073  -0.056  -0.031  -0.028
 -0.027  -0.011  -0.010   0.025   0.049   0.050   0.056   0.107
  0.112   0.147   0.159   0.162   0.261   0.302   0.308   0.308
  0.352   0.354   0.433   0.435   0.462   0.510   0.570   0.597
  0.600   0.723   0.787   0.789   0.829   0.862   0.863   0.903
  0.906   0.917   0.975   0.978   0.979   1.037   1.082   1.189
  1.191   1.206   1.264   1.266   1.284   1.284   1.383   1.403
  1.404   1.522   1.990   1.992   2.106   2.301   2.305   2.370
  2.754   2.776   2.903   2.907   2.997   3.000   3.135   3.137
  3.223   3.340   3.341   3.396   3.679   3.681   3.718   3.924
  3.925   4.059   4.107   4.117   4.118   4.151   4.178   4.181
  4.301   4.330   4.330   4.417   4.762   4.766   4.915   4.928
  4.939   5.469   5.474   5.476   9.441  20.223  20.230  20.445
 23.847  26.717  26.789  26.799  26.842  26.848  27.693  27.762
 27.762  36.436  36.437  36.443  36.444  36.449  36.460  36.468
 40.631  40.653  40.865  40.895  40.950 215.283
 --------------------------------------------------------------
 
          Ground-State Mulliken Net Atomic Charges

     Atom                 Charge (a.u.)    Spin (a.u.)
  --------------------------------------------------------
      1 C                     0.087448       0.014033
      2 Cl                    0.436871       0.884022
      3 H                     0.158378       0.033171
      4 H                     0.148956       0.005657
      5 H                     0.168346       0.063116
  --------------------------------------------------------
  Sum of atomic charges =     1.000000
  Sum of spin   charges =     1.000000

 -----------------------------------------------------------------
                    Cartesian Multipole Moments
 -----------------------------------------------------------------
    Charge (ESU x 10^10)
                 4.8032
    Dipole Moment (Debye)
         X      -0.0019      Y       0.1002      Z       3.8601
       Tot       3.8614
    Quadrupole Moments (Debye-Ang)
        XX     -15.7447     XY      -0.8562     YY     -15.6895
        XZ       0.0042     YZ      -0.1137     ZZ      -7.3835
    Octapole Moments (Debye-Ang^2)
       XXX       1.2426    XXY       0.0381    XYY      -1.2437
       YYY       0.1142    XXZ     -18.7060    XYZ      -1.3023
       YYZ     -18.6210    XZZ       0.0036    YZZ      -0.0301
       ZZZ     -35.2602
    Hexadecapole Moments (Debye-Ang^3)
      XXXX     -19.7011   XXXY      -0.7013   XXYY      -6.5507
      XYYY      -0.7246   YYYY     -19.6100   XXXZ      -0.5746
      XXYZ      -0.0569   XYYZ       0.5858   YYYZ      -0.1711
      XXZZ     -38.6527   XYZZ      -2.7795   YYZZ     -38.4717
      XZZZ       0.0100   YZZZ      -0.1901   ZZZZ    -172.7836
 -----------------------------------------------------------------
 Total job time:  49.59s(wall), 49.01s(cpu) 
 Mon Jul  8 16:58:06 2013

        *************************************************************
        *                                                           *
        *  Thank you very much for using Q-Chem.  Have a nice day.  *
        *                                                           *
        *************************************************************


0 sent ACK to 0 
now end server 0 ... 
