Process 0 of 1 is on cl123.stfx.acenet.ca - thread support 1
initial socket setup ...start
initial socket setup ...done 
now start server 0 ... 

cmd = /usr/bin/ssh clhead /usr/local/qchem/bin/get_hostid 1943537439 > /scratch/tmp/6063940.1.short.q/qchem29379/lic.dat
                  Welcome to Q-Chem
     A Quantum Leap Into The Future Of Chemistry

 Y. Shao, L. Fusti-Molnar, Y. Jung, J. Kussmann, C. Ochsenfeld,
 S. T. Brown, A. T. B. Gilbert, L. V. Slipchenko,S. V. Levchenko,
 D. P. O'Neill, R. A. DiStasio Jr., R. C. Lochan, T. Wang,
 G. J. O. Beran, N. A. Besley, J. M. Herbert, C. Y. Lin,
 T. Van Voorhis, S. H. Chien, A. Sodt, R. P. Steele, 
 V. A. Rassolov, P. E. Maslen, P. P. Korambath, R. D. Adamson,
 B. Austin, J. Baker, E. F. C. Byrd, H. Dachsel, R. J. Doerksen,
 A. Dreuw, B. D. Dunietz, A. D. Dutoi, T. R. Furlani,
 S. R. Gwaltney, A. Heyden, S. Hirata, C.-P. Hsu, G. Kedziora,
 R. Z. Khaliullin, P. Klunzinger, A. M. Lee, M. S. Lee, W. Liang,
 I. Lotan, N. Nair, B. Peters, E. I. Proynov, P. A. Pieniazek, 
 Y. M. Rhee, J. Ritchie, E. Rosta, C. D. Sherrill, 
 A. C. Simmonett, J. E. Subotnik, H. L. Woodcock III,
 W. Zhang, A. T. Bell, A. K. Chakraborty, D. M. Chipman,
 F. J. Keil, A. Warshel, W. J. Hehre, H. F. Schaefer III,
 J. Kong, A. I. Krylov, P. M. W. Gill, M. Head-Gordon,
 Q-Chem, Version 3.1, Q-Chem, Inc., Pittsburgh, PA (2007).

 Additional authors for Version 3.1: 
 Z. Gan, Y. Zhao, N. E. Schultz, D. Truhlar, E. Epifanovsky and M. Oana.

 Additional authors for Version 3.2: 
 R. Baer, B. R. Brooks, D. Casanova, J.-D. Chai, C.-L. Cheng, 
 C. Cramer, D. Crittenden, A. Ghysels, G. Hawkins, E. G. Hohenstein, 
 C. Kelley, W. Kurlancheek, D. Liotard, E. Livshits, P. Manohar, 
 A. Marenich, D. Neuhauser, R. Olson, M. A. Rohrdanz, K. S. Thanthiriwatte, 
 A. J. W. Thom, V. Vanovschi, C. F. Williams, Q. Wu and Z.-Q. You. 


 Intel X86 Linux Version

 Q-chem begins on Sun Jul  7 09:39:19 2013  

 Parallel job on  1  processors
Processing $rem in /usr/local/qchem/config/preferences.

theFileMan(): MAXOPENFILES=974 MAX_SUB_FILE_NUM=16
Maximum size of a physical file is 2.0 GB, maximum size of a tmp-file is 32.0 GB


--------------------------------------------------------------
User input:
--------------------------------------------------------------

$molecule
-1,2
N         -0.00002        0.00000       -0.02085
F          1.20805        0.00000       -0.60623
F         -0.60403       -1.04624       -0.60623
F         -0.60403        1.04624       -0.60623
$end

$comment
negative
$end

$xc_functional
C PBE   1.00
X wPBE  1.00
$end

$rem
SYMMETRY_DECOMPOSITION	0
exchange 		general
LRC_DFT                 true
BASIS                   g3large
omega			540
mem_static              760
max_scf_cycles          200
scf_final_print         1
sym_ignore              true
$end

--------------------------------------------------------------
 Writing REM_CC_EA            4
 ----------------------------------------------------
       Standard Nuclear Orientation (Angstroms)
    I     Atom         X            Y            Z
 ----------------------------------------------------
    1      N      -0.000020     0.000000    -0.020850
    2      F       1.208050     0.000000    -0.606230
    3      F      -0.604030    -1.046240    -0.606230
    4      F      -0.604030     1.046240    -0.606230
 ----------------------------------------------------
 Nuclear Repulsion Energy =   135.9571707746 hartrees
 There are       18 alpha and       17 beta electrons
 Requested basis set is G3large
 There are 40 shells and 168 basis functions

Total QAlloc Memory Limit   2000 MB
Mega-Array Size       743 MB
MEM_STATIC part       760 MB

                       Distance Matrix (Angstroms)
             N (  1)   F (  2)   F (  3)
   F (  2)  1.342424
   F (  3)  1.342429  2.092427
   F (  4)  1.342429  2.092427  2.092480
 
 A cutoff of  1.0D-08 yielded    709 shell pairs
 There are  12942 function pairs ( 16926 Cartesian)
Evaluating contribution to one-electron hamiltonian from nuclear
 Smallest overlap matrix eigenvalue = 1.77E-03
 Multipole matrices computed through 2nd order

  Scale SEOQF with 1.000000e-01/1.000000e-01/1.000000e-01

 Standard Electronic Orientation quadrupole field applied
 Nucleus-field energy     =     0.0000000010 hartrees
 Guess from superposition of atomic densities
 Warning:  Energy on first SCF cycle will be non-variational
 Long-range K will be added via erf
 Coulomb attenuation parameter = 0.54 bohr**(-1)
 An unrestricted Kohn-Sham SCF calculation will be
 performed using Pulay DIIS extrapolation
 Exchange:  wPBE + LR-HF      Correlation:  PBE
 Using SG-1 standard quadrature grid
 SCF converges when DIIS error is below 1.0E-05
 Requested basis set is G3large
 There are 40 shells and 168 basis functions
 A cutoff of  1.0D-08 yielded    709 shell pairs
 There are  12942 function pairs ( 16926 Cartesian)
 Warning!  Inaccurate integrated density:
   Number of electrons =    35
   Numerical integral  =    34.000285174717
   Relative error      =    -2.8563280722 %
 ---------------------------------------
  Cycle       Energy         DIIS Error
 ---------------------------------------
    1    -354.6218100909      3.05E-02
    2    -353.7831712428      7.25E-03
    3    -353.8086002404      6.91E-03
    4    -353.9020758816      6.54E-04
    5    -353.9036432638      1.82E-04
    6    -353.9040754705      1.78E-04
    7    -353.9042663602      8.17E-05
    8    -353.9044410438      6.59E-05
    9    -353.9045997914      5.47E-05
   10    -353.9047150621      2.80E-05
   11    -353.9047642360      1.21E-05
   12    -353.9047708601      7.56E-06 Convergence criterion met
 ---------------------------------------
 One-Electron    Energy =  -769.7255897380
 Total Coulomb   Energy =   318.0867110033
 Alpha Exchange  Energy =    -4.7154975162
 Beta  Exchange  Energy =    -4.5628043156
 DFT   Exchange  Energy =   -27.7405969955
 DFT Correlation Energy =    -1.2041640738
 Nuclear Repu.   Energy =   135.9571707756
 Nuclear Attr.   Energy = -1123.5919147101
 Kinetic         Energy =   353.8663249720
 <S^2> = 0.7541
 SCF time:  CPU 70.95 s  wall 71.52 s
 Final Alpha MO Eigenvalues
            1           2           3           4           5           6
    1 -24.3806346 -24.3693778 -24.3588395 -14.2934283  -1.3603927  -1.2127530
            7           8           9          10          11          12
    1  -1.2047846  -0.7734616  -0.5839762  -0.5777848  -0.5381361  -0.4412311
           13          14          15          16          17          18
    1  -0.4390688  -0.3878741  -0.3813517  -0.3679503  -0.2622176   0.1053908
           19          20          21          22          23
    1   0.2701629   0.3007517   0.3184372   0.3655559   0.4092989
 Final Beta MO Eigenvalues
            1           2           3           4           5           6
    1 -24.3796536 -24.3670935 -24.3555564 -14.2858680  -1.3532625  -1.2090177
            7           8           9          10          11          12
    1  -1.1953435  -0.7637269  -0.5744504  -0.5609747  -0.5332001  -0.4333950
           13          14          15          16          17          18
    1  -0.4324036  -0.3859008  -0.3777319  -0.3623472  -0.2465721   0.2827519
           19          20          21          22
    1   0.3054190   0.3072704   0.3263961   0.4217225
 Analysis of SCF Wavefunction
 
 --------------------------------------------------------------
                    Orbital Energies (a.u.)
 --------------------------------------------------------------
 
 Alpha MOs
 -- Occupied --
-24.381 -24.369 -24.359 -14.293  -1.360  -1.213  -1.205  -0.773
 -0.584  -0.578  -0.538  -0.441  -0.439  -0.388  -0.381  -0.368
 -0.262   0.105
 -- Virtual --
  0.270   0.301   0.318   0.366   0.409   0.422   0.451   0.467
  0.498   0.504   0.520   0.575   0.591   0.596   0.596   0.667
  0.712   0.715   1.059   1.061   1.098   1.350   1.361   1.362
  1.538   1.545   1.600   1.616   1.619   1.686   1.716   1.739
  1.760   1.764   2.007   2.008   2.185   2.191   2.239   2.301
  2.344   2.352   2.421   2.463   2.468   2.565   2.568   2.577
  2.962   2.964   3.057   3.080   3.081   3.222   3.986   4.183
  4.186   4.204   4.381   4.385   4.403   4.771   4.861   4.864
  5.252   5.309   5.314   5.357   5.358   6.477   6.480   6.492
  6.553   6.587   6.590   6.905   6.906   6.945   6.946   6.951
  6.956   6.958   6.959   6.962   6.967   6.973   6.980   7.178
  7.180   7.210   7.334   7.469   7.473   7.633   7.635   7.642
  7.756   8.260   8.266   9.367   9.375   9.397   9.410   9.420
  9.427   9.698   9.722   9.728   9.885   9.947   9.952  10.114
 10.347  10.356  35.633  37.704  38.234  38.237  40.598  40.627
 40.709  40.823  40.850  50.341  50.344  50.363  50.374  50.392
 50.396  50.456  50.471  50.483  50.545  50.565  50.570  50.680
 50.698  50.715  55.833  55.837  55.844  55.905  55.911  55.915
 56.228  56.421  56.433  66.848  66.861  66.922
 
 Beta MOs
 -- Occupied --
-24.380 -24.367 -24.356 -14.286  -1.353  -1.209  -1.195  -0.764
 -0.574  -0.561  -0.533  -0.433  -0.432  -0.386  -0.378  -0.362
 -0.247
 -- Virtual --
  0.283   0.305   0.307   0.326   0.422   0.431   0.446   0.472
  0.481   0.510   0.514   0.524   0.578   0.598   0.598   0.602
  0.669   0.714   0.719   1.067   1.081   1.104   1.354   1.370
  1.373   1.540   1.552   1.602   1.620   1.622   1.690   1.726
  1.742   1.762   1.768   2.015   2.018   2.186   2.194   2.241
  2.304   2.345   2.353   2.424   2.471   2.474   2.567   2.572
  2.579   2.968   2.975   3.060   3.085   3.092   3.227   3.992
  4.192   4.196   4.212   4.386   4.398   4.418   4.781   4.867
  4.883   5.264   5.324   5.338   5.379   5.385   6.480   6.483
  6.495   6.557   6.589   6.595   6.908   6.910   6.947   6.948
  6.953   6.959   6.960   6.961   6.965   6.970   6.977   6.983
  7.182   7.185   7.213   7.338   7.474   7.478   7.636   7.640
  7.648   7.763   8.265   8.275   9.372   9.380   9.403   9.414
  9.425   9.433   9.703   9.725   9.735   9.890   9.952   9.958
 10.119  10.351  10.363  35.641  37.707  38.242  38.256  40.603
 40.644  40.721  40.832  40.863  50.345  50.347  50.365  50.377
 50.394  50.398  50.459  50.472  50.487  50.549  50.566  50.575
 50.682  50.700  50.720  55.834  55.839  55.847  55.906  55.914
 55.919  56.231  56.423  56.437  66.850  66.864  66.925
 --------------------------------------------------------------
 
          Ground-State Mulliken Net Atomic Charges

     Atom                 Charge (a.u.)    Spin (a.u.)
  --------------------------------------------------------
      1 N                    -1.373815       1.531181
      2 F                     0.113126      -0.165448
      3 F                     0.025670      -0.100405
      4 F                     0.235020      -0.265328
  --------------------------------------------------------
  Sum of atomic charges =    -1.000000
  Sum of spin   charges =     1.000000

 -----------------------------------------------------------------
                    Cartesian Multipole Moments
 -----------------------------------------------------------------
    Charge (ESU x 10^10)
                -4.8032
    Dipole Moment (Debye)
         X       0.2971      Y      -0.5946      Z       0.0322
       Tot       0.6655
    Quadrupole Moments (Debye-Ang)
        XX     -32.0190     XY       4.2965     YY     -30.9129
        XZ       0.0488     YZ       1.4343     ZZ     -28.1499
    Octapole Moments (Debye-Ang^2)
       XXX      -0.0624    XXY      -1.5974    XYY       2.3623
       YYY      -4.6354    XXZ       9.3714    XYZ       0.6473
       YYZ       9.8805    XZZ       0.5004    YZZ      -1.8161
       ZZZ      26.5462
    Hexadecapole Moments (Debye-Ang^3)
      XXXX    -145.6580   XXXY      17.9914   XXYY     -46.8968
      XYYY      19.7424   YYYY    -136.1727   XXXZ       2.4259
      XXYZ       2.3548   XYYZ      -2.4056   YYYZ       7.0040
      XXZZ     -39.2576   XYZZ       7.5788   YYZZ     -37.4659
      XZZZ      -0.2596   YZZZ       4.8210   ZZZZ     -77.8985
 -----------------------------------------------------------------
 Total job time:  71.71s(wall), 71.14s(cpu) 
 Sun Jul  7 09:40:31 2013

        *************************************************************
        *                                                           *
        *  Thank you very much for using Q-Chem.  Have a nice day.  *
        *                                                           *
        *************************************************************


0 sent ACK to 0 
now end server 0 ... 
 
**********************************************************************
Job 2 of 3 
**********************************************************************
 
Process 0 of 1 is on cl123.stfx.acenet.ca - thread support 1
initial socket setup ...start
initial socket setup ...done 
now start server 0 ... 

cmd = /usr/bin/ssh clhead /usr/local/qchem/bin/get_hostid 1994848130 > /scratch/tmp/6063940.1.short.q/qchem29379/lic.dat
                  Welcome to Q-Chem
     A Quantum Leap Into The Future Of Chemistry

 Y. Shao, L. Fusti-Molnar, Y. Jung, J. Kussmann, C. Ochsenfeld,
 S. T. Brown, A. T. B. Gilbert, L. V. Slipchenko,S. V. Levchenko,
 D. P. O'Neill, R. A. DiStasio Jr., R. C. Lochan, T. Wang,
 G. J. O. Beran, N. A. Besley, J. M. Herbert, C. Y. Lin,
 T. Van Voorhis, S. H. Chien, A. Sodt, R. P. Steele, 
 V. A. Rassolov, P. E. Maslen, P. P. Korambath, R. D. Adamson,
 B. Austin, J. Baker, E. F. C. Byrd, H. Dachsel, R. J. Doerksen,
 A. Dreuw, B. D. Dunietz, A. D. Dutoi, T. R. Furlani,
 S. R. Gwaltney, A. Heyden, S. Hirata, C.-P. Hsu, G. Kedziora,
 R. Z. Khaliullin, P. Klunzinger, A. M. Lee, M. S. Lee, W. Liang,
 I. Lotan, N. Nair, B. Peters, E. I. Proynov, P. A. Pieniazek, 
 Y. M. Rhee, J. Ritchie, E. Rosta, C. D. Sherrill, 
 A. C. Simmonett, J. E. Subotnik, H. L. Woodcock III,
 W. Zhang, A. T. Bell, A. K. Chakraborty, D. M. Chipman,
 F. J. Keil, A. Warshel, W. J. Hehre, H. F. Schaefer III,
 J. Kong, A. I. Krylov, P. M. W. Gill, M. Head-Gordon,
 Q-Chem, Version 3.1, Q-Chem, Inc., Pittsburgh, PA (2007).

 Additional authors for Version 3.1: 
 Z. Gan, Y. Zhao, N. E. Schultz, D. Truhlar, E. Epifanovsky and M. Oana.

 Additional authors for Version 3.2: 
 R. Baer, B. R. Brooks, D. Casanova, J.-D. Chai, C.-L. Cheng, 
 C. Cramer, D. Crittenden, A. Ghysels, G. Hawkins, E. G. Hohenstein, 
 C. Kelley, W. Kurlancheek, D. Liotard, E. Livshits, P. Manohar, 
 A. Marenich, D. Neuhauser, R. Olson, M. A. Rohrdanz, K. S. Thanthiriwatte, 
 A. J. W. Thom, V. Vanovschi, C. F. Williams, Q. Wu and Z.-Q. You. 


 Intel X86 Linux Version

 Q-chem begins on Sun Jul  7 09:40:34 2013  

 Parallel job on  1  processors
Processing $rem in /usr/local/qchem/config/preferences.

theFileMan(): MAXOPENFILES=974 MAX_SUB_FILE_NUM=16
Maximum size of a physical file is 2.0 GB, maximum size of a tmp-file is 32.0 GB


--------------------------------------------------------------
User input:
--------------------------------------------------------------

$molecule
0,1
N         -0.00002        0.00000       -0.02085
F          1.20805        0.00000       -0.60623
F         -0.60403       -1.04624       -0.60623
F         -0.60403        1.04624       -0.60623
$end

$comment
neutral
$end

$xc_functional
C PBE   1.00
X wPBE  1.00
$end


$rem
SYMMETRY_DECOMPOSITION	0
LRC_DFT                 true
exchange 		general
BASIS                   g3large
omega			540
mem_static              760
max_scf_cycles          200
scf_final_print         1
sym_ignore              true
$end

--------------------------------------------------------------
 Writing REM_CC_EA            4
 ----------------------------------------------------
       Standard Nuclear Orientation (Angstroms)
    I     Atom         X            Y            Z
 ----------------------------------------------------
    1      N      -0.000020     0.000000    -0.020850
    2      F       1.208050     0.000000    -0.606230
    3      F      -0.604030    -1.046240    -0.606230
    4      F      -0.604030     1.046240    -0.606230
 ----------------------------------------------------
 Nuclear Repulsion Energy =   135.9571707746 hartrees
 There are       17 alpha and       17 beta electrons
 Requested basis set is G3large
 There are 40 shells and 168 basis functions

Total QAlloc Memory Limit   2000 MB
Mega-Array Size       743 MB
MEM_STATIC part       760 MB

                       Distance Matrix (Angstroms)
             N (  1)   F (  2)   F (  3)
   F (  2)  1.342424
   F (  3)  1.342429  2.092427
   F (  4)  1.342429  2.092427  2.092480
 
 A cutoff of  1.0D-08 yielded    709 shell pairs
 There are  12942 function pairs ( 16926 Cartesian)
Evaluating contribution to one-electron hamiltonian from nuclear
 Smallest overlap matrix eigenvalue = 1.77E-03
 Multipole matrices computed through 2nd order

  Scale SEOQF with 1.000000e-01/1.000000e-01/1.000000e-01

 Standard Electronic Orientation quadrupole field applied
 Nucleus-field energy     =     0.0000000010 hartrees
 Guess from superposition of atomic densities
 Warning:  Energy on first SCF cycle will be non-variational
 Long-range K will be added via erf
 Coulomb attenuation parameter = 0.54 bohr**(-1)
 A restricted Kohn-Sham SCF calculation will be
 performed using Pulay DIIS extrapolation
 Exchange:  wPBE + LR-HF      Correlation:  PBE
 Using SG-1 standard quadrature grid
 SCF converges when DIIS error is below 1.0E-05
 Requested basis set is G3large
 There are 40 shells and 168 basis functions
 A cutoff of  1.0D-08 yielded    709 shell pairs
 There are  12942 function pairs ( 16926 Cartesian)
 ---------------------------------------
  Cycle       Energy         DIIS Error
 ---------------------------------------
    1    -354.6218100909      3.05E-02
    2    -353.8347710111      8.74E-03
    3    -353.8543557709      9.14E-03
    4    -354.0185229640      7.78E-04
    5    -354.0199615383      2.46E-04
    6    -354.0202373320      6.85E-05
    7    -354.0202876950      1.97E-05
    8    -354.0202913033      1.04E-05
    9    -354.0202916803      3.29E-06 Convergence criterion met
 ---------------------------------------
 One-Electron    Energy =  -761.3030440175
 Total Coulomb   Energy =   309.3111201407
 Alpha Exchange  Energy =    -4.5736181673
 Beta  Exchange  Energy =    -4.5736181673
 DFT   Exchange  Energy =   -27.6536235727
 DFT Correlation Energy =    -1.1846786719
 Nuclear Repu.   Energy =   135.9571707756
 Nuclear Attr.   Energy = -1114.5781579459
 Kinetic         Energy =   353.2751139284
 SCF time:  CPU 42.27 s  wall 42.83 s
 Final Alpha MO Eigenvalues
            1           2           3           4           5           6
    1 -24.6246937 -24.6246792 -24.6246567 -14.5874279  -1.6131149  -1.4556862
            7           8           9          10          11          12
    1  -1.4556837  -1.0187080  -0.8222463  -0.8222424  -0.7880431  -0.6788115
           13          14          15          16          17          18
    1  -0.6787999  -0.6260129  -0.6260007  -0.6099592  -0.5127984   0.1168434
           19          20          21          22
    1   0.1252521   0.1252574   0.1450679   0.1844166
 Analysis of SCF Wavefunction
 
 --------------------------------------------------------------
                    Orbital Energies (a.u.)
 --------------------------------------------------------------
 
 Alpha MOs
 -- Occupied --
-24.625 -24.625 -24.625 -14.587  -1.613  -1.456  -1.456  -1.019
 -0.822  -0.822  -0.788  -0.679  -0.679  -0.626  -0.626  -0.610
 -0.513
 -- Virtual --
  0.117   0.125   0.125   0.145   0.184   0.195   0.195   0.294
  0.294   0.325   0.325   0.334   0.405   0.407   0.424   0.424
  0.479   0.520   0.520   0.836   0.836   0.864   1.106   1.114
  1.114   1.328   1.328   1.384   1.398   1.398   1.458   1.492
  1.521   1.544   1.544   1.764   1.764   1.961   1.961   2.000
  2.060   2.111   2.111   2.193   2.224   2.224   2.325   2.325
  2.336   2.720   2.720   2.815   2.836   2.836   2.978   3.724
  3.927   3.927   3.942   4.125   4.125   4.145   4.515   4.610
  4.610   4.986   5.047   5.047   5.096   5.096   6.236   6.236
  6.248   6.311   6.346   6.346   6.661   6.661   6.707   6.707
  6.710   6.713   6.715   6.715   6.716   6.727   6.727   6.736
  6.934   6.934   6.965   7.086   7.222   7.222   7.383   7.389
  7.390   7.503   8.009   8.009   9.128   9.128   9.152   9.169
  9.177   9.177   9.453   9.479   9.480   9.640   9.704   9.704
  9.869  10.106  10.106  35.342  37.411  37.945  37.946  40.306
 40.337  40.418  40.532  40.559  50.091  50.097  50.103  50.130
 50.135  50.139  50.204  50.219  50.227  50.291  50.313  50.313
 50.427  50.451  50.454  55.585  55.585  55.586  55.656  55.657
 55.657  55.974  56.172  56.172  66.600  66.600  66.666
 --------------------------------------------------------------
 
          Ground-State Mulliken Net Atomic Charges

     Atom                 Charge (a.u.)
  ----------------------------------------
      1 N                     0.022723
      2 F                    -0.007591
      3 F                    -0.007568
      4 F                    -0.007564
  ----------------------------------------
  Sum of atomic charges =     0.000000

 -----------------------------------------------------------------
                    Cartesian Multipole Moments
 -----------------------------------------------------------------
    Charge (ESU x 10^10)
                 0.0000
    Dipole Moment (Debye)
         X       0.0000      Y       0.0000      Z       0.1531
       Tot       0.1531
    Quadrupole Moments (Debye-Ang)
        XX     -20.3251     XY       0.0000     YY     -20.3249
        XZ       0.0000     YZ       0.0000     ZZ     -20.4811
    Octapole Moments (Debye-Ang^2)
       XXX      -0.3246    XXY       0.0000    XYY       0.3252
       YYY       0.0001    XXZ       9.1608    XYZ       0.0000
       YYZ       9.1606    XZZ       0.0001    YZZ       0.0000
       ZZZ      26.5721
    Hexadecapole Moments (Debye-Ang^3)
      XXXX     -75.4187   XXXY      -0.0001   XXYY     -25.1403
      XYYY      -0.0001   YYYY     -75.4224   XXXZ      -0.4732
      XXYZ       0.0000   XYYZ       0.4730   YYYZ       0.0000
      XXZZ     -20.1623   XYZZ       0.0000   YYZZ     -20.1629
      XZZZ       0.0000   YZZZ       0.0000   ZZZZ     -46.4614
 -----------------------------------------------------------------
 Total job time:  43.01s(wall), 42.44s(cpu) 
 Sun Jul  7 09:41:17 2013

        *************************************************************
        *                                                           *
        *  Thank you very much for using Q-Chem.  Have a nice day.  *
        *                                                           *
        *************************************************************


0 sent ACK to 0 
now end server 0 ... 
 
**********************************************************************
Job 3 of 3 
**********************************************************************
 
Process 0 of 1 is on cl123.stfx.acenet.ca - thread support 1
initial socket setup ...start
initial socket setup ...done 
now start server 0 ... 

cmd = /usr/bin/ssh clhead /usr/local/qchem/bin/get_hostid 1963996568 > /scratch/tmp/6063940.1.short.q/qchem29379/lic.dat
                  Welcome to Q-Chem
     A Quantum Leap Into The Future Of Chemistry

 Y. Shao, L. Fusti-Molnar, Y. Jung, J. Kussmann, C. Ochsenfeld,
 S. T. Brown, A. T. B. Gilbert, L. V. Slipchenko,S. V. Levchenko,
 D. P. O'Neill, R. A. DiStasio Jr., R. C. Lochan, T. Wang,
 G. J. O. Beran, N. A. Besley, J. M. Herbert, C. Y. Lin,
 T. Van Voorhis, S. H. Chien, A. Sodt, R. P. Steele, 
 V. A. Rassolov, P. E. Maslen, P. P. Korambath, R. D. Adamson,
 B. Austin, J. Baker, E. F. C. Byrd, H. Dachsel, R. J. Doerksen,
 A. Dreuw, B. D. Dunietz, A. D. Dutoi, T. R. Furlani,
 S. R. Gwaltney, A. Heyden, S. Hirata, C.-P. Hsu, G. Kedziora,
 R. Z. Khaliullin, P. Klunzinger, A. M. Lee, M. S. Lee, W. Liang,
 I. Lotan, N. Nair, B. Peters, E. I. Proynov, P. A. Pieniazek, 
 Y. M. Rhee, J. Ritchie, E. Rosta, C. D. Sherrill, 
 A. C. Simmonett, J. E. Subotnik, H. L. Woodcock III,
 W. Zhang, A. T. Bell, A. K. Chakraborty, D. M. Chipman,
 F. J. Keil, A. Warshel, W. J. Hehre, H. F. Schaefer III,
 J. Kong, A. I. Krylov, P. M. W. Gill, M. Head-Gordon,
 Q-Chem, Version 3.1, Q-Chem, Inc., Pittsburgh, PA (2007).

 Additional authors for Version 3.1: 
 Z. Gan, Y. Zhao, N. E. Schultz, D. Truhlar, E. Epifanovsky and M. Oana.

 Additional authors for Version 3.2: 
 R. Baer, B. R. Brooks, D. Casanova, J.-D. Chai, C.-L. Cheng, 
 C. Cramer, D. Crittenden, A. Ghysels, G. Hawkins, E. G. Hohenstein, 
 C. Kelley, W. Kurlancheek, D. Liotard, E. Livshits, P. Manohar, 
 A. Marenich, D. Neuhauser, R. Olson, M. A. Rohrdanz, K. S. Thanthiriwatte, 
 A. J. W. Thom, V. Vanovschi, C. F. Williams, Q. Wu and Z.-Q. You. 


 Intel X86 Linux Version

 Q-chem begins on Sun Jul  7 09:41:20 2013  

 Parallel job on  1  processors
Processing $rem in /usr/local/qchem/config/preferences.

theFileMan(): MAXOPENFILES=974 MAX_SUB_FILE_NUM=16
Maximum size of a physical file is 2.0 GB, maximum size of a tmp-file is 32.0 GB


--------------------------------------------------------------
User input:
--------------------------------------------------------------

$molecule
1,2
N         -0.00002        0.00000       -0.02085
F          1.20805        0.00000       -0.60623
F         -0.60403       -1.04624       -0.60623
F         -0.60403        1.04624       -0.60623
$end

$comment
positive
$end

$xc_functional
C PBE   1.00
X wPBE  1.00
$end

$rem
SYMMETRY_DECOMPOSITION	0
LRC_DFT                 true
exchange 		general
BASIS                   g3large
omega			540
mem_static              760
max_scf_cycles          200
scf_final_print         1
sym_ignore              true
$end

--------------------------------------------------------------
 Writing REM_CC_EA            4
 ----------------------------------------------------
       Standard Nuclear Orientation (Angstroms)
    I     Atom         X            Y            Z
 ----------------------------------------------------
    1      N      -0.000020     0.000000    -0.020850
    2      F       1.208050     0.000000    -0.606230
    3      F      -0.604030    -1.046240    -0.606230
    4      F      -0.604030     1.046240    -0.606230
 ----------------------------------------------------
 Nuclear Repulsion Energy =   135.9571707746 hartrees
 There are       17 alpha and       16 beta electrons
 Requested basis set is G3large
 There are 40 shells and 168 basis functions

Total QAlloc Memory Limit   2000 MB
Mega-Array Size       743 MB
MEM_STATIC part       760 MB

                       Distance Matrix (Angstroms)
             N (  1)   F (  2)   F (  3)
   F (  2)  1.342424
   F (  3)  1.342429  2.092427
   F (  4)  1.342429  2.092427  2.092480
 
 A cutoff of  1.0D-08 yielded    709 shell pairs
 There are  12942 function pairs ( 16926 Cartesian)
Evaluating contribution to one-electron hamiltonian from nuclear
 Smallest overlap matrix eigenvalue = 1.77E-03
 Multipole matrices computed through 2nd order

  Scale SEOQF with 1.000000e-01/1.000000e-01/1.000000e-01

 Standard Electronic Orientation quadrupole field applied
 Nucleus-field energy     =     0.0000000010 hartrees
 Guess from superposition of atomic densities
 Warning:  Energy on first SCF cycle will be non-variational
 Long-range K will be added via erf
 Coulomb attenuation parameter = 0.54 bohr**(-1)
 An unrestricted Kohn-Sham SCF calculation will be
 performed using Pulay DIIS extrapolation
 Exchange:  wPBE + LR-HF      Correlation:  PBE
 Using SG-1 standard quadrature grid
 SCF converges when DIIS error is below 1.0E-05
 Requested basis set is G3large
 There are 40 shells and 168 basis functions
 A cutoff of  1.0D-08 yielded    709 shell pairs
 There are  12942 function pairs ( 16926 Cartesian)
 Warning!  Inaccurate integrated density:
   Number of electrons =    33
   Numerical integral  =    34.000285174717
   Relative error      =     3.0311671961 %
 ---------------------------------------
  Cycle       Energy         DIIS Error
 ---------------------------------------
    1    -354.6218100909      3.05E-02
    2    -353.1463512855      1.09E-02
    3    -353.1421073690      1.31E-02
    4    -353.5093810928      1.57E-03
    5    -353.5141667829      3.12E-04
    6    -353.5148985782      1.09E-04
    7    -353.5150550075      7.31E-05
    8    -353.5151228679      2.49E-05
    9    -353.5151417602      1.08E-05
   10    -353.5151486541      6.16E-06 Convergence criterion met
 ---------------------------------------
 One-Electron    Energy =  -749.4416029125
 Total Coulomb   Energy =   297.4557801560
 Alpha Exchange  Energy =    -4.5963173193
 Beta  Exchange  Energy =    -4.2986145591
 DFT   Exchange  Energy =   -27.4473381628
 DFT Correlation Energy =    -1.1442266319
 Nuclear Repu.   Energy =   135.9571707756
 Nuclear Attr.   Energy = -1101.9172829858
 Kinetic         Energy =   352.4756800733
 <S^2> = 0.7611
 SCF time:  CPU 58.11 s  wall 58.58 s
 Final Alpha MO Eigenvalues
            1           2           3           4           5           6
    1 -24.9873938 -24.9873556 -24.9870707 -15.0285632  -1.9671288  -1.8024682
            7           8           9          10          11          12
    1  -1.8023268  -1.3813754  -1.1710169  -1.1709449  -1.1664034  -1.0162492
           13          14          15          16          17          18
    1  -1.0161820  -0.9579393  -0.9578548  -0.9414031  -0.9229266  -0.2153534
           19          20          21          22
    1  -0.2153022  -0.1720670  -0.0878354  -0.0452952
 Final Beta MO Eigenvalues
            1           2           3           4           5           6
    1 -24.9822999 -24.9822366 -24.9820008 -15.0143931  -1.9540807  -1.7899405
            7           8           9          10          11          12
    1  -1.7898453  -1.3390577  -1.1540056  -1.1539187  -1.1005158  -0.9906997
           13          14          15          16          17          18
    1  -0.9905359  -0.9423945  -0.9423692  -0.9364050  -0.4945739  -0.1800677
           19          20          21
    1  -0.1800219  -0.1547730  -0.0827647
 Analysis of SCF Wavefunction
 
 --------------------------------------------------------------
                    Orbital Energies (a.u.)
 --------------------------------------------------------------
 
 Alpha MOs
 -- Occupied --
-24.987 -24.987 -24.987 -15.029  -1.967  -1.802  -1.802  -1.381
 -1.171  -1.171  -1.166  -1.016  -1.016  -0.958  -0.958  -0.941
 -0.923
 -- Virtual --
 -0.215  -0.215  -0.172  -0.088  -0.045  -0.034  -0.034   0.089
  0.089   0.110   0.110   0.114   0.180   0.205   0.223   0.223
  0.259   0.286   0.286   0.533   0.541   0.541   0.752   0.767
  0.767   1.053   1.053   1.102   1.115   1.115   1.150   1.209
  1.243   1.258   1.258   1.429   1.429   1.663   1.664   1.675
  1.735   1.795   1.796   1.884   1.884   1.890   1.998   1.998
  2.019   2.374   2.374   2.478   2.494   2.494   2.642   3.319
  3.552   3.560   3.560   3.756   3.756   3.785   4.147   4.250
  4.250   4.555   4.629   4.629   4.697   4.697   5.898   5.898
  5.905   5.981   6.004   6.004   6.319   6.319   6.373   6.375
  6.375   6.375   6.383   6.383   6.387   6.394   6.394   6.401
  6.592   6.592   6.632   6.738   6.878   6.879   7.035   7.038
  7.039   7.143   7.652   7.652   8.781   8.781   8.800   8.820
  8.831   8.831   9.110   9.125   9.125   9.286   9.359   9.359
  9.525   9.758   9.758  34.905  36.957  37.514  37.514  39.854
 39.908  39.983  40.089  40.122  49.727  49.734  49.740  49.769
 49.773  49.777  49.842  49.853  49.864  49.929  49.948  49.952
 50.064  50.088  50.090  55.223  55.225  55.225  55.293  55.293
 55.299  55.609  55.810  55.810  66.240  66.240  66.306
 
 Beta MOs
 -- Occupied --
-24.982 -24.982 -24.982 -15.014  -1.954  -1.790  -1.790  -1.339
 -1.154  -1.154  -1.101  -0.991  -0.991  -0.942  -0.942  -0.936
 -- Virtual --
 -0.495  -0.180  -0.180  -0.155  -0.083  -0.041  -0.033  -0.033
  0.091   0.091   0.111   0.111   0.117   0.183   0.205   0.224
  0.224   0.261   0.287   0.287   0.546   0.546   0.571   0.779
  0.779   0.786   1.059   1.060   1.107   1.121   1.121   1.160
  1.221   1.245   1.267   1.267   1.440   1.440   1.669   1.669
  1.689   1.743   1.801   1.801   1.897   1.905   1.905   2.007
  2.007   2.019   2.393   2.393   2.497   2.507   2.507   2.656
  3.369   3.578   3.578   3.586   3.777   3.777   3.790   4.170
  4.262   4.262   4.623   4.677   4.677   4.729   4.729   5.907
  5.907   5.920   5.984   6.019   6.020   6.332   6.332   6.382
  6.382   6.385   6.388   6.390   6.392   6.392   6.404   6.404
  6.412   6.603   6.603   6.638   6.752   6.888   6.888   7.046
  7.054   7.054   7.160   7.664   7.664   8.795   8.795   8.821
  8.837   8.845   8.845   9.116   9.146   9.146   9.308   9.370
  9.370   9.534   9.772   9.772  34.920  36.994  37.524  37.524
 39.887  39.912  39.994  40.110  40.136  49.740  49.747  49.752
 49.778  49.784  49.788  49.850  49.867  49.874  49.938  49.959
 49.961  50.072  50.097  50.101  55.230  55.231  55.233  55.302
 55.304  55.304  55.618  55.815  55.815  66.245  66.245  66.311
 --------------------------------------------------------------
 
          Ground-State Mulliken Net Atomic Charges

     Atom                 Charge (a.u.)    Spin (a.u.)
  --------------------------------------------------------
      1 N                     0.318579       0.535850
      2 F                     0.227144       0.154738
      3 F                     0.226907       0.154166
      4 F                     0.227370       0.155245
  --------------------------------------------------------
  Sum of atomic charges =     1.000000
  Sum of spin   charges =     1.000000

 -----------------------------------------------------------------
                    Cartesian Multipole Moments
 -----------------------------------------------------------------
    Charge (ESU x 10^10)
                 4.8032
    Dipole Moment (Debye)
         X      -0.0001      Y       0.0015      Z      -1.1887
       Tot       1.1887
    Quadrupole Moments (Debye-Ang)
        XX     -15.7181     XY      -0.0013     YY     -15.7180
        XZ       0.0001     YZ      -0.0013     ZZ     -16.1817
    Octapole Moments (Debye-Ang^2)
       XXX       1.6978    XXY       0.0009    XYY      -1.6972
       YYY       0.0025    XXZ       6.3382    XYZ       0.0006
       YYZ       6.3378    XZZ       0.0001    YZZ       0.0015
       ZZZ      23.0715
    Hexadecapole Moments (Debye-Ang^3)
      XXXX     -63.4649   XXXY      -0.0016   XXYY     -21.1555
      XYYY      -0.0014   YYYY     -63.4685   XXXZ      -1.8754
      XXYZ      -0.0003   XYYZ       1.8761   YYYZ      -0.0006
      XXZZ     -15.8848   XYZZ      -0.0011   YYZZ     -15.8856
      XZZZ      -0.0003   YZZZ      -0.0028   ZZZZ     -37.6211
 -----------------------------------------------------------------
 Total job time:  58.77s(wall), 58.29s(cpu) 
 Sun Jul  7 09:42:19 2013

        *************************************************************
        *                                                           *
        *  Thank you very much for using Q-Chem.  Have a nice day.  *
        *                                                           *
        *************************************************************


0 sent ACK to 0 
now end server 0 ... 
