Process 0 of 1 is on cl197.stfx.acenet.ca - thread support 1
initial socket setup ...start
initial socket setup ...done 
now start server 0 ... 

cmd = /usr/bin/ssh clhead /usr/local/qchem/bin/get_hostid 1266917691 > /scratch/tmp/6064710.1.medium.q/qchem26458/lic.dat
                  Welcome to Q-Chem
     A Quantum Leap Into The Future Of Chemistry

 Y. Shao, L. Fusti-Molnar, Y. Jung, J. Kussmann, C. Ochsenfeld,
 S. T. Brown, A. T. B. Gilbert, L. V. Slipchenko,S. V. Levchenko,
 D. P. O'Neill, R. A. DiStasio Jr., R. C. Lochan, T. Wang,
 G. J. O. Beran, N. A. Besley, J. M. Herbert, C. Y. Lin,
 T. Van Voorhis, S. H. Chien, A. Sodt, R. P. Steele, 
 V. A. Rassolov, P. E. Maslen, P. P. Korambath, R. D. Adamson,
 B. Austin, J. Baker, E. F. C. Byrd, H. Dachsel, R. J. Doerksen,
 A. Dreuw, B. D. Dunietz, A. D. Dutoi, T. R. Furlani,
 S. R. Gwaltney, A. Heyden, S. Hirata, C.-P. Hsu, G. Kedziora,
 R. Z. Khaliullin, P. Klunzinger, A. M. Lee, M. S. Lee, W. Liang,
 I. Lotan, N. Nair, B. Peters, E. I. Proynov, P. A. Pieniazek, 
 Y. M. Rhee, J. Ritchie, E. Rosta, C. D. Sherrill, 
 A. C. Simmonett, J. E. Subotnik, H. L. Woodcock III,
 W. Zhang, A. T. Bell, A. K. Chakraborty, D. M. Chipman,
 F. J. Keil, A. Warshel, W. J. Hehre, H. F. Schaefer III,
 J. Kong, A. I. Krylov, P. M. W. Gill, M. Head-Gordon,
 Q-Chem, Version 3.1, Q-Chem, Inc., Pittsburgh, PA (2007).

 Additional authors for Version 3.1: 
 Z. Gan, Y. Zhao, N. E. Schultz, D. Truhlar, E. Epifanovsky and M. Oana.

 Additional authors for Version 3.2: 
 R. Baer, B. R. Brooks, D. Casanova, J.-D. Chai, C.-L. Cheng, 
 C. Cramer, D. Crittenden, A. Ghysels, G. Hawkins, E. G. Hohenstein, 
 C. Kelley, W. Kurlancheek, D. Liotard, E. Livshits, P. Manohar, 
 A. Marenich, D. Neuhauser, R. Olson, M. A. Rohrdanz, K. S. Thanthiriwatte, 
 A. J. W. Thom, V. Vanovschi, C. F. Williams, Q. Wu and Z.-Q. You. 


 Intel X86 Linux Version

 Q-chem begins on Mon Jul  8 12:24:21 2013  

 Parallel job on  1  processors
Processing $rem in /usr/local/qchem/config/preferences.

theFileMan(): MAXOPENFILES=974 MAX_SUB_FILE_NUM=16
Maximum size of a physical file is 2.0 GB, maximum size of a tmp-file is 32.0 GB


--------------------------------------------------------------
User input:
--------------------------------------------------------------

$molecule
-1,2
S          0.00000        0.00000        0.02033
C          0.00000        0.00000        1.56317
S          0.00000        0.00000        3.10600
$end

$comment
negative
$end

$xc_functional
C PBE   1.00
X wPBE  1.00
$end

$rem
SYMMETRY_DECOMPOSITION	0
exchange 		general
LRC_DFT                 true
BASIS                   g3large
omega			100
mem_static              760
max_scf_cycles          200
scf_final_print         1
sym_ignore              true
$end

--------------------------------------------------------------
 Writing REM_CC_EA            3
 ----------------------------------------------------
       Standard Nuclear Orientation (Angstroms)
    I     Atom         X            Y            Z
 ----------------------------------------------------
    1      S       0.000000     0.000000     0.020330
    2      C       0.000000     0.000000     1.563170
    3      S       0.000000     0.000000     3.106000
 ----------------------------------------------------
 Nuclear Repulsion Energy =   109.7568485658 hartrees
 There are       20 alpha and       19 beta electrons
 Requested basis set is G3large
 There are 48 shells and 174 basis functions

Total QAlloc Memory Limit   2000 MB
Mega-Array Size       743 MB
MEM_STATIC part       760 MB

                       Distance Matrix (Angstroms)
             S (  1)   C (  2)
   C (  2)  1.542840
   S (  3)  3.085670  1.542830
 
 A cutoff of  1.0D-08 yielded   1031 shell pairs
 There are  13994 function pairs ( 19618 Cartesian)
Evaluating contribution to one-electron hamiltonian from nuclear
 Smallest overlap matrix eigenvalue = 7.87E-05

 Q-Chem warning in module mkSTV.C, line 194:

 Overlap eigenvalue is smaller than square root of threshold

 Multipole matrices computed through 2nd order

  Scale SEOQF with 1.000000e-01/1.000000e-01/1.000000e-01

 Standard Electronic Orientation quadrupole field applied
 Nucleus-field energy     =    -0.0000000181 hartrees
 Guess from superposition of atomic densities
 Warning:  Energy on first SCF cycle will be non-variational
 Long-range K will be added via erf
 Coulomb attenuation parameter = 0.1 bohr**(-1)
 An unrestricted Kohn-Sham SCF calculation will be
 performed using Pulay DIIS extrapolation
 Exchange:  wPBE + LR-HF      Correlation:  PBE
 Using SG-1 standard quadrature grid
 SCF converges when DIIS error is below 1.0E-05
 Requested basis set is G3large
 There are 48 shells and 174 basis functions
 A cutoff of  1.0D-08 yielded   1031 shell pairs
 There are  13994 function pairs ( 19618 Cartesian)
 Warning!  Inaccurate integrated density:
   Number of electrons =    39
   Numerical integral  =    37.999949770176
   Relative error      =    -2.5642313585 %
 ---------------------------------------
  Cycle       Energy         DIIS Error
 ---------------------------------------
    1    -834.6281777502      2.97E-02
    2    -834.0819880529      3.64E-03
    3    -834.0311856457      5.46E-03
    4    -834.1588959329      1.17E-03
    5    -834.1637359183      1.75E-04
    6    -834.1639850051      4.28E-05
    7    -834.1640459747      2.13E-05
    8    -834.1640578591      7.31E-06 Convergence criterion met
 ---------------------------------------
 One-Electron    Energy = -1377.5981008505
 Total Coulomb   Energy =   490.3265970091
 Alpha Exchange  Energy =    -1.1150029681
 Beta  Exchange  Energy =    -1.0610212861
 DFT   Exchange  Energy =   -53.0183451657
 DFT Correlation Energy =    -1.4550331455
 Nuclear Repu.   Energy =   109.7568485477
 Nuclear Attr.   Energy = -2210.9753102174
 Kinetic         Energy =   833.3772093669
 <S^2> = 0.7535
 SCF time:  CPU 80.95 s  wall 82.02 s
 Final Alpha MO Eigenvalues
            1           2           3           4           5           6
    1 -87.8975754 -87.8975622  -9.7893608  -7.5328425  -7.5328152  -5.5525947
            7           8           9          10          11          12
    1  -5.5525812  -5.5499910  -5.5499804  -5.5479652  -5.5479547  -0.6211271
           13          14          15          16          17          18
    1  -0.5385652  -0.3008121  -0.2252926  -0.1953599  -0.1947185  -0.0918451
           19          20          21          22          23          24
    1  -0.0912774   0.0466679   0.1530733   0.1715239   0.1837398   0.1988222
           25
    1   0.2155792
 Final Beta MO Eigenvalues
            1           2           3           4           5           6
    1 -87.8972061 -87.8971931  -9.7811264  -7.5324131  -7.5323862  -5.5525328
            7           8           9          10          11          12
    1  -5.5525181  -5.5498282  -5.5498182  -5.5464874  -5.5464767  -0.6110970
           13          14          15          16          17          18
    1  -0.5353697  -0.2870824  -0.2173652  -0.1902609  -0.1731229  -0.0902966
           19          20          21          22          23          24
    1  -0.0784520   0.1603325   0.1761849   0.1777814   0.1898407   0.2027041
 Analysis of SCF Wavefunction
 
 --------------------------------------------------------------
                    Orbital Energies (a.u.)
 --------------------------------------------------------------
 
 Alpha MOs
 -- Occupied --
-87.898 -87.898  -9.789  -7.533  -7.533  -5.553  -5.553  -5.550
 -5.550  -5.548  -5.548  -0.621  -0.539  -0.301  -0.225  -0.195
 -0.195  -0.092  -0.091   0.047
 -- Virtual --
  0.153   0.172   0.184   0.199   0.216   0.218   0.231   0.235
  0.235   0.305   0.307   0.307   0.340   0.352   0.408   0.408
  0.430   0.453   0.453   0.480   0.482   0.493   0.566   0.568
  0.580   0.623   0.628   0.630   0.666   0.668   0.870   0.871
  0.879   0.880   0.907   0.913   0.986   0.986   0.989   1.059
  1.059   1.082   1.082   1.101   1.102   1.111   1.144   1.144
  1.195   1.196   1.237   1.238   1.247   1.282   1.282   1.283
  1.433   1.434   1.469   1.530   1.583   1.584   1.741   1.769
  1.771   2.026   2.028   2.097   2.118   2.120   2.387   2.585
  2.964   2.973   2.996   2.996   3.097   3.098   3.196   3.197
  3.289   3.408   3.454   3.456   3.469   3.471   3.635   3.635
  3.641   3.641   3.707   3.710   3.712   3.756   3.756   3.979
  3.983   4.332   4.332   4.405   4.662   4.665   4.712   4.715
  4.980   5.075   5.077   5.310   5.312   5.406   6.042   8.674
  8.813  17.151  17.153  17.167  17.168  17.500  18.114  23.385
 23.469  23.484  23.563  23.578  23.690  23.691  23.754  23.756
 23.835  24.254  27.388  27.392  28.846  30.940  30.941  30.941
 30.941  30.946  30.946  30.948  30.948  30.952  30.954  30.983
 31.007  31.008  31.140  40.851  41.003  41.139  41.182  41.184
189.260 189.290
 
 Beta MOs
 -- Occupied --
-87.897 -87.897  -9.781  -7.532  -7.532  -5.553  -5.553  -5.550
 -5.550  -5.546  -5.546  -0.611  -0.535  -0.287  -0.217  -0.190
 -0.173  -0.090  -0.078
 -- Virtual --
  0.160   0.176   0.178   0.190   0.203   0.221   0.228   0.238
  0.239   0.241   0.310   0.313   0.315   0.344   0.355   0.415
  0.415   0.436   0.460   0.460   0.484   0.493   0.500   0.570
  0.578   0.584   0.629   0.629   0.638   0.672   0.686   0.885
  0.886   0.887   0.898   0.918   0.919   0.988   0.989   0.998
  1.066   1.066   1.089   1.089   1.109   1.109   1.116   1.149
  1.150   1.201   1.201   1.239   1.249   1.252   1.284   1.290
  1.295   1.449   1.449   1.474   1.543   1.586   1.598   1.748
  1.770   1.781   2.026   2.036   2.105   2.122   2.134   2.389
  2.592   2.982   3.006   3.034   3.035   3.114   3.114   3.199
  3.212   3.298   3.420   3.459   3.474   3.503   3.503   3.641
  3.641   3.648   3.648   3.710   3.727   3.728   3.763   3.764
  3.986   4.003   4.333   4.343   4.414   4.664   4.667   4.714
  4.717   4.986   5.075   5.081   5.311   5.322   5.408   6.045
  8.676   8.815  17.152  17.156  17.167  17.171  17.500  18.114
 23.389  23.470  23.485  23.564  23.579  23.690  23.692  23.754
 23.757  23.835  24.260  27.398  27.411  28.851  30.941  30.941
 30.941  30.941  30.947  30.947  30.948  30.948  30.952  30.955
 30.983  31.007  31.009  31.140  40.869  41.011  41.156  41.187
 41.198 189.261 189.290
 --------------------------------------------------------------
 
          Ground-State Mulliken Net Atomic Charges

     Atom                 Charge (a.u.)    Spin (a.u.)
  --------------------------------------------------------
      1 S                    -0.748115       0.385334
      2 C                     0.496191       0.229296
      3 S                    -0.748077       0.385370
  --------------------------------------------------------
  Sum of atomic charges =    -1.000000
  Sum of spin   charges =     1.000000

 -----------------------------------------------------------------
                    Cartesian Multipole Moments
 -----------------------------------------------------------------
    Charge (ESU x 10^10)
                -4.8032
    Dipole Moment (Debye)
         X       0.0000      Y       0.0000      Z      -7.5079
       Tot       7.5079
    Quadrupole Moments (Debye-Ang)
        XX     -38.7844     XY      -2.4509     YY     -39.2508
        XZ      -0.0008     YZ      -0.0006     ZZ     -63.5360
    Octapole Moments (Debye-Ang^2)
       XXX       0.0002    XXY       0.0001    XYY       0.0001
       YYY       0.0002    XXZ     -60.6265    XYZ      -3.8313
       YYZ     -61.3555    XZZ      -0.0022    YZZ      -0.0017
       ZZZ    -261.2606
    Hexadecapole Moments (Debye-Ang^3)
      XXXX     -79.1801   XXXY      -9.4173   XXYY     -26.9907
      XYYY      -9.4171   YYYY     -82.7662   XXXZ      -0.0037
      XXYZ      -0.0013   XYYZ      -0.0012   YYYZ      -0.0039
      XXZZ    -210.8544   XYZZ     -21.1625   YYZZ    -214.8816
      XZZZ      -0.0140   YZZZ      -0.0127   ZZZZ   -1352.6586
 -----------------------------------------------------------------
 Total job time:  82.26s(wall), 81.17s(cpu) 
 Mon Jul  8 12:25:43 2013

        *************************************************************
        *                                                           *
        *  Thank you very much for using Q-Chem.  Have a nice day.  *
        *                                                           *
        *************************************************************


0 sent ACK to 0 
now end server 0 ... 
 
**********************************************************************
Job 2 of 3 
**********************************************************************
 
Process 0 of 1 is on cl197.stfx.acenet.ca - thread support 1
initial socket setup ...start
initial socket setup ...done 
now start server 0 ... 

cmd = /usr/bin/ssh clhead /usr/local/qchem/bin/get_hostid 409933246 > /scratch/tmp/6064710.1.medium.q/qchem26458/lic.dat
                  Welcome to Q-Chem
     A Quantum Leap Into The Future Of Chemistry

 Y. Shao, L. Fusti-Molnar, Y. Jung, J. Kussmann, C. Ochsenfeld,
 S. T. Brown, A. T. B. Gilbert, L. V. Slipchenko,S. V. Levchenko,
 D. P. O'Neill, R. A. DiStasio Jr., R. C. Lochan, T. Wang,
 G. J. O. Beran, N. A. Besley, J. M. Herbert, C. Y. Lin,
 T. Van Voorhis, S. H. Chien, A. Sodt, R. P. Steele, 
 V. A. Rassolov, P. E. Maslen, P. P. Korambath, R. D. Adamson,
 B. Austin, J. Baker, E. F. C. Byrd, H. Dachsel, R. J. Doerksen,
 A. Dreuw, B. D. Dunietz, A. D. Dutoi, T. R. Furlani,
 S. R. Gwaltney, A. Heyden, S. Hirata, C.-P. Hsu, G. Kedziora,
 R. Z. Khaliullin, P. Klunzinger, A. M. Lee, M. S. Lee, W. Liang,
 I. Lotan, N. Nair, B. Peters, E. I. Proynov, P. A. Pieniazek, 
 Y. M. Rhee, J. Ritchie, E. Rosta, C. D. Sherrill, 
 A. C. Simmonett, J. E. Subotnik, H. L. Woodcock III,
 W. Zhang, A. T. Bell, A. K. Chakraborty, D. M. Chipman,
 F. J. Keil, A. Warshel, W. J. Hehre, H. F. Schaefer III,
 J. Kong, A. I. Krylov, P. M. W. Gill, M. Head-Gordon,
 Q-Chem, Version 3.1, Q-Chem, Inc., Pittsburgh, PA (2007).

 Additional authors for Version 3.1: 
 Z. Gan, Y. Zhao, N. E. Schultz, D. Truhlar, E. Epifanovsky and M. Oana.

 Additional authors for Version 3.2: 
 R. Baer, B. R. Brooks, D. Casanova, J.-D. Chai, C.-L. Cheng, 
 C. Cramer, D. Crittenden, A. Ghysels, G. Hawkins, E. G. Hohenstein, 
 C. Kelley, W. Kurlancheek, D. Liotard, E. Livshits, P. Manohar, 
 A. Marenich, D. Neuhauser, R. Olson, M. A. Rohrdanz, K. S. Thanthiriwatte, 
 A. J. W. Thom, V. Vanovschi, C. F. Williams, Q. Wu and Z.-Q. You. 


 Intel X86 Linux Version

 Q-chem begins on Mon Jul  8 12:25:45 2013  

 Parallel job on  1  processors
Processing $rem in /usr/local/qchem/config/preferences.

theFileMan(): MAXOPENFILES=974 MAX_SUB_FILE_NUM=16
Maximum size of a physical file is 2.0 GB, maximum size of a tmp-file is 32.0 GB


--------------------------------------------------------------
User input:
--------------------------------------------------------------

$molecule
0,1
S          0.00000        0.00000        0.02033
C          0.00000        0.00000        1.56317
S          0.00000        0.00000        3.10600
$end

$comment
neutral
$end

$xc_functional
C PBE   1.00
X wPBE  1.00
$end


$rem
SYMMETRY_DECOMPOSITION	0
LRC_DFT                 true
exchange 		general
BASIS                   g3large
omega			100
mem_static              760
max_scf_cycles          200
scf_final_print         1
sym_ignore              true
$end

--------------------------------------------------------------
 Writing REM_CC_EA            3
 ----------------------------------------------------
       Standard Nuclear Orientation (Angstroms)
    I     Atom         X            Y            Z
 ----------------------------------------------------
    1      S       0.000000     0.000000     0.020330
    2      C       0.000000     0.000000     1.563170
    3      S       0.000000     0.000000     3.106000
 ----------------------------------------------------
 Nuclear Repulsion Energy =   109.7568485658 hartrees
 There are       19 alpha and       19 beta electrons
 Requested basis set is G3large
 There are 48 shells and 174 basis functions

Total QAlloc Memory Limit   2000 MB
Mega-Array Size       743 MB
MEM_STATIC part       760 MB

                       Distance Matrix (Angstroms)
             S (  1)   C (  2)
   C (  2)  1.542840
   S (  3)  3.085670  1.542830
 
 A cutoff of  1.0D-08 yielded   1031 shell pairs
 There are  13994 function pairs ( 19618 Cartesian)
Evaluating contribution to one-electron hamiltonian from nuclear
 Smallest overlap matrix eigenvalue = 7.87E-05

 Q-Chem warning in module mkSTV.C, line 194:

 Overlap eigenvalue is smaller than square root of threshold

 Multipole matrices computed through 2nd order

  Scale SEOQF with 1.000000e-01/1.000000e-01/1.000000e-01

 Standard Electronic Orientation quadrupole field applied
 Nucleus-field energy     =    -0.0000000181 hartrees
 Guess from superposition of atomic densities
 Warning:  Energy on first SCF cycle will be non-variational
 Long-range K will be added via erf
 Coulomb attenuation parameter = 0.1 bohr**(-1)
 A restricted Kohn-Sham SCF calculation will be
 performed using Pulay DIIS extrapolation
 Exchange:  wPBE + LR-HF      Correlation:  PBE
 Using SG-1 standard quadrature grid
 SCF converges when DIIS error is below 1.0E-05
 Requested basis set is G3large
 There are 48 shells and 174 basis functions
 A cutoff of  1.0D-08 yielded   1031 shell pairs
 There are  13994 function pairs ( 19618 Cartesian)
 ---------------------------------------
  Cycle       Energy         DIIS Error
 ---------------------------------------
    1    -834.6281777502      2.97E-02
    2    -834.1531189931      1.54E-03
    3    -834.1560446079      1.50E-03
    4    -834.1619554677      8.30E-04
    5    -834.1644053264      1.28E-04
    6    -834.1644592436      1.69E-05
    7    -834.1644612437      2.72E-06 Convergence criterion met
 ---------------------------------------
 One-Electron    Energy = -1369.0178803203
 Total Coulomb   Energy =   481.4923002831
 Alpha Exchange  Energy =    -1.0614983504
 Beta  Exchange  Energy =    -1.0614983504
 DFT   Exchange  Energy =   -52.8435428077
 DFT Correlation Energy =    -1.4291902458
 Nuclear Repu.   Energy =   109.7568485477
 Nuclear Attr.   Energy = -2202.1791488422
 Kinetic         Energy =   833.1612685219
 SCF time:  CPU 58.23 s  wall 58.83 s
 Final Alpha MO Eigenvalues
            1           2           3           4           5           6
    1 -88.1249803 -88.1249771 -10.0500137  -7.7609430  -7.7609184  -5.7806520
            7           8           9          10          11          12
    1  -5.7806419  -5.7769474  -5.7769464  -5.7769450  -5.7769439  -0.8465882
           13          14          15          16          17          18
    1  -0.7642143  -0.5185135  -0.4456069  -0.4122339  -0.4122319  -0.3023597
           19          20          21          22          23          24
    1  -0.3023567  -0.0526796  -0.0526785   0.0324972   0.0479687   0.0595202
 Analysis of SCF Wavefunction
 
 --------------------------------------------------------------
                    Orbital Energies (a.u.)
 --------------------------------------------------------------
 
 Alpha MOs
 -- Occupied --
-88.125 -88.125 -10.050  -7.761  -7.761  -5.781  -5.781  -5.777
 -5.777  -5.777  -5.777  -0.847  -0.764  -0.519  -0.446  -0.412
 -0.412  -0.302  -0.302
 -- Virtual --
 -0.053  -0.053   0.032   0.048   0.060   0.081   0.081   0.101
  0.107   0.107   0.123   0.165   0.165   0.176   0.187   0.212
  0.212   0.258   0.258   0.276   0.286   0.286   0.335   0.395
  0.395   0.415   0.437   0.452   0.452   0.471   0.471   0.669
  0.669   0.691   0.691   0.712   0.714   0.787   0.787   0.791
  0.862   0.862   0.886   0.886   0.902   0.902   0.909   0.933
  0.933   0.985   0.985   1.030   1.030   1.052   1.082   1.082
  1.096   1.234   1.234   1.253   1.329   1.389   1.389   1.538
  1.558   1.558   1.815   1.815   1.892   1.911   1.911   2.175
  2.366   2.745   2.745   2.779   2.779   2.876   2.876   2.973
  2.973   3.067   3.185   3.231   3.231   3.249   3.249   3.413
  3.413   3.420   3.420   3.479   3.489   3.489   3.532   3.532
  3.754   3.754   4.107   4.107   4.178   4.437   4.440   4.486
  4.489   4.752   4.851   4.851   5.085   5.085   5.177   5.814
  8.450   8.587  16.926  16.926  16.941  16.941  17.273  17.887
 23.144  23.241  23.257  23.335  23.350  23.463  23.463  23.527
 23.527  23.607  24.011  27.134  27.134  28.589  30.712  30.712
 30.712  30.712  30.718  30.718  30.719  30.720  30.725  30.725
 30.754  30.780  30.780  30.911  40.594  40.743  40.881  40.924
 40.924 189.033 189.062
 --------------------------------------------------------------
 
          Ground-State Mulliken Net Atomic Charges

     Atom                 Charge (a.u.)
  ----------------------------------------
      1 S                    -0.232959
      2 C                     0.465913
      3 S                    -0.232954
  ----------------------------------------
  Sum of atomic charges =     0.000000

 -----------------------------------------------------------------
                    Cartesian Multipole Moments
 -----------------------------------------------------------------
    Charge (ESU x 10^10)
                 0.0000
    Dipole Moment (Debye)
         X       0.0000      Y       0.0000      Z       0.0002
       Tot       0.0002
    Quadrupole Moments (Debye-Ang)
        XX     -31.2985     XY       0.0001     YY     -31.2985
        XZ       0.0000     YZ       0.0001     ZZ     -28.4772
    Octapole Moments (Debye-Ang^2)
       XXX       0.0001    XXY       0.0000    XYY       0.0000
       YYY       0.0000    XXZ     -48.9246    XYZ       0.0002
       YYZ     -48.9246    XZZ       0.0000    YZZ       0.0003
       ZZZ    -133.5442
    Hexadecapole Moments (Debye-Ang^3)
      XXXX     -40.7775   XXXY       0.0003   XXYY     -13.5927
      XYYY       0.0003   YYYY     -40.7776   XXXZ       0.0001
      XXYZ       0.0001   XYYZ       0.0000   YYYZ       0.0001
      XXZZ    -151.2076   XYZZ       0.0010   YYZZ    -151.2078
      XZZZ       0.0001   YZZZ       0.0009   ZZZZ    -785.9025
 -----------------------------------------------------------------
 Total job time:  59.04s(wall), 58.43s(cpu) 
 Mon Jul  8 12:26:45 2013

        *************************************************************
        *                                                           *
        *  Thank you very much for using Q-Chem.  Have a nice day.  *
        *                                                           *
        *************************************************************


0 sent ACK to 0 
now end server 0 ... 
 
**********************************************************************
Job 3 of 3 
**********************************************************************
 
Process 0 of 1 is on cl197.stfx.acenet.ca - thread support 1
initial socket setup ...start
initial socket setup ...done 
now start server 0 ... 

cmd = /usr/bin/ssh clhead /usr/local/qchem/bin/get_hostid 892304074 > /scratch/tmp/6064710.1.medium.q/qchem26458/lic.dat
                  Welcome to Q-Chem
     A Quantum Leap Into The Future Of Chemistry

 Y. Shao, L. Fusti-Molnar, Y. Jung, J. Kussmann, C. Ochsenfeld,
 S. T. Brown, A. T. B. Gilbert, L. V. Slipchenko,S. V. Levchenko,
 D. P. O'Neill, R. A. DiStasio Jr., R. C. Lochan, T. Wang,
 G. J. O. Beran, N. A. Besley, J. M. Herbert, C. Y. Lin,
 T. Van Voorhis, S. H. Chien, A. Sodt, R. P. Steele, 
 V. A. Rassolov, P. E. Maslen, P. P. Korambath, R. D. Adamson,
 B. Austin, J. Baker, E. F. C. Byrd, H. Dachsel, R. J. Doerksen,
 A. Dreuw, B. D. Dunietz, A. D. Dutoi, T. R. Furlani,
 S. R. Gwaltney, A. Heyden, S. Hirata, C.-P. Hsu, G. Kedziora,
 R. Z. Khaliullin, P. Klunzinger, A. M. Lee, M. S. Lee, W. Liang,
 I. Lotan, N. Nair, B. Peters, E. I. Proynov, P. A. Pieniazek, 
 Y. M. Rhee, J. Ritchie, E. Rosta, C. D. Sherrill, 
 A. C. Simmonett, J. E. Subotnik, H. L. Woodcock III,
 W. Zhang, A. T. Bell, A. K. Chakraborty, D. M. Chipman,
 F. J. Keil, A. Warshel, W. J. Hehre, H. F. Schaefer III,
 J. Kong, A. I. Krylov, P. M. W. Gill, M. Head-Gordon,
 Q-Chem, Version 3.1, Q-Chem, Inc., Pittsburgh, PA (2007).

 Additional authors for Version 3.1: 
 Z. Gan, Y. Zhao, N. E. Schultz, D. Truhlar, E. Epifanovsky and M. Oana.

 Additional authors for Version 3.2: 
 R. Baer, B. R. Brooks, D. Casanova, J.-D. Chai, C.-L. Cheng, 
 C. Cramer, D. Crittenden, A. Ghysels, G. Hawkins, E. G. Hohenstein, 
 C. Kelley, W. Kurlancheek, D. Liotard, E. Livshits, P. Manohar, 
 A. Marenich, D. Neuhauser, R. Olson, M. A. Rohrdanz, K. S. Thanthiriwatte, 
 A. J. W. Thom, V. Vanovschi, C. F. Williams, Q. Wu and Z.-Q. You. 


 Intel X86 Linux Version

 Q-chem begins on Mon Jul  8 12:26:47 2013  

 Parallel job on  1  processors
Processing $rem in /usr/local/qchem/config/preferences.

theFileMan(): MAXOPENFILES=974 MAX_SUB_FILE_NUM=16
Maximum size of a physical file is 2.0 GB, maximum size of a tmp-file is 32.0 GB


--------------------------------------------------------------
User input:
--------------------------------------------------------------

$molecule
1,2
S          0.00000        0.00000        0.02033
C          0.00000        0.00000        1.56317
S          0.00000        0.00000        3.10600
$end

$comment
positive
$end

$xc_functional
C PBE   1.00
X wPBE  1.00
$end

$rem
SYMMETRY_DECOMPOSITION	0
LRC_DFT                 true
exchange 		general
BASIS                   g3large
omega			100
mem_static              760
max_scf_cycles          200
scf_final_print         1
sym_ignore              true
$end

--------------------------------------------------------------
 Writing REM_CC_EA            3
 ----------------------------------------------------
       Standard Nuclear Orientation (Angstroms)
    I     Atom         X            Y            Z
 ----------------------------------------------------
    1      S       0.000000     0.000000     0.020330
    2      C       0.000000     0.000000     1.563170
    3      S       0.000000     0.000000     3.106000
 ----------------------------------------------------
 Nuclear Repulsion Energy =   109.7568485658 hartrees
 There are       19 alpha and       18 beta electrons
 Requested basis set is G3large
 There are 48 shells and 174 basis functions

Total QAlloc Memory Limit   2000 MB
Mega-Array Size       743 MB
MEM_STATIC part       760 MB

                       Distance Matrix (Angstroms)
             S (  1)   C (  2)
   C (  2)  1.542840
   S (  3)  3.085670  1.542830
 
 A cutoff of  1.0D-08 yielded   1031 shell pairs
 There are  13994 function pairs ( 19618 Cartesian)
Evaluating contribution to one-electron hamiltonian from nuclear
 Smallest overlap matrix eigenvalue = 7.87E-05

 Q-Chem warning in module mkSTV.C, line 194:

 Overlap eigenvalue is smaller than square root of threshold

 Multipole matrices computed through 2nd order

  Scale SEOQF with 1.000000e-01/1.000000e-01/1.000000e-01

 Standard Electronic Orientation quadrupole field applied
 Nucleus-field energy     =    -0.0000000181 hartrees
 Guess from superposition of atomic densities
 Warning:  Energy on first SCF cycle will be non-variational
 Long-range K will be added via erf
 Coulomb attenuation parameter = 0.1 bohr**(-1)
 An unrestricted Kohn-Sham SCF calculation will be
 performed using Pulay DIIS extrapolation
 Exchange:  wPBE + LR-HF      Correlation:  PBE
 Using SG-1 standard quadrature grid
 SCF converges when DIIS error is below 1.0E-05
 Requested basis set is G3large
 There are 48 shells and 174 basis functions
 A cutoff of  1.0D-08 yielded   1031 shell pairs
 There are  13994 function pairs ( 19618 Cartesian)
 Warning!  Inaccurate integrated density:
   Number of electrons =    37
   Numerical integral  =    37.999949770176
   Relative error      =     2.7025669464 %
 ---------------------------------------
  Cycle       Energy         DIIS Error
 ---------------------------------------
    1    -834.6281777502      2.97E-02
    2    -833.7776296408      1.62E-03
    3    -833.7897031443      1.37E-03
    4    -833.7933075143      7.44E-04
    5    -833.7954043272      2.10E-04
    6    -833.7956303044      1.94E-05
    7    -833.7956702218      4.37E-06 Convergence criterion met
 ---------------------------------------
 One-Electron    Energy = -1358.5685036333
 Total Coulomb   Energy =   471.1077089414
 Alpha Exchange  Energy =    -1.0623614695
 Beta  Exchange  Energy =    -1.0066788258
 DFT   Exchange  Energy =   -52.6330540127
 DFT Correlation Energy =    -1.3896297696
 Nuclear Repu.   Energy =   109.7568485477
 Nuclear Attr.   Energy = -2191.3968870077
 Kinetic         Energy =   832.8283833744
 <S^2> = 0.7650
 SCF time:  CPU 70.15 s  wall 70.43 s
 Final Alpha MO Eigenvalues
            1           2           3           4           5           6
    1 -88.4189081 -88.4188821 -10.3015939  -8.0506080  -8.0505750  -6.0745129
            7           8           9          10          11          12
    1  -6.0744907  -6.0683363  -6.0683128  -6.0637109  -6.0636883  -1.1139540
           13          14          15          16          17          18
    1  -1.0391024  -0.7805082  -0.7058617  -0.6805235  -0.6631165  -0.5854061
           19          20          21          22          23          24
    1  -0.5571804  -0.3107677  -0.2955896  -0.1779840  -0.1402372  -0.1087889
 Final Beta MO Eigenvalues
            1           2           3           4           5           6
    1 -88.4159317 -88.4159068 -10.3038897  -8.0478320  -8.0477980  -6.0668402
            7           8           9          10          11          12
    1  -6.0668161  -6.0664303  -6.0664083  -6.0615565  -6.0615349  -1.1055085
           13          14          15          16          17          18
    1  -1.0222518  -0.7687655  -0.6968675  -0.6606213  -0.6586680  -0.5480020
           19          20          21          22          23
    1  -0.4356197  -0.2938675  -0.2894035  -0.1692525  -0.1363485
 Analysis of SCF Wavefunction
 
 --------------------------------------------------------------
                    Orbital Energies (a.u.)
 --------------------------------------------------------------
 
 Alpha MOs
 -- Occupied --
-88.419 -88.419 -10.302  -8.051  -8.051  -6.075  -6.074  -6.068
 -6.068  -6.064  -6.064  -1.114  -1.039  -0.781  -0.706  -0.681
 -0.663  -0.585  -0.557
 -- Virtual --
 -0.311  -0.296  -0.178  -0.140  -0.109  -0.081  -0.075  -0.070
 -0.046  -0.040  -0.039  -0.024  -0.024   0.011   0.015   0.019
  0.020   0.025   0.029   0.049   0.063   0.110   0.161   0.185
  0.198   0.229   0.237   0.245   0.247   0.257   0.258   0.434
  0.434   0.473   0.481   0.489   0.496   0.550   0.563   0.563
  0.628   0.628   0.651   0.651   0.662   0.663   0.663   0.669
  0.680   0.727   0.728   0.778   0.793   0.826   0.842   0.857
  0.882   0.997   1.001   1.002   1.097   1.152   1.168   1.296
  1.308   1.313   1.549   1.568   1.651   1.658   1.668   1.929
  2.106   2.500   2.503   2.534   2.534   2.621   2.621   2.705
  2.718   2.805   2.934   2.965   2.977   2.993   2.993   3.123
  3.123   3.129   3.129   3.204   3.219   3.220   3.251   3.254
  3.481   3.494   3.825   3.839   3.913   4.151   4.154   4.201
  4.203   4.481   4.563   4.578   4.800   4.816   4.901   5.540
  8.168   8.307  16.628  16.640  16.644  16.656  16.986  17.601
 22.873  22.949  22.964  23.043  23.058  23.170  23.178  23.234
 23.242  23.319  23.743  26.882  26.883  28.335  30.421  30.421
 30.421  30.422  30.429  30.429  30.430  30.430  30.433  30.441
 30.468  30.488  30.495  30.625  40.343  40.492  40.631  40.672
 40.672 188.741 188.770
 
 Beta MOs
 -- Occupied --
-88.416 -88.416 -10.304  -8.048  -8.048  -6.067  -6.067  -6.066
 -6.066  -6.062  -6.062  -1.106  -1.022  -0.769  -0.697  -0.661
 -0.659  -0.548
 -- Virtual --
 -0.436  -0.294  -0.289  -0.169  -0.136  -0.099  -0.077  -0.070
 -0.069  -0.038  -0.038  -0.037  -0.007  -0.005   0.014   0.015
  0.025   0.030   0.041   0.043   0.066   0.068   0.115   0.166
  0.201   0.203   0.232   0.241   0.259   0.259   0.260   0.262
  0.438   0.439   0.475   0.480   0.498   0.499   0.565   0.565
  0.572   0.648   0.648   0.672   0.672   0.679   0.680   0.680
  0.691   0.694   0.746   0.748   0.795   0.797   0.838   0.859
  0.860   0.889   1.005   1.008   1.009   1.104   1.171   1.175
  1.316   1.316   1.317   1.573   1.575   1.659   1.672   1.674
  1.934   2.110   2.491   2.498   2.524   2.524   2.622   2.622
  2.719   2.719   2.812   2.934   2.976   2.977   2.991   2.991
  3.158   3.158   3.164   3.164   3.219   3.231   3.232   3.270
  3.271   3.494   3.494   3.837   3.839   3.915   4.161   4.165
  4.211   4.215   4.480   4.575   4.579   4.816   4.817   4.908
  5.551   8.175   8.312  16.642  16.644  16.658  16.660  16.989
 17.603  22.873  22.955  22.971  23.049  23.064  23.176  23.179
 23.240  23.243  23.322  23.743  26.878  26.880  28.333  30.424
 30.424  30.424  30.425  30.431  30.431  30.432  30.432  30.436
 30.442  30.469  30.491  30.496  30.626  40.339  40.489  40.626
 40.669  40.670 188.744 188.773
 --------------------------------------------------------------
 
          Ground-State Mulliken Net Atomic Charges

     Atom                 Charge (a.u.)    Spin (a.u.)
  --------------------------------------------------------
      1 S                     0.150968       0.585450
      2 C                     0.698121      -0.170943
      3 S                     0.150911       0.585493
  --------------------------------------------------------
  Sum of atomic charges =     1.000000
  Sum of spin   charges =     1.000000

 -----------------------------------------------------------------
                    Cartesian Multipole Moments
 -----------------------------------------------------------------
    Charge (ESU x 10^10)
                 4.8032
    Dipole Moment (Debye)
         X       0.0000      Y       0.0000      Z       7.5077
       Tot       7.5077
    Quadrupole Moments (Debye-Ang)
        XX     -26.7639     XY       1.0625     YY     -26.8118
        XZ      -0.0002     YZ       0.0000     ZZ      -0.3834
    Octapole Moments (Debye-Ang^2)
       XXX       0.0000    XXY       0.0000    XYY       0.0000
       YYY       0.0000    XXZ     -41.8365    XYZ       1.6608
       YYZ     -41.9114    XZZ      -0.0006    YZZ       0.0001
       ZZZ     -38.4885
    Hexadecapole Moments (Debye-Ang^3)
      XXXX     -29.5301   XXXY       1.0879   XXYY      -9.8621
      XYYY       1.0881   YYYY     -29.6282   XXXZ      -0.0003
      XXYZ       0.0000   XYYZ      -0.0001   YYYZ       0.0000
      XXZZ    -125.1201   XYZZ       5.5114   YYZZ    -125.3687
      XZZZ      -0.0021   YZZZ       0.0002   ZZZZ    -427.1384
 -----------------------------------------------------------------
 Total job time:  70.64s(wall), 70.35s(cpu) 
 Mon Jul  8 12:27:58 2013

        *************************************************************
        *                                                           *
        *  Thank you very much for using Q-Chem.  Have a nice day.  *
        *                                                           *
        *************************************************************


0 sent ACK to 0 
now end server 0 ... 
