Process 0 of 1 is on cl122 - thread support 1
initial socket setup ...start
initial socket setup ...done 
now start server 0 ... 

cmd = /usr/bin/ssh clhead /usr/local/qchem/bin/get_hostid 1788235531 > /tmp/1602004.1.medium.q/qchem20434/lic.dat

cmd = /usr/bin/ssh clhead /usr/local/qchem/bin/get_hostid 1788235531 > /tmp/1602004.1.medium.q/qchem20434/lic.dat

cmd = /usr/bin/ssh clhead /usr/local/qchem/bin/get_hostid 1788235531 > /tmp/1602004.1.medium.q/qchem20434/lic.dat

cmd = /usr/bin/ssh clhead /usr/local/qchem/bin/get_hostid 1788235531 > /tmp/1602004.1.medium.q/qchem20434/lic.dat

cmd = /usr/bin/ssh clhead /usr/local/qchem/bin/get_hostid 1788235531 > /tmp/1602004.1.medium.q/qchem20434/lic.dat
                  Welcome to Q-Chem
     A Quantum Leap Into The Future Of Chemistry

 Y. Shao, L. Fusti-Molnar, Y. Jung, J. Kussmann, C. Ochsenfeld,
 S. T. Brown, A. T. B. Gilbert, L. V. Slipchenko,S. V. Levchenko,
 D. P. O'Neill, R. A. DiStasio Jr., R. C. Lochan, T. Wang,
 G. J. O. Beran, N. A. Besley, J. M. Herbert, C. Y. Lin,
 T. Van Voorhis, S. H. Chien, A. Sodt, R. P. Steele, 
 V. A. Rassolov, P. E. Maslen, P. P. Korambath, R. D. Adamson,
 B. Austin, J. Baker, E. F. C. Byrd, H. Dachsel, R. J. Doerksen,
 A. Dreuw, B. D. Dunietz, A. D. Dutoi, T. R. Furlani,
 S. R. Gwaltney, A. Heyden, S. Hirata, C.-P. Hsu, G. Kedziora,
 R. Z. Khaliullin, P. Klunzinger, A. M. Lee, M. S. Lee, W. Liang,
 I. Lotan, N. Nair, B. Peters, E. I. Proynov, P. A. Pieniazek, 
 Y. M. Rhee, J. Ritchie, E. Rosta, C. D. Sherrill, 
 A. C. Simmonett, J. E. Subotnik, H. L. Woodcock III,
 W. Zhang, A. T. Bell, A. K. Chakraborty, D. M. Chipman,
 F. J. Keil, A. Warshel, W. J. Hehre, H. F. Schaefer III,
 J. Kong, A. I. Krylov, P. M. W. Gill, M. Head-Gordon,
 Q-Chem, Version 3.1, Q-Chem, Inc., Pittsburgh, PA (2007).

 Additional authors for Version 3.1: 
 Z. Gan, Y. Zhao, N. E. Schultz, D. Truhlar, E. Epifanovsky and M. Oana.

 Additional authors for Version 3.2: 
 R. Baer, B. R. Brooks, D. Casanova, J.-D. Chai, C.-L. Cheng, 
 C. Cramer, D. Crittenden, A. Ghysels, G. Hawkins, E. G. Hohenstein, 
 C. Kelley, W. Kurlancheek, D. Liotard, E. Livshits, P. Manohar, 
 A. Marenich, D. Neuhauser, R. Olson, M. A. Rohrdanz, K. S. Thanthiriwatte, 
 A. J. W. Thom, V. Vanovschi, C. F. Williams, Q. Wu and Z.-Q. You. 


 Intel X86 Linux Version

 Q-chem begins on Thu Mar 20 11:45:58 2014  

 Parallel job on  1  processors
Processing $rem in /usr/local/qchem/config/preferences.

theFileMan(): MAXOPENFILES=974 MAX_SUB_FILE_NUM=16
Maximum size of a physical file is 2.0 GB, maximum size of a tmp-file is 32.0 GB


--------------------------------------------------------------
User input:
--------------------------------------------------------------

$molecule
0,1
O          0.01242        0.00000        0.00977
H         -0.00615        0.00000        0.96356
H          0.93501        0.00000       -0.23291
$end

$comment
neutral
$end

$xc_functional
C PBE   1.00
X wPBE  1.00
$end


$rem
SYMMETRY_DECOMPOSITION	0
LRC_DFT                 true
exchange 		general
BASIS                   g3large
omega			500 
JOBTYPE                 opt
mem_static              760
max_scf_cycles          200
scf_final_print         1
sym_ignore              true
$end


--------------------------------------------------------------
 Writing REM_CC_EA            3
 ----------------------------------------------------
       Standard Nuclear Orientation (Angstroms)
    I     Atom         X            Y            Z
 ----------------------------------------------------
    1      O       0.012420     0.000000     0.009770
    2      H      -0.006150     0.000000     0.963560
    3      H       0.935010     0.000000    -0.232910
 ----------------------------------------------------
 Nuclear Repulsion Energy =     9.2229701796 hartrees
 There are        5 alpha and        5 beta electrons
 Requested basis set is G3large
 There are 22 shells and 62 basis functions

Total QAlloc Memory Limit   2000 MB
Mega-Array Size       743 MB
MEM_STATIC part       760 MB
 A cutoff of  1.0D-11 yielded    253 shell pairs
 There are   2043 function pairs (  2475 Cartesian)
Evaluating contribution to one-electron hamiltonian from nuclear
 Smallest overlap matrix eigenvalue = 2.08E-03
 Multipole matrices computed through 2nd order

  Scale SEOQF with 1.000000e-01/1.000000e+00/1.000000e-01

 Standard Electronic Orientation quadrupole field applied
 Guess from superposition of atomic densities
 Warning:  Energy on first SCF cycle will be non-variational
 Long-range K will be added via erf
 Coulomb attenuation parameter = 0.5 bohr**(-1)
 A restricted Kohn-Sham SCF calculation will be
 performed using Pulay DIIS extrapolation
 Exchange:  wPBE + LR-HF      Correlation:  PBE
 Using SG-1 standard quadrature grid
 SCF converges when DIIS error is below 1.0E-08
 Requested basis set is G3large
 There are 22 shells and 62 basis functions
 A cutoff of  1.0D-11 yielded    253 shell pairs
 There are   2043 function pairs (  2475 Cartesian)
 ---------------------------------------
  Cycle       Energy         DIIS Error
 ---------------------------------------
    1     -76.3804677501      5.30E-02
    2     -76.3625056807      1.29E-02
    3     -76.3846893706      1.11E-02
    4     -76.4208320519      7.35E-04
    5     -76.4210272865      1.67E-04
    6     -76.4210542296      3.54E-05
    7     -76.4210562479      6.88E-06
    8     -76.4210563343      1.17E-06
    9     -76.4210563364      1.66E-07
   10     -76.4210563365      3.88E-08
   11     -76.4210563365      7.78E-09 Convergence criterion met
 ---------------------------------------
 One-Electron    Energy =  -123.1433409309
 Total Coulomb   Energy =    46.8071034511
 Alpha Exchange  Energy =    -1.2194354890
 Beta  Exchange  Energy =    -1.2194354890
 DFT   Exchange  Energy =    -6.5425663118
 DFT Correlation Energy =    -0.3263517464
 Nuclear Repu.   Energy =     9.2229701795
 Nuclear Attr.   Energy =  -199.3548508519
 Kinetic         Energy =    76.2115099210
 SCF time:  CPU 8.99 s  wall 9.95 s
 Final Alpha MO Eigenvalues
            1           2           3           4           5           6
    1 -19.0129035  -1.1949764  -0.6916215  -0.5421860  -0.4694623   0.0404029
            7           8           9          10
    1   0.0703969   0.2257197   0.2340080   0.2385422
 Analysis of SCF Wavefunction
 
 --------------------------------------------------------------
                    Orbital Energies (a.u.)
 --------------------------------------------------------------
 
 Alpha MOs
 -- Occupied --
-19.013  -1.195  -0.692  -0.542  -0.469
 -- Virtual --
  0.040   0.070   0.226   0.234   0.239   0.246   0.298   0.312
  0.613   0.654   0.744   0.786   0.873   0.992   1.013   1.134
  1.161   1.393   1.501   1.533   1.907   1.932   2.034   2.284
  2.369   2.576   2.975   3.728   3.769   3.775   4.019   4.214
  4.348   5.023   5.135   5.222   5.309   5.438   5.635   5.773
  5.886   7.005   7.042   7.128   7.169   7.424   7.495   7.628
 43.848  43.860  43.885  43.936  44.005  45.632  46.017  46.437
 49.830
 --------------------------------------------------------------
 
          Ground-State Mulliken Net Atomic Charges

     Atom                 Charge (a.u.)
  ----------------------------------------
      1 O                    -0.487418
      2 H                     0.243713
      3 H                     0.243705
  ----------------------------------------
  Sum of atomic charges =     0.000000

 -----------------------------------------------------------------
                    Cartesian Multipole Moments
 -----------------------------------------------------------------
    Charge (ESU x 10^10)
                 0.0000
    Dipole Moment (Debye)
         X       1.5894      Y       0.0000      Z       1.2502
       Tot       2.0221
    Quadrupole Moments (Debye-Ang)
        XX      -5.2556     XY       0.0000     YY      -7.6636
        XZ      -0.7670     YZ       0.0000     ZZ      -4.8838
    Octapole Moments (Debye-Ang^2)
       XXX       0.2591    XXY       0.0000    XYY      -0.5016
       YYY       0.0000    XXZ      -0.8620    XYZ       0.0000
       YYZ      -0.3946    XZZ      -0.4198    YZZ       0.0000
       ZZZ       0.7356
    Hexadecapole Moments (Debye-Ang^3)
      XXXX      -6.0637   XXXY       0.0000   XXYY      -2.5224
      XYYY       0.0000   YYYY      -7.0583   XXXZ      -0.5515
      XXYZ       0.0000   XYYZ       0.0014   YYYZ       0.0000
      XXZZ      -2.5122   XYZZ       0.0000   YYZZ      -2.5231
      XZZZ      -0.1298   YZZZ       0.0000   ZZZZ      -5.7335
 -----------------------------------------------------------------
 Calculating analytic gradient of the SCF energy
 Gradient of AOints
            1           2           3
    1   2.3844483   0.4493511  -2.8337994
    2  -0.0000002   0.0000004  -0.0000001
    3   1.8757026  -3.0247198   1.1490172
 Gradient of XC Energy
            1           2           3
    1  -0.1968687  -0.0238122   0.2206809
    2   0.0000000  -0.0000000   0.0000000
    3  -0.1548720   0.2328262  -0.0779542
 Gradient of SCF Energy
            1           2           3
    1  -0.0006581   0.0001044   0.0005536
    2   0.0000000  -0.0000000   0.0000000
    3  -0.0005228   0.0005276  -0.0000047
 Max gradient component =       6.581E-04
 RMS gradient           =       3.804E-04
 Gradient time:  CPU 2.10 s  wall 2.23 s
 Geometry Optimization Parameters
   NAtoms,    NIC,     NZ,  NCons,   NDum,   NFix, NCnnct, MaxDiis
        3       9       0       0       0       0       0       0


** GEOMETRY OPTIMIZATION IN DELOCALIZED INTERNAL COORDINATES **
   Searching for a Minimum

   Optimization Cycle:   1

                       Coordinates (Angstroms)
     ATOM              X           Y           Z
    1  O           0.012420    0.000000    0.009770
    2  H          -0.006150    0.000000    0.963560
    3  H           0.935010    0.000000   -0.232910
   Point Group: c1    Number of degrees of freedom:   3


   Energy is    -76.421056336


 Attempting to Generate Delocalized Internal Coordinates

  3 Hessian modes will be used to form the next step
  Hessian Eigenvalues:
     0.160000    0.567900    0.567907

 Minimum Search - Taking Simple RFO Step
 Searching for Lamda that Minimizes Along All modes
 Value Taken    Lamda =  -0.00000131
 Step Taken.  Stepsize is  0.001936

                             Maximum     Tolerance    Cnvgd?
         Gradient           0.000727      0.000300      NO
         Displacement       0.001917      0.001200      NO
         Energy change     *********      0.000001      NO


 New Cartesian Coordinates Obtained by Inverse Iteration

 Displacement from previous Coordinates is:  0.001290
 Writing REM_CC_EA            3
 ----------------------------------------------------
       Standard Nuclear Orientation (Angstroms)
    I     Atom         X            Y            Z
 ----------------------------------------------------
    1      O       0.012859     0.000000     0.010114
    2      H      -0.006376     0.000000     0.963397
    3      H       0.934798     0.000000    -0.233091
 ----------------------------------------------------
 Nuclear Repulsion Energy =     9.2275709756 hartrees
 There are        5 alpha and        5 beta electrons
 Applying Cartesian multipole field
    Component          Value
    ---------          -----
     (2,0,0)        1.00000E-11
     (0,2,0)        2.00000E-10
     (0,0,2)       -3.00000E-11
 Requested basis set is G3large
 There are 22 shells and 62 basis functions
 A cutoff of  1.0D-11 yielded    253 shell pairs
 There are   2043 function pairs (  2475 Cartesian)
Evaluating contribution to one-electron hamiltonian from nuclear
 Smallest overlap matrix eigenvalue = 2.08E-03
 Multipole matrices computed through 2nd order
 Guess MOs from SCF MO coefficient file
Reading MOs from coefficient file
Reading MOs from coefficient file
 Long-range K will be added via erf
 Coulomb attenuation parameter = 0.5 bohr**(-1)
 A restricted Kohn-Sham SCF calculation will be
 performed using Pulay DIIS extrapolation
 Exchange:  wPBE + LR-HF      Correlation:  PBE
 Using SG-1 standard quadrature grid
 SCF converges when DIIS error is below 1.0E-08
 Requested basis set is G3large
 There are 22 shells and 62 basis functions
 A cutoff of  1.0D-11 yielded    253 shell pairs
 There are   2043 function pairs (  2475 Cartesian)
 ---------------------------------------
  Cycle       Energy         DIIS Error
 ---------------------------------------
    1     -76.4214945617      5.28E-05
    2     -76.4210570376      8.57E-06
    3     -76.4210570636      2.87E-06
    4     -76.4210570660      1.14E-06
    5     -76.4210570665      3.97E-07
    6     -76.4210570666      5.22E-08
    7     -76.4210570666      7.99E-09 Convergence criterion met
 ---------------------------------------
 One-Electron    Energy =  -123.1515898676
 Total Coulomb   Energy =    46.8112457772
 Alpha Exchange  Energy =    -1.2194811468
 Beta  Exchange  Energy =    -1.2194811468
 DFT   Exchange  Energy =    -6.5429507629
 DFT Correlation Energy =    -0.3263708953
 Nuclear Repu.   Energy =     9.2275709756
 Nuclear Attr.   Energy =  -199.3647962866
 Kinetic         Energy =    76.2132064190
 SCF time:  CPU 5.81 s  wall 6.43 s
 Final Alpha MO Eigenvalues
            1           2           3           4           5           6
    1 -19.0128012  -1.1951359  -0.6919778  -0.5420956  -0.4694943   0.0404306
            7           8           9          10
    1   0.0703988   0.2257803   0.2340382   0.2385372
 Analysis of SCF Wavefunction
 
 --------------------------------------------------------------
                    Orbital Energies (a.u.)
 --------------------------------------------------------------
 
 Alpha MOs
 -- Occupied --
-19.013  -1.195  -0.692  -0.542  -0.469
 -- Virtual --
  0.040   0.070   0.226   0.234   0.239   0.246   0.298   0.312
  0.614   0.654   0.744   0.786   0.873   0.992   1.013   1.134
  1.160   1.393   1.502   1.533   1.907   1.933   2.034   2.283
  2.369   2.576   2.976   3.729   3.769   3.775   4.020   4.215
  4.350   5.023   5.135   5.222   5.309   5.437   5.636   5.774
  5.889   7.005   7.042   7.130   7.169   7.425   7.498   7.627
 43.848  43.860  43.885  43.936  44.005  45.632  46.017  46.440
 49.831
 --------------------------------------------------------------
 
          Ground-State Mulliken Net Atomic Charges

     Atom                 Charge (a.u.)
  ----------------------------------------
      1 O                    -0.487348
      2 H                     0.243679
      3 H                     0.243669
  ----------------------------------------
  Sum of atomic charges =     0.000000

 -----------------------------------------------------------------
                    Cartesian Multipole Moments
 -----------------------------------------------------------------
    Charge (ESU x 10^10)
                 0.0000
    Dipole Moment (Debye)
         X       1.5880      Y       0.0000      Z       1.2492
       Tot       2.0205
    Quadrupole Moments (Debye-Ang)
        XX      -5.2554     XY       0.0000     YY      -7.6626
        XZ      -0.7685     YZ       0.0000     ZZ      -4.8829
    Octapole Moments (Debye-Ang^2)
       XXX       0.2524    XXY       0.0000    XYY      -0.5038
       YYY       0.0000    XXZ      -0.8640    XYZ       0.0000
       YYZ      -0.3963    XZZ      -0.4221    YZZ       0.0000
       ZZZ       0.7305
    Hexadecapole Moments (Debye-Ang^3)
      XXXX      -6.0622   XXXY       0.0000   XXYY      -2.5216
      XYYY       0.0000   YYYY      -7.0570   XXXZ      -0.5523
      XXYZ       0.0000   XYYZ       0.0012   YYYZ       0.0000
      XXZZ      -2.5107   XYZZ       0.0000   YYZZ      -2.5222
      XZZZ      -0.1312   YZZZ       0.0000   ZZZZ      -5.7309
 -----------------------------------------------------------------
 Calculating analytic gradient of the SCF energy
 Gradient of AOints
            1           2           3
    1   2.3815503   0.4531749  -2.8347252
    2   0.0000000  -0.0000000  -0.0000000
    3   1.8734202  -3.0265951   1.1531749
 Gradient of XC Energy
            1           2           3
    1  -0.1967345  -0.0240661   0.2208005
    2  -0.0000000   0.0000000   0.0000000
    3  -0.1547664   0.2330107  -0.0782444
 Gradient of SCF Energy
            1           2           3
    1  -0.0000693   0.0000233   0.0000461
    2   0.0000000  -0.0000000   0.0000000
    3  -0.0000624   0.0000276   0.0000348
 Max gradient component =       6.935E-05
 RMS gradient           =       3.850E-05
 Gradient time:  CPU 2.08 s  wall 2.13 s
 Geometry Optimization Parameters
   NAtoms,    NIC,     NZ,  NCons,   NDum,   NFix, NCnnct, MaxDiis
        3       9       0       0       0       0       0       0

 Cartesian Hessian Update
 Hessian Updated using BFGS Update


** GEOMETRY OPTIMIZATION IN DELOCALIZED INTERNAL COORDINATES **
   Searching for a Minimum

   Optimization Cycle:   2

                       Coordinates (Angstroms)
     ATOM              X           Y           Z
    1  O           0.012859    0.000000    0.010114
    2  H          -0.006376    0.000000    0.963397
    3  H           0.934798    0.000000   -0.233091
   Point Group: c1    Number of degrees of freedom:   3


   Energy is    -76.421057067

 Hessian Updated using BFGS Update

  3 Hessian modes will be used to form the next step
  Hessian Eigenvalues:
     0.141919    0.567802    0.568729

 Minimum Search - Taking Simple RFO Step
 Searching for Lamda that Minimizes Along All modes
 Value Taken    Lamda =   0.00000000
 Step Taken.  Stepsize is  0.000466

                             Maximum     Tolerance    Cnvgd?
         Gradient           0.000074      0.000300     YES
         Displacement       0.000365      0.001200     YES
         Energy change     -0.000001      0.000001     YES


                       Distance Matrix (Angstroms)
             O (  1)   H (  2)
   H (  2)  0.953477
   H (  3)  0.953478  1.522298
 


 ******************************
 **  OPTIMIZATION CONVERGED  **
 ******************************
 Analysis of SCF Wavefunction
 
 --------------------------------------------------------------
                    Orbital Energies (a.u.)
 --------------------------------------------------------------
 
 Alpha MOs
 -- Occupied --
-19.013  -1.195  -0.692  -0.542  -0.469
 -- Virtual --
  0.040   0.070   0.226   0.234   0.239   0.246   0.298   0.312
  0.614   0.654   0.744   0.786   0.873   0.992   1.013   1.134
  1.160   1.393   1.502   1.533   1.907   1.933   2.034   2.283
  2.369   2.576   2.976   3.729   3.769   3.775   4.020   4.215
  4.350   5.023   5.135   5.222   5.309   5.437   5.636   5.774
  5.889   7.005   7.042   7.130   7.169   7.425   7.498   7.627
 43.848  43.860  43.885  43.936  44.005  45.632  46.017  46.440
 49.831
 --------------------------------------------------------------
 
          Ground-State Mulliken Net Atomic Charges

     Atom                 Charge (a.u.)
  ----------------------------------------
      1 O                    -0.487348
      2 H                     0.243679
      3 H                     0.243669
  ----------------------------------------
  Sum of atomic charges =     0.000000

 -----------------------------------------------------------------
                    Cartesian Multipole Moments
 -----------------------------------------------------------------
    Charge (ESU x 10^10)
                 0.0000
    Dipole Moment (Debye)
         X       1.5880      Y       0.0000      Z       1.2492
       Tot       2.0205
    Quadrupole Moments (Debye-Ang)
        XX      -5.2554     XY       0.0000     YY      -7.6626
        XZ      -0.7685     YZ       0.0000     ZZ      -4.8829
    Octapole Moments (Debye-Ang^2)
       XXX       0.2524    XXY       0.0000    XYY      -0.5038
       YYY       0.0000    XXZ      -0.8640    XYZ       0.0000
       YYZ      -0.3963    XZZ      -0.4221    YZZ       0.0000
       ZZZ       0.7305
    Hexadecapole Moments (Debye-Ang^3)
      XXXX      -6.0622   XXXY       0.0000   XXYY      -2.5216
      XYYY       0.0000   YYYY      -7.0570   XXXZ      -0.5523
      XXYZ       0.0000   XYYZ       0.0012   YYYZ       0.0000
      XXZZ      -2.5107   XYZZ       0.0000   YYZZ      -2.5222
      XZZZ      -0.1312   YZZZ       0.0000   ZZZZ      -5.7309
 -----------------------------------------------------------------
 Total job time:  20.93s(wall), 19.12s(cpu) 
 Thu Mar 20 11:46:19 2014

        *************************************************************
        *                                                           *
        *  Thank you very much for using Q-Chem.  Have a nice day.  *
        *                                                           *
        *************************************************************


0 sent ACK to 0 
now end server 0 ... 
 
**********************************************************************
Job 2 of 2 
**********************************************************************
 
Process 0 of 1 is on cl122 - thread support 1
initial socket setup ...start
initial socket setup ...done 
now start server 0 ... 

cmd = /usr/bin/ssh clhead /usr/local/qchem/bin/get_hostid 1382348580 > /tmp/1602004.1.medium.q/qchem20434/lic.dat

cmd = /usr/bin/ssh clhead /usr/local/qchem/bin/get_hostid 1382348580 > /tmp/1602004.1.medium.q/qchem20434/lic.dat

cmd = /usr/bin/ssh clhead /usr/local/qchem/bin/get_hostid 1382348580 > /tmp/1602004.1.medium.q/qchem20434/lic.dat

cmd = /usr/bin/ssh clhead /usr/local/qchem/bin/get_hostid 1382348580 > /tmp/1602004.1.medium.q/qchem20434/lic.dat

cmd = /usr/bin/ssh clhead /usr/local/qchem/bin/get_hostid 1382348580 > /tmp/1602004.1.medium.q/qchem20434/lic.dat
                  Welcome to Q-Chem
     A Quantum Leap Into The Future Of Chemistry

 Y. Shao, L. Fusti-Molnar, Y. Jung, J. Kussmann, C. Ochsenfeld,
 S. T. Brown, A. T. B. Gilbert, L. V. Slipchenko,S. V. Levchenko,
 D. P. O'Neill, R. A. DiStasio Jr., R. C. Lochan, T. Wang,
 G. J. O. Beran, N. A. Besley, J. M. Herbert, C. Y. Lin,
 T. Van Voorhis, S. H. Chien, A. Sodt, R. P. Steele, 
 V. A. Rassolov, P. E. Maslen, P. P. Korambath, R. D. Adamson,
 B. Austin, J. Baker, E. F. C. Byrd, H. Dachsel, R. J. Doerksen,
 A. Dreuw, B. D. Dunietz, A. D. Dutoi, T. R. Furlani,
 S. R. Gwaltney, A. Heyden, S. Hirata, C.-P. Hsu, G. Kedziora,
 R. Z. Khaliullin, P. Klunzinger, A. M. Lee, M. S. Lee, W. Liang,
 I. Lotan, N. Nair, B. Peters, E. I. Proynov, P. A. Pieniazek, 
 Y. M. Rhee, J. Ritchie, E. Rosta, C. D. Sherrill, 
 A. C. Simmonett, J. E. Subotnik, H. L. Woodcock III,
 W. Zhang, A. T. Bell, A. K. Chakraborty, D. M. Chipman,
 F. J. Keil, A. Warshel, W. J. Hehre, H. F. Schaefer III,
 J. Kong, A. I. Krylov, P. M. W. Gill, M. Head-Gordon,
 Q-Chem, Version 3.1, Q-Chem, Inc., Pittsburgh, PA (2007).

 Additional authors for Version 3.1: 
 Z. Gan, Y. Zhao, N. E. Schultz, D. Truhlar, E. Epifanovsky and M. Oana.

 Additional authors for Version 3.2: 
 R. Baer, B. R. Brooks, D. Casanova, J.-D. Chai, C.-L. Cheng, 
 C. Cramer, D. Crittenden, A. Ghysels, G. Hawkins, E. G. Hohenstein, 
 C. Kelley, W. Kurlancheek, D. Liotard, E. Livshits, P. Manohar, 
 A. Marenich, D. Neuhauser, R. Olson, M. A. Rohrdanz, K. S. Thanthiriwatte, 
 A. J. W. Thom, V. Vanovschi, C. F. Williams, Q. Wu and Z.-Q. You. 


 Intel X86 Linux Version

 Q-chem begins on Thu Mar 20 11:46:25 2014  

 Parallel job on  1  processors
Processing $rem in /usr/local/qchem/config/preferences.

theFileMan(): MAXOPENFILES=974 MAX_SUB_FILE_NUM=16
Maximum size of a physical file is 2.0 GB, maximum size of a tmp-file is 32.0 GB


--------------------------------------------------------------
User input:
--------------------------------------------------------------

$molecule 
READ 
$end 

$xc_functional
C PBE   1.00
X wPBE  1.00
$end


$rem
SYMMETRY_DECOMPOSITION	0
LRC_DFT                 true
exchange 		general
BASIS                   g3large
omega			500 
JOBTYPE                 freq
IDERIV 1
SCF_GUESS READ
mem_static              760
max_scf_cycles          200
scf_final_print         1
sym_ignore              true
$end

--------------------------------------------------------------
 Writing REM_CC_EA            3
 ----------------------------------------------------
       Standard Nuclear Orientation (Angstroms)
    I     Atom         X            Y            Z
 ----------------------------------------------------
    1      O       0.012859     0.000000     0.010114
    2      H      -0.006376     0.000000     0.963397
    3      H       0.934798     0.000000    -0.233091
 ----------------------------------------------------
 Nuclear Repulsion Energy =     9.2275709756 hartrees
 There are        5 alpha and        5 beta electrons
 Requested basis set is G3large
 There are 22 shells and 62 basis functions

Total QAlloc Memory Limit   2000 MB
Mega-Array Size       759 MB
MEM_STATIC part       760 MB

                       Distance Matrix (Angstroms)
             O (  1)   H (  2)
   H (  2)  0.953477
   H (  3)  0.953478  1.522298
 
 A cutoff of  1.0D-11 yielded    253 shell pairs
 There are   2043 function pairs (  2475 Cartesian)
Evaluating contribution to one-electron hamiltonian from nuclear
 Smallest overlap matrix eigenvalue = 2.08E-03
 Multipole matrices computed through 2nd order
 Guess MOs from SCF MO coefficient file
Reading MOs from coefficient file
Reading MOs from coefficient file
 Long-range K will be added via erf
 Coulomb attenuation parameter = 0.5 bohr**(-1)
 A restricted Kohn-Sham SCF calculation will be
 performed using Pulay DIIS extrapolation
 Exchange:  wPBE + LR-HF      Correlation:  PBE
 Using SG-1 standard quadrature grid
 SCF converges when DIIS error is below 1.0E-08
 ---------------------------------------
  Cycle       Energy         DIIS Error
 ---------------------------------------
    1     -76.4210570655      9.36E-10
    2     -76.4210570655      3.09E-10 Convergence criterion met
 ---------------------------------------
 One-Electron    Energy =  -123.1515898030
 Total Coulomb   Energy =    46.8112456912
 Alpha Exchange  Energy =    -1.2194811463
 Beta  Exchange  Energy =    -1.2194811463
 DFT   Exchange  Energy =    -6.5429507427
 DFT Correlation Energy =    -0.3263708941
 Nuclear Repu.   Energy =     9.2275709756
 Nuclear Attr.   Energy =  -199.3647959985
 Kinetic         Energy =    76.2132061955
 SCF time:  CPU 1.61 s  wall 1.77 s
 Final Alpha MO Eigenvalues
            1           2           3           4           5           6
    1 -19.0128012  -1.1951359  -0.6919778  -0.5420956  -0.4694943   0.0404306
            7           8           9          10
    1   0.0703988   0.2257803   0.2340382   0.2385372
 Analysis of SCF Wavefunction
 
 --------------------------------------------------------------
                    Orbital Energies (a.u.)
 --------------------------------------------------------------
 
 Alpha MOs
 -- Occupied --
-19.013  -1.195  -0.692  -0.542  -0.469
 -- Virtual --
  0.040   0.070   0.226   0.234   0.239   0.246   0.298   0.312
  0.614   0.654   0.744   0.786   0.873   0.992   1.013   1.134
  1.160   1.393   1.502   1.533   1.907   1.933   2.034   2.283
  2.369   2.576   2.976   3.729   3.769   3.775   4.020   4.215
  4.350   5.023   5.135   5.222   5.309   5.437   5.636   5.774
  5.889   7.005   7.042   7.130   7.169   7.425   7.498   7.627
 43.848  43.860  43.885  43.936  44.005  45.632  46.017  46.440
 49.831
 --------------------------------------------------------------
 
          Ground-State Mulliken Net Atomic Charges

     Atom                 Charge (a.u.)
  ----------------------------------------
      1 O                    -0.487348
      2 H                     0.243679
      3 H                     0.243669
  ----------------------------------------
  Sum of atomic charges =     0.000000

 -----------------------------------------------------------------
                    Cartesian Multipole Moments
 -----------------------------------------------------------------
    Charge (ESU x 10^10)
                 0.0000
    Dipole Moment (Debye)
         X       1.5880      Y       0.0000      Z       1.2492
       Tot       2.0205
    Quadrupole Moments (Debye-Ang)
        XX      -5.2554     XY       0.0000     YY      -7.6626
        XZ      -0.7685     YZ       0.0000     ZZ      -4.8829
    Octapole Moments (Debye-Ang^2)
       XXX       0.2524    XXY       0.0000    XYY      -0.5038
       YYY       0.0000    XXZ      -0.8640    XYZ       0.0000
       YYZ      -0.3963    XZZ      -0.4221    YZZ       0.0000
       ZZZ       0.7305
    Hexadecapole Moments (Debye-Ang^3)
      XXXX      -6.0622   XXXY       0.0000   XXYY      -2.5216
      XYYY       0.0000   YYYY      -7.0570   XXXZ      -0.5523
      XXYZ       0.0000   XYYZ       0.0012   YYYZ       0.0000
      XXZZ      -2.5107   XYZZ       0.0000   YYZZ      -2.5222
      XZZZ      -0.1312   YZZZ       0.0000   ZZZZ      -5.7309
 -----------------------------------------------------------------
 Calculating analytic gradient of the SCF energy
 Gradient of AOints
            1           2           3
    1   2.3815501   0.4531750  -2.8347251
    2   0.0000000  -0.0000000  -0.0000000
    3   1.8734201  -3.0265951   1.1531750
 Gradient of XC Energy
            1           2           3
    1  -0.1967345  -0.0240661   0.2208005
    2  -0.0000000   0.0000000   0.0000000
    3  -0.1547664   0.2330107  -0.0782444
 Gradient of SCF Energy
            1           2           3
    1  -0.0000693   0.0000233   0.0000461
    2  -0.0000000  -0.0000000   0.0000000
    3  -0.0000624   0.0000276   0.0000348
 Max gradient component =       6.934E-05
 RMS gradient           =       3.850E-05
 Gradient time:  CPU 2.02 s  wall 2.10 s
 ######################################################
 ######################################################
 # Starting finite difference calculation for IDERIV  #
 Finite diff step size: 1.89e-03 a.u.
 Writing REM_CC_EA            3
 ----------------------------------------------------
       Standard Nuclear Orientation (Angstroms)
    I     Atom         X            Y            Z
 ----------------------------------------------------
    1      O       0.013859     0.000000     0.010114
    2      H      -0.006376     0.000000     0.963397
    3      H       0.934798     0.000000    -0.233091
 ----------------------------------------------------
 Nuclear Repulsion Energy =     9.2319815885 hartrees
 There are        5 alpha and        5 beta electrons

                       Distance Matrix (Angstroms)
             O (  1)   H (  2)
   H (  2)  0.953498
   H (  3)  0.952511  1.522298
 
 Requested basis set is G3large
 There are 22 shells and 62 basis functions
 A cutoff of  1.0D-11 yielded    253 shell pairs
 There are   2043 function pairs (  2475 Cartesian)
Evaluating contribution to one-electron hamiltonian from nuclear
 Smallest overlap matrix eigenvalue = 2.07E-03
 Multipole matrices computed through 2nd order
 Guess MOs from SCF MO coefficient file
Reading MOs from coefficient file
Reading MOs from coefficient file
 Long-range K will be added via erf
 Coulomb attenuation parameter = 0.5 bohr**(-1)
 A restricted Kohn-Sham SCF calculation will be
 performed using Pulay DIIS extrapolation
 Exchange:  wPBE + LR-HF      Correlation:  PBE
 Using SG-1 standard quadrature grid
 SCF converges when DIIS error is below 1.0E-08
 ---------------------------------------
  Cycle       Energy         DIIS Error
 ---------------------------------------
    1     -76.4214753411      7.26E-05
    2     -76.4210561001      1.17E-05
    3     -76.4210561487      3.80E-06
    4     -76.4210561526      1.09E-06
    5     -76.4210561531      6.18E-07
    6     -76.4210561532      5.69E-08
    7     -76.4210561532      1.16E-08
    8     -76.4210561532      2.58E-09 Convergence criterion met
 ---------------------------------------
 One-Electron    Energy =  -123.1594898009
 Total Coulomb   Energy =    46.8152099298
 Alpha Exchange  Energy =    -1.2195247834
 Beta  Exchange  Energy =    -1.2195247834
 DFT   Exchange  Energy =    -6.5433190522
 DFT Correlation Energy =    -0.3263892518
 Nuclear Repu.   Energy =     9.2319815885
 Nuclear Attr.   Energy =  -199.3743257560
 Kinetic         Energy =    76.2148359551
 SCF time:  CPU 6.60 s  wall 7.25 s
 Final Alpha MO Eigenvalues
            1           2           3           4           5           6
    1 -19.0127041  -1.1952901  -0.6923150  -0.5420129  -0.4695254   0.0404569
            7           8           9          10
    1   0.0704007   0.2258359   0.2340687   0.2385323
 Analysis of SCF Wavefunction
 
 --------------------------------------------------------------
                    Orbital Energies (a.u.)
 --------------------------------------------------------------
 
 Alpha MOs
 -- Occupied --
-19.013  -1.195  -0.692  -0.542  -0.470
 -- Virtual --
  0.040   0.070   0.226   0.234   0.239   0.246   0.298   0.312
  0.614   0.654   0.745   0.786   0.874   0.992   1.012   1.134
  1.160   1.393   1.502   1.534   1.907   1.933   2.034   2.283
  2.369   2.577   2.976   3.729   3.769   3.774   4.021   4.216
  4.351   5.023   5.135   5.222   5.310   5.437   5.637   5.775
  5.891   7.005   7.042   7.131   7.170   7.425   7.501   7.627
 43.848  43.861  43.885  43.937  44.005  45.632  46.017  46.442
 49.832
 --------------------------------------------------------------
 
          Ground-State Mulliken Net Atomic Charges

     Atom                 Charge (a.u.)
  ----------------------------------------
      1 O                    -0.487275
      2 H                     0.243770
      3 H                     0.243505
  ----------------------------------------
  Sum of atomic charges =     0.000000

 -----------------------------------------------------------------
                    Cartesian Multipole Moments
 -----------------------------------------------------------------
    Charge (ESU x 10^10)
                 0.0000
    Dipole Moment (Debye)
         X       1.5858      Y       0.0000      Z       1.2496
       Tot       2.0189
    Quadrupole Moments (Debye-Ang)
        XX      -5.2543     XY       0.0000     YY      -7.6615
        XZ      -0.7695     YZ       0.0000     ZZ      -4.8818
    Octapole Moments (Debye-Ang^2)
       XXX       0.2369    XXY       0.0000    XYY      -0.5096
       YYY       0.0000    XXZ      -0.8645    XYZ       0.0000
       YYZ      -0.3963    XZZ      -0.4274    YZZ       0.0000
       ZZZ       0.7309
    Hexadecapole Moments (Debye-Ang^3)
      XXXX      -6.0590   XXXY       0.0000   XXYY      -2.5207
      XYYY       0.0000   YYYY      -7.0557   XXXZ      -0.5534
      XXYZ       0.0000   XYYZ       0.0008   YYYZ       0.0000
      XXZZ      -2.5098   XYZZ       0.0000   YYZZ      -2.5218
      XZZZ      -0.1330   YZZZ       0.0000   ZZZZ      -5.7293
 -----------------------------------------------------------------
 Calculating analytic gradient of the SCF energy
 Gradient of AOints
            1           2           3
    1   2.3792409   0.4575343  -2.8367752
    2   0.0000000  -0.0000000  -0.0000000
    3   1.8708219  -3.0273658   1.1565438
 Gradient of XC Energy
            1           2           3
    1  -0.1967097  -0.0243679   0.2210776
    2  -0.0000000   0.0000000   0.0000000
    3  -0.1545452   0.2330348  -0.0784896
 Gradient of SCF Energy
            1           2           3
    1   0.0010360  -0.0000617  -0.0009743
    2   0.0000000  -0.0000000  -0.0000000
    3  -0.0003129   0.0000961   0.0002168
 Max gradient component =       1.036E-03
 RMS gradient           =       4.922E-04
 Gradient time:  CPU 2.12 s  wall 2.19 s
 Writing REM_CC_EA            3
 ----------------------------------------------------
       Standard Nuclear Orientation (Angstroms)
    I     Atom         X            Y            Z
 ----------------------------------------------------
    1      O       0.011859     0.000000     0.010114
    2      H      -0.006376     0.000000     0.963397
    3      H       0.934798     0.000000    -0.233091
 ----------------------------------------------------
 Nuclear Repulsion Energy =     9.2231642993 hartrees
 There are        5 alpha and        5 beta electrons

                       Distance Matrix (Angstroms)
             O (  1)   H (  2)
   H (  2)  0.953457
   H (  3)  0.954445  1.522298
 
 Requested basis set is G3large
 There are 22 shells and 62 basis functions
 A cutoff of  1.0D-11 yielded    253 shell pairs
 There are   2043 function pairs (  2475 Cartesian)
Evaluating contribution to one-electron hamiltonian from nuclear
 Smallest overlap matrix eigenvalue = 2.08E-03
 Multipole matrices computed through 2nd order
 Guess MOs from SCF MO coefficient file
Reading MOs from coefficient file
Reading MOs from coefficient file
 Long-range K will be added via erf
 Coulomb attenuation parameter = 0.5 bohr**(-1)
 A restricted Kohn-Sham SCF calculation will be
 performed using Pulay DIIS extrapolation
 Exchange:  wPBE + LR-HF      Correlation:  PBE
 Using SG-1 standard quadrature grid
 SCF converges when DIIS error is below 1.0E-08
 ---------------------------------------
  Cycle       Energy         DIIS Error
 ---------------------------------------
    1     -76.4202178486      1.45E-04
    2     -76.4210556829      2.34E-05
    3     -76.4210558774      7.55E-06
    4     -76.4210558928      2.15E-06
    5     -76.4210558948      1.24E-06
    6     -76.4210558955      1.14E-07
    7     -76.4210558955      2.32E-08
    8     -76.4210558956      5.18E-09 Convergence criterion met
 ---------------------------------------
 One-Electron    Energy =  -123.1436930000
 Total Coulomb   Energy =    46.8072829950
 Alpha Exchange  Energy =    -1.2194374487
 Beta  Exchange  Energy =    -1.2194374487
 DFT   Exchange  Energy =    -6.5425827761
 DFT Correlation Energy =    -0.3263525163
 Nuclear Repu.   Energy =     9.2231642993
 Nuclear Attr.   Energy =  -199.3552731639
 Kinetic         Energy =    76.2115801639
 SCF time:  CPU 6.48 s  wall 7.13 s
 Final Alpha MO Eigenvalues
            1           2           3           4           5           6
    1 -19.0128983  -1.1949818  -0.6916406  -0.5421781  -0.4694632   0.0404043
            7           8           9          10
    1   0.0703969   0.2257222   0.2340074   0.2385421
 Analysis of SCF Wavefunction
 
 --------------------------------------------------------------
                    Orbital Energies (a.u.)
 --------------------------------------------------------------
 
 Alpha MOs
 -- Occupied --
-19.013  -1.195  -0.692  -0.542  -0.469
 -- Virtual --
  0.040   0.070   0.226   0.234   0.239   0.246   0.298   0.312
  0.613   0.654   0.744   0.786   0.873   0.992   1.013   1.134
  1.161   1.393   1.501   1.533   1.907   1.932   2.034   2.284
  2.369   2.576   2.975   3.728   3.769   3.775   4.019   4.214
  4.349   5.023   5.135   5.222   5.309   5.438   5.635   5.773
  5.886   7.005   7.042   7.128   7.169   7.425   7.495   7.628
 43.848  43.860  43.885  43.936  44.005  45.632  46.017  46.438
 49.830
 --------------------------------------------------------------
 
          Ground-State Mulliken Net Atomic Charges

     Atom                 Charge (a.u.)
  ----------------------------------------
      1 O                    -0.487421
      2 H                     0.243588
      3 H                     0.243833
  ----------------------------------------
  Sum of atomic charges =     0.000000

 -----------------------------------------------------------------
                    Cartesian Multipole Moments
 -----------------------------------------------------------------
    Charge (ESU x 10^10)
                 0.0000
    Dipole Moment (Debye)
         X       1.5903      Y       0.0000      Z       1.2488
       Tot       2.0220
    Quadrupole Moments (Debye-Ang)
        XX      -5.2564     XY       0.0000     YY      -7.6636
        XZ      -0.7676     YZ       0.0000     ZZ      -4.8840
    Octapole Moments (Debye-Ang^2)
       XXX       0.2680    XXY       0.0000    XYY      -0.4980
       YYY       0.0000    XXZ      -0.8634    XYZ       0.0000
       YYZ      -0.3963    XZZ      -0.4168    YZZ       0.0000
       ZZZ       0.7301
    Hexadecapole Moments (Debye-Ang^3)
      XXXX      -6.0654   XXXY       0.0000   XXYY      -2.5225
      XYYY       0.0000   YYYY      -7.0583   XXXZ      -0.5511
      XXYZ       0.0000   XYYZ       0.0017   YYYZ       0.0000
      XXZZ      -2.5116   XYZZ       0.0000   YYZZ      -2.5226
      XZZZ      -0.1295   YZZZ       0.0000   ZZZZ      -5.7325
 -----------------------------------------------------------------
 Calculating analytic gradient of the SCF energy
 Gradient of AOints
            1           2           3
    1   2.3838614   0.4488144  -2.8326758
    2  -0.0000000   0.0000000   0.0000000
    3   1.8760089  -3.0258197   1.1498108
 Gradient of XC Energy
            1           2           3
    1  -0.1967591  -0.0237642   0.2205233
    2   0.0000000  -0.0000000  -0.0000000
    3  -0.1549866   0.2329861  -0.0779996
 Gradient of SCF Energy
            1           2           3
    1  -0.0011678   0.0001080   0.0010597
    2  -0.0000000   0.0000000   0.0000000
    3   0.0001849  -0.0000398  -0.0001451
 Max gradient component =       1.168E-03
 RMS gradient           =       5.328E-04
 Gradient time:  CPU 2.07 s  wall 2.16 s
 Writing REM_CC_EA            3
 ----------------------------------------------------
       Standard Nuclear Orientation (Angstroms)
    I     Atom         X            Y            Z
 ----------------------------------------------------
    1      O       0.012859     0.001000     0.010114
    2      H      -0.006376     0.000000     0.963397
    3      H       0.934798     0.000000    -0.233091
 ----------------------------------------------------
 Nuclear Repulsion Energy =     9.2275660918 hartrees
 There are        5 alpha and        5 beta electrons

                       Distance Matrix (Angstroms)
             O (  1)   H (  2)
   H (  2)  0.953477
   H (  3)  0.953478  1.522298
 
 Requested basis set is G3large
 There are 22 shells and 62 basis functions
 A cutoff of  1.0D-11 yielded    253 shell pairs
 There are   2043 function pairs (  2475 Cartesian)
Evaluating contribution to one-electron hamiltonian from nuclear
 Smallest overlap matrix eigenvalue = 2.08E-03
 Multipole matrices computed through 2nd order
 Guess MOs from SCF MO coefficient file
Reading MOs from coefficient file
Reading MOs from coefficient file
 Long-range K will be added via erf
 Coulomb attenuation parameter = 0.5 bohr**(-1)
 A restricted Kohn-Sham SCF calculation will be
 performed using Pulay DIIS extrapolation
 Exchange:  wPBE + LR-HF      Correlation:  PBE
 Using SG-1 standard quadrature grid
 SCF converges when DIIS error is below 1.0E-08
 ---------------------------------------
  Cycle       Energy         DIIS Error
 ---------------------------------------
    1     -76.4214762707      7.70E-05
    2     -76.4210569932      1.30E-05
    3     -76.4210570585      4.12E-06
    4     -76.4210570643      1.28E-06
    5     -76.4210570652      8.16E-07
    6     -76.4210570655      9.65E-08
    7     -76.4210570656      2.05E-08
    8     -76.4210570655      4.94E-09 Convergence criterion met
 ---------------------------------------
 One-Electron    Energy =  -123.1515811272
 Total Coulomb   Energy =    46.8112413819
 Alpha Exchange  Energy =    -1.2194810987
 Beta  Exchange  Energy =    -1.2194810987
 DFT   Exchange  Energy =    -6.5429503407
 DFT Correlation Energy =    -0.3263708740
 Nuclear Repu.   Energy =     9.2275660918
 Nuclear Attr.   Energy =  -199.3647855555
 Kinetic         Energy =    76.2132044283
 SCF time:  CPU 6.69 s  wall 7.31 s
 Final Alpha MO Eigenvalues
            1           2           3           4           5           6
    1 -19.0128013  -1.1951357  -0.6919774  -0.5420957  -0.4694943   0.0404306
            7           8           9          10
    1   0.0703988   0.2257802   0.2340382   0.2385372
 Analysis of SCF Wavefunction
 
 --------------------------------------------------------------
                    Orbital Energies (a.u.)
 --------------------------------------------------------------
 
 Alpha MOs
 -- Occupied --
-19.013  -1.195  -0.692  -0.542  -0.469
 -- Virtual --
  0.040   0.070   0.226   0.234   0.239   0.246   0.298   0.312
  0.614   0.654   0.744   0.786   0.873   0.992   1.013   1.134
  1.160   1.393   1.502   1.533   1.907   1.933   2.034   2.283
  2.369   2.576   2.976   3.729   3.769   3.775   4.020   4.215
  4.350   5.023   5.135   5.222   5.309   5.437   5.636   5.774
  5.889   7.005   7.042   7.130   7.169   7.425   7.498   7.627
 43.848  43.860  43.885  43.936  44.005  45.632  46.017  46.440
 49.831
 --------------------------------------------------------------
 
          Ground-State Mulliken Net Atomic Charges

     Atom                 Charge (a.u.)
  ----------------------------------------
      1 O                    -0.487348
      2 H                     0.243679
      3 H                     0.243670
  ----------------------------------------
  Sum of atomic charges =     0.000000

 -----------------------------------------------------------------
                    Cartesian Multipole Moments
 -----------------------------------------------------------------
    Charge (ESU x 10^10)
                 0.0000
    Dipole Moment (Debye)
         X       1.5880      Y      -0.0035      Z       1.2492
       Tot       2.0205
    Quadrupole Moments (Debye-Ang)
        XX      -5.2554     XY      -0.0008     YY      -7.6626
        XZ      -0.7685     YZ      -0.0007     ZZ      -4.8829
    Octapole Moments (Debye-Ang^2)
       XXX       0.2524    XXY      -0.0062    XYY      -0.5038
       YYY      -0.0203    XXZ      -0.8640    XYZ      -0.0002
       YYZ      -0.3963    XZZ      -0.4221    YZZ      -0.0061
       ZZZ       0.7305
    Hexadecapole Moments (Debye-Ang^3)
      XXXX      -6.0622   XXXY      -0.0012   XXYY      -2.5216
      XYYY      -0.0009   YYYY      -7.0570   XXXZ      -0.5523
      XXYZ      -0.0001   XYYZ       0.0012   YYYZ      -0.0007
      XXZZ      -2.5107   XYZZ      -0.0003   YYZZ      -2.5222
      XZZZ      -0.1312   YZZZ      -0.0010   ZZZZ      -5.7309
 -----------------------------------------------------------------
 Calculating analytic gradient of the SCF energy
 Gradient of AOints
            1           2           3
    1   2.3815497   0.4531727  -2.8347224
    2  -0.0052763   0.0026381   0.0026382
    3   1.8734197  -3.0265918   1.1531721
 Gradient of XC Energy
            1           2           3
    1  -0.1967343  -0.0240660   0.2208003
    2   0.0004357  -0.0002174  -0.0002183
    3  -0.1547662   0.2330104  -0.0782442
 Gradient of SCF Energy
            1           2           3
    1  -0.0000700   0.0000233   0.0000466
    2  -0.0000001   0.0000005  -0.0000004
    3  -0.0000629   0.0000281   0.0000347
 Max gradient component =       6.997E-05
 RMS gradient           =       3.883E-05
 Gradient time:  CPU 2.07 s  wall 2.16 s
 Writing REM_CC_EA            3
 ----------------------------------------------------
       Standard Nuclear Orientation (Angstroms)
    I     Atom         X            Y            Z
 ----------------------------------------------------
    1      O       0.012859    -0.001000     0.010114
    2      H      -0.006376     0.000000     0.963397
    3      H       0.934798     0.000000    -0.233091
 ----------------------------------------------------
 Nuclear Repulsion Energy =     9.2275660918 hartrees
 There are        5 alpha and        5 beta electrons

                       Distance Matrix (Angstroms)
             O (  1)   H (  2)
   H (  2)  0.953477
   H (  3)  0.953478  1.522298
 
 Requested basis set is G3large
 There are 22 shells and 62 basis functions
 A cutoff of  1.0D-11 yielded    253 shell pairs
 There are   2043 function pairs (  2475 Cartesian)
Evaluating contribution to one-electron hamiltonian from nuclear
 Smallest overlap matrix eigenvalue = 2.08E-03
 Multipole matrices computed through 2nd order
 Guess MOs from SCF MO coefficient file
Reading MOs from coefficient file
Reading MOs from coefficient file
 Long-range K will be added via erf
 Coulomb attenuation parameter = 0.5 bohr**(-1)
 A restricted Kohn-Sham SCF calculation will be
 performed using Pulay DIIS extrapolation
 Exchange:  wPBE + LR-HF      Correlation:  PBE
 Using SG-1 standard quadrature grid
 SCF converges when DIIS error is below 1.0E-08
 ---------------------------------------
  Cycle       Energy         DIIS Error
 ---------------------------------------
    1     -76.4210543043      5.26E-05
    2     -76.4210569886      1.15E-05
    3     -76.4210570589      2.04E-06
    4     -76.4210570646      8.72E-07
    5     -76.4210570655      2.42E-07
    6     -76.4210570656      1.48E-07
    7     -76.4210570656      2.90E-08
    8     -76.4210570656      2.91E-09 Convergence criterion met
 ---------------------------------------
 One-Electron    Energy =  -123.1515810933
 Total Coulomb   Energy =    46.8112413462
 Alpha Exchange  Energy =    -1.2194810983
 Beta  Exchange  Energy =    -1.2194810983
 DFT   Exchange  Energy =    -6.5429503397
 DFT Correlation Energy =    -0.3263708740
 Nuclear Repu.   Energy =     9.2275660918
 Nuclear Attr.   Energy =  -199.3647855242
 Kinetic         Energy =    76.2132044310
 SCF time:  CPU 6.46 s  wall 7.17 s
 Final Alpha MO Eigenvalues
            1           2           3           4           5           6
    1 -19.0128013  -1.1951357  -0.6919774  -0.5420957  -0.4694943   0.0404306
            7           8           9          10
    1   0.0703988   0.2257802   0.2340382   0.2385372
 Analysis of SCF Wavefunction
 
 --------------------------------------------------------------
                    Orbital Energies (a.u.)
 --------------------------------------------------------------
 
 Alpha MOs
 -- Occupied --
-19.013  -1.195  -0.692  -0.542  -0.469
 -- Virtual --
  0.040   0.070   0.226   0.234   0.239   0.246   0.298   0.312
  0.614   0.654   0.744   0.786   0.873   0.992   1.013   1.134
  1.160   1.393   1.502   1.533   1.907   1.933   2.034   2.283
  2.369   2.576   2.976   3.729   3.769   3.775   4.020   4.215
  4.350   5.023   5.135   5.222   5.309   5.437   5.636   5.774
  5.889   7.005   7.042   7.130   7.169   7.425   7.498   7.627
 43.848  43.860  43.885  43.936  44.005  45.632  46.017  46.440
 49.831
 --------------------------------------------------------------
 
          Ground-State Mulliken Net Atomic Charges

     Atom                 Charge (a.u.)
  ----------------------------------------
      1 O                    -0.487348
      2 H                     0.243679
      3 H                     0.243669
  ----------------------------------------
  Sum of atomic charges =     0.000000

 -----------------------------------------------------------------
                    Cartesian Multipole Moments
 -----------------------------------------------------------------
    Charge (ESU x 10^10)
                 0.0000
    Dipole Moment (Debye)
         X       1.5880      Y       0.0035      Z       1.2492
       Tot       2.0205
    Quadrupole Moments (Debye-Ang)
        XX      -5.2554     XY       0.0008     YY      -7.6626
        XZ      -0.7685     YZ       0.0007     ZZ      -4.8829
    Octapole Moments (Debye-Ang^2)
       XXX       0.2524    XXY       0.0062    XYY      -0.5038
       YYY       0.0203    XXZ      -0.8640    XYZ       0.0002
       YYZ      -0.3963    XZZ      -0.4221    YZZ       0.0061
       ZZZ       0.7305
    Hexadecapole Moments (Debye-Ang^3)
      XXXX      -6.0622   XXXY       0.0012   XXYY      -2.5216
      XYYY       0.0009   YYYY      -7.0570   XXXZ      -0.5523
      XXYZ       0.0001   XYYZ       0.0012   YYYZ       0.0007
      XXZZ      -2.5107   XYZZ       0.0003   YYZZ      -2.5222
      XZZZ      -0.1312   YZZZ       0.0010   ZZZZ      -5.7309
 -----------------------------------------------------------------
 Calculating analytic gradient of the SCF energy
 Gradient of AOints
            1           2           3
    1   2.3815495   0.4531728  -2.8347223
    2   0.0052760  -0.0026379  -0.0026381
    3   1.8734196  -3.0265917   1.1531721
 Gradient of XC Energy
            1           2           3
    1  -0.1967343  -0.0240660   0.2208003
    2  -0.0004356   0.0002173   0.0002183
    3  -0.1547662   0.2330104  -0.0782442
 Gradient of SCF Energy
            1           2           3
    1  -0.0000700   0.0000233   0.0000466
    2   0.0000001  -0.0000005   0.0000004
    3  -0.0000629   0.0000281   0.0000347
 Max gradient component =       6.996E-05
 RMS gradient           =       3.882E-05
 Gradient time:  CPU 2.09 s  wall 2.17 s
 Writing REM_CC_EA            3
 ----------------------------------------------------
       Standard Nuclear Orientation (Angstroms)
    I     Atom         X            Y            Z
 ----------------------------------------------------
    1      O       0.012859     0.000000     0.011114
    2      H      -0.006376     0.000000     0.963397
    3      H       0.934798     0.000000    -0.233091
 ----------------------------------------------------
 Nuclear Repulsion Energy =     9.2310418011 hartrees
 There are        5 alpha and        5 beta electrons

                       Distance Matrix (Angstroms)
             O (  1)   H (  2)
   H (  2)  0.952477
   H (  3)  0.953734  1.522298
 
 Requested basis set is G3large
 There are 22 shells and 62 basis functions
 A cutoff of  1.0D-11 yielded    253 shell pairs
 There are   2043 function pairs (  2475 Cartesian)
Evaluating contribution to one-electron hamiltonian from nuclear
 Smallest overlap matrix eigenvalue = 2.07E-03
 Multipole matrices computed through 2nd order
 Guess MOs from SCF MO coefficient file
Reading MOs from coefficient file
Reading MOs from coefficient file
 Long-range K will be added via erf
 Coulomb attenuation parameter = 0.5 bohr**(-1)
 A restricted Kohn-Sham SCF calculation will be
 performed using Pulay DIIS extrapolation
 Exchange:  wPBE + LR-HF      Correlation:  PBE
 Using SG-1 standard quadrature grid
 SCF converges when DIIS error is below 1.0E-08
 ---------------------------------------
  Cycle       Energy         DIIS Error
 ---------------------------------------
    1     -76.4213855846      8.17E-05
    2     -76.4210559474      1.37E-05
    3     -76.4210560193      4.33E-06
    4     -76.4210560255      1.13E-06
    5     -76.4210560263      8.11E-07
    6     -76.4210560266      9.60E-08
    7     -76.4210560266      2.03E-08
    8     -76.4210560266      4.92E-09 Convergence criterion met
 ---------------------------------------
 One-Electron    Energy =  -123.1578059399
 Total Coulomb   Energy =    46.8143650182
 Alpha Exchange  Energy =    -1.2195154745
 Beta  Exchange  Energy =    -1.2195154745
 DFT   Exchange  Energy =    -6.5432406317
 DFT Correlation Energy =    -0.3263853252
 Nuclear Repu.   Energy =     9.2310418011
 Nuclear Attr.   Energy =  -199.3722952052
 Kinetic         Energy =    76.2144892653
 SCF time:  CPU 6.61 s  wall 7.29 s
 Final Alpha MO Eigenvalues
            1           2           3           4           5           6
    1 -19.0127248  -1.1952573  -0.6922430  -0.5420306  -0.4695188   0.0404512
            7           8           9          10
    1   0.0704003   0.2258236   0.2340615   0.2385333
 Analysis of SCF Wavefunction
 
 --------------------------------------------------------------
                    Orbital Energies (a.u.)
 --------------------------------------------------------------
 
 Alpha MOs
 -- Occupied --
-19.013  -1.195  -0.692  -0.542  -0.470
 -- Virtual --
  0.040   0.070   0.226   0.234   0.239   0.246   0.298   0.312
  0.614   0.654   0.745   0.786   0.874   0.992   1.012   1.134
  1.160   1.393   1.502   1.534   1.907   1.933   2.034   2.283
  2.369   2.577   2.976   3.729   3.769   3.774   4.021   4.216
  4.350   5.023   5.135   5.222   5.310   5.437   5.637   5.775
  5.891   7.005   7.042   7.131   7.170   7.425   7.500   7.627
 43.848  43.861  43.885  43.937  44.005  45.632  46.017  46.441
 49.832
 --------------------------------------------------------------
 
          Ground-State Mulliken Net Atomic Charges

     Atom                 Charge (a.u.)
  ----------------------------------------
      1 O                    -0.487290
      2 H                     0.243488
      3 H                     0.243802
  ----------------------------------------
  Sum of atomic charges =     0.000000

 -----------------------------------------------------------------
                    Cartesian Multipole Moments
 -----------------------------------------------------------------
    Charge (ESU x 10^10)
                 0.0000
    Dipole Moment (Debye)
         X       1.5884      Y       0.0000      Z       1.2467
       Tot       2.0193
    Quadrupole Moments (Debye-Ang)
        XX      -5.2549     XY       0.0000     YY      -7.6617
        XZ      -0.7692     YZ       0.0000     ZZ      -4.8816
    Octapole Moments (Debye-Ang^2)
       XXX       0.2526    XXY       0.0000    XYY      -0.5038
       YYY       0.0000    XXZ      -0.8694    XYZ       0.0000
       YYZ      -0.4021    XZZ      -0.4225    YZZ       0.0000
       ZZZ       0.7152
    Hexadecapole Moments (Debye-Ang^3)
      XXXX      -6.0628   XXXY       0.0000   XXYY      -2.5216
      XYYY       0.0000   YYYY      -7.0560   XXXZ      -0.5533
      XXYZ       0.0000   XYYZ       0.0011   YYYZ       0.0000
      XXZZ      -2.5098   XYZZ       0.0000   YYZZ      -2.5212
      XZZZ      -0.1318   YZZZ       0.0000   ZZZZ      -5.7270
 -----------------------------------------------------------------
 Calculating analytic gradient of the SCF energy
 Gradient of AOints
            1           2           3
    1   2.3789535   0.4549893  -2.8339428
    2  -0.0000000   0.0000000   0.0000000
    3   1.8723699  -3.0292740   1.1569041
 Gradient of XC Energy
            1           2           3
    1  -0.1965135  -0.0241706   0.2206841
    2   0.0000000  -0.0000000  -0.0000000
    3  -0.1548499   0.2333420  -0.0784921
 Gradient of SCF Energy
            1           2           3
    1  -0.0003185  -0.0000213   0.0003398
    2   0.0000000  -0.0000000  -0.0000000
    3   0.0011633  -0.0010529  -0.0001104
 Max gradient component =       1.163E-03
 RMS gradient           =       5.468E-04
 Gradient time:  CPU 2.08 s  wall 2.18 s
 Writing REM_CC_EA            3
 ----------------------------------------------------
       Standard Nuclear Orientation (Angstroms)
    I     Atom         X            Y            Z
 ----------------------------------------------------
    1      O       0.012859     0.000000     0.009114
    2      H      -0.006376     0.000000     0.963397
    3      H       0.934798     0.000000    -0.233091
 ----------------------------------------------------
 Nuclear Repulsion Energy =     9.2241059814 hartrees
 There are        5 alpha and        5 beta electrons

                       Distance Matrix (Angstroms)
             O (  1)   H (  2)
   H (  2)  0.954477
   H (  3)  0.953223  1.522298
 
 Requested basis set is G3large
 There are 22 shells and 62 basis functions
 A cutoff of  1.0D-11 yielded    253 shell pairs
 There are   2043 function pairs (  2475 Cartesian)
Evaluating contribution to one-electron hamiltonian from nuclear
 Smallest overlap matrix eigenvalue = 2.08E-03
 Multipole matrices computed through 2nd order
 Guess MOs from SCF MO coefficient file
Reading MOs from coefficient file
Reading MOs from coefficient file
 Long-range K will be added via erf
 Coulomb attenuation parameter = 0.5 bohr**(-1)
 A restricted Kohn-Sham SCF calculation will be
 performed using Pulay DIIS extrapolation
 Exchange:  wPBE + LR-HF      Correlation:  PBE
 Using SG-1 standard quadrature grid
 SCF converges when DIIS error is below 1.0E-08
 ---------------------------------------
  Cycle       Energy         DIIS Error
 ---------------------------------------
    1     -76.4203969433      1.55E-04
    2     -76.4210555562      2.49E-05
    3     -76.4210557768      8.01E-06
    4     -76.4210557937      1.87E-06
    5     -76.4210557954      1.30E-06
    6     -76.4210557960      1.03E-07
    7     -76.4210557960      2.05E-08
    8     -76.4210557960      4.75E-09 Convergence criterion met
 ---------------------------------------
 One-Electron    Energy =  -123.1453798353
 Total Coulomb   Energy =    46.8081294350
 Alpha Exchange  Energy =    -1.2194467730
 Beta  Exchange  Energy =    -1.2194467730
 DFT   Exchange  Energy =    -6.5426613869
 DFT Correlation Energy =    -0.3263564443
 Nuclear Repu.   Energy =     9.2241059814
 Nuclear Attr.   Energy =  -199.3573078064
 Kinetic         Energy =    76.2119279711
 SCF time:  CPU 6.53 s  wall 7.15 s
 Final Alpha MO Eigenvalues
            1           2           3           4           5           6
    1 -19.0128775  -1.1950149  -0.6917124  -0.5421606  -0.4694699   0.0404099
            7           8           9          10
    1   0.0703973   0.2257342   0.2340133   0.2385410
 Analysis of SCF Wavefunction
 
 --------------------------------------------------------------
                    Orbital Energies (a.u.)
 --------------------------------------------------------------
 
 Alpha MOs
 -- Occupied --
-19.013  -1.195  -0.692  -0.542  -0.469
 -- Virtual --
  0.040   0.070   0.226   0.234   0.239   0.246   0.298   0.312
  0.613   0.654   0.744   0.786   0.873   0.992   1.013   1.134
  1.160   1.393   1.501   1.533   1.907   1.932   2.034   2.284
  2.369   2.576   2.975   3.728   3.769   3.775   4.020   4.214
  4.349   5.023   5.135   5.222   5.309   5.438   5.635   5.773
  5.887   7.005   7.042   7.129   7.169   7.425   7.496   7.628
 43.848  43.860  43.886  43.936  44.005  45.632  46.017  46.438
 49.831
 --------------------------------------------------------------
 
          Ground-State Mulliken Net Atomic Charges

     Atom                 Charge (a.u.)
  ----------------------------------------
      1 O                    -0.487406
      2 H                     0.243869
      3 H                     0.243537
  ----------------------------------------
  Sum of atomic charges =     0.000000

 -----------------------------------------------------------------
                    Cartesian Multipole Moments
 -----------------------------------------------------------------
    Charge (ESU x 10^10)
                 0.0000
    Dipole Moment (Debye)
         X       1.5877      Y       0.0000      Z       1.2516
       Tot       2.0217
    Quadrupole Moments (Debye-Ang)
        XX      -5.2558     XY       0.0000     YY      -7.6634
        XZ      -0.7679     YZ       0.0000     ZZ      -4.8841
    Octapole Moments (Debye-Ang^2)
       XXX       0.2522    XXY       0.0000    XYY      -0.5038
       YYY       0.0000    XXZ      -0.8585    XYZ       0.0000
       YYZ      -0.3905    XZZ      -0.4218    YZZ       0.0000
       ZZZ       0.7458
    Hexadecapole Moments (Debye-Ang^3)
      XXXX      -6.0616   XXXY       0.0000   XXYY      -2.5216
      XYYY       0.0000   YYYY      -7.0580   XXXZ      -0.5513
      XXYZ       0.0000   XYYZ       0.0014   YYYZ       0.0000
      XXZZ      -2.5116   XYZZ       0.0000   YYZZ      -2.5232
      XZZZ      -0.1306   YZZZ       0.0000   ZZZZ      -5.7348
 -----------------------------------------------------------------
 Calculating analytic gradient of the SCF energy
 Gradient of AOints
            1           2           3
    1   2.3841413   0.4513619  -2.8355032
    2  -0.0000000   0.0000000   0.0000000
    3   1.8744770  -3.0239171   1.1494402
 Gradient of XC Energy
            1           2           3
    1  -0.1969548  -0.0239617   0.2209166
    2   0.0000000  -0.0000000  -0.0000000
    3  -0.1546833   0.2326794  -0.0779961
 Gradient of SCF Energy
            1           2           3
    1   0.0001793   0.0000679  -0.0002472
    2   0.0000000   0.0000000  -0.0000000
    3  -0.0012798   0.0011005   0.0001792
 Max gradient component =       1.280E-03
 RMS gradient           =       5.753E-04
 Gradient time:  CPU 2.05 s  wall 2.15 s
 Writing REM_CC_EA            3
 ----------------------------------------------------
       Standard Nuclear Orientation (Angstroms)
    I     Atom         X            Y            Z
 ----------------------------------------------------
    1      O       0.012859     0.000000     0.010114
    2      H      -0.005376     0.000000     0.963397
    3      H       0.934798     0.000000    -0.233091
 ----------------------------------------------------
 Nuclear Repulsion Energy =     9.2278036656 hartrees
 There are        5 alpha and        5 beta electrons

                       Distance Matrix (Angstroms)
             O (  1)   H (  2)
   H (  2)  0.953457
   H (  3)  0.953478  1.521680
 
 Requested basis set is G3large
 There are 22 shells and 62 basis functions
 A cutoff of  1.0D-11 yielded    253 shell pairs
 There are   2043 function pairs (  2475 Cartesian)
Evaluating contribution to one-electron hamiltonian from nuclear
 Smallest overlap matrix eigenvalue = 2.08E-03
 Multipole matrices computed through 2nd order
 Guess MOs from SCF MO coefficient file
Reading MOs from coefficient file
Reading MOs from coefficient file
 Long-range K will be added via erf
 Coulomb attenuation parameter = 0.5 bohr**(-1)
 A restricted Kohn-Sham SCF calculation will be
 performed using Pulay DIIS extrapolation
 Exchange:  wPBE + LR-HF      Correlation:  PBE
 Using SG-1 standard quadrature grid
 SCF converges when DIIS error is below 1.0E-08
 ---------------------------------------
  Cycle       Energy         DIIS Error
 ---------------------------------------
    1     -76.4214344261      7.88E-05
    2     -76.4210568617      1.26E-05
    3     -76.4210569278      4.75E-06
    4     -76.4210569338      1.38E-06
    5     -76.4210569346      7.80E-07
    6     -76.4210569349      6.77E-08
    7     -76.4210569349      9.70E-09 Convergence criterion met
 ---------------------------------------
 One-Electron    Energy =  -123.1518661763
 Total Coulomb   Energy =    46.8113063493
 Alpha Exchange  Energy =    -1.2194818937
 Beta  Exchange  Energy =    -1.2194818937
 DFT   Exchange  Energy =    -6.5429644596
 DFT Correlation Energy =    -0.3263725264
 Nuclear Repu.   Energy =     9.2278036656
 Nuclear Attr.   Energy =  -199.3652194264
 Kinetic         Energy =    76.2133532501
 SCF time:  CPU 5.82 s  wall 6.35 s
 Final Alpha MO Eigenvalues
            1           2           3           4           5           6
    1 -19.0128229  -1.1951837  -0.6918733  -0.5422069  -0.4695075   0.0404240
            7           8           9          10
    1   0.0704037   0.2257665   0.2340727   0.2385353
 Analysis of SCF Wavefunction
 
 --------------------------------------------------------------
                    Orbital Energies (a.u.)
 --------------------------------------------------------------
 
 Alpha MOs
 -- Occupied --
-19.013  -1.195  -0.692  -0.542  -0.470
 -- Virtual --
  0.040   0.070   0.226   0.234   0.239   0.246   0.298   0.312
  0.614   0.654   0.744   0.786   0.873   0.992   1.013   1.134
  1.160   1.393   1.502   1.533   1.907   1.932   2.034   2.283
  2.369   2.576   2.976   3.728   3.769   3.775   4.020   4.215
  4.350   5.023   5.135   5.222   5.309   5.439   5.636   5.774
  5.888   7.005   7.042   7.129   7.169   7.425   7.499   7.627
 43.848  43.860  43.886  43.936  44.005  45.632  46.017  46.439
 49.831
 --------------------------------------------------------------
 
          Ground-State Mulliken Net Atomic Charges

     Atom                 Charge (a.u.)
  ----------------------------------------
      1 O                    -0.487167
      2 H                     0.243586
      3 H                     0.243582
  ----------------------------------------
  Sum of atomic charges =     0.000000

 -----------------------------------------------------------------
                    Cartesian Multipole Moments
 -----------------------------------------------------------------
    Charge (ESU x 10^10)
                 0.0000
    Dipole Moment (Debye)
         X       1.5894      Y       0.0000      Z       1.2489
       Tot       2.0214
    Quadrupole Moments (Debye-Ang)
        XX      -5.2557     XY       0.0000     YY      -7.6624
        XZ      -0.7659     YZ       0.0000     ZZ      -4.8828
    Octapole Moments (Debye-Ang^2)
       XXX       0.2506    XXY       0.0000    XYY      -0.5043
       YYY       0.0000    XXZ      -0.8640    XYZ       0.0000
       YYZ      -0.3963    XZZ      -0.4206    YZZ       0.0000
       ZZZ       0.7301
    Hexadecapole Moments (Debye-Ang^3)
      XXXX      -6.0627   XXXY       0.0000   XXYY      -2.5216
      XYYY       0.0000   YYYY      -7.0566   XXXZ      -0.5527
      XXYZ       0.0000   XYYZ       0.0010   YYYZ       0.0000
      XXZZ      -2.5108   XYZZ       0.0000   YYZZ      -2.5220
      XZZZ      -0.1294   YZZZ       0.0000   ZZZZ      -5.7305
 -----------------------------------------------------------------
 Calculating analytic gradient of the SCF energy
 Gradient of AOints
            1           2           3
    1   2.3850278   0.4491871  -2.8342150
    2   0.0000000  -0.0000000  -0.0000000
    3   1.8741779  -3.0263752   1.1521973
 Gradient of XC Energy
            1           2           3
    1  -0.1969990  -0.0237792   0.2207782
    2  -0.0000000   0.0000000   0.0000000
    3  -0.1548146   0.2330079  -0.0781933
 Gradient of SCF Energy
            1           2           3
    1  -0.0001542   0.0001150   0.0000392
    2   0.0000000  -0.0000000  -0.0000000
    3  -0.0001075  -0.0000236   0.0001311
 Max gradient component =       1.542E-04
 RMS gradient           =       8.682E-05
 Gradient time:  CPU 2.07 s  wall 2.13 s
 Writing REM_CC_EA            3
 ----------------------------------------------------
       Standard Nuclear Orientation (Angstroms)
    I     Atom         X            Y            Z
 ----------------------------------------------------
    1      O       0.012859     0.000000     0.010114
    2      H      -0.007376     0.000000     0.963397
    3      H       0.934798     0.000000    -0.233091
 ----------------------------------------------------
 Nuclear Repulsion Energy =     9.2273334299 hartrees
 There are        5 alpha and        5 beta electrons

                       Distance Matrix (Angstroms)
             O (  1)   H (  2)
   H (  2)  0.953498
   H (  3)  0.953478  1.522917
 
 Requested basis set is G3large
 There are 22 shells and 62 basis functions
 A cutoff of  1.0D-11 yielded    253 shell pairs
 There are   2043 function pairs (  2475 Cartesian)
Evaluating contribution to one-electron hamiltonian from nuclear
 Smallest overlap matrix eigenvalue = 2.08E-03
 Multipole matrices computed through 2nd order
 Guess MOs from SCF MO coefficient file
Reading MOs from coefficient file
Reading MOs from coefficient file
 Long-range K will be added via erf
 Coulomb attenuation parameter = 0.5 bohr**(-1)
 A restricted Kohn-Sham SCF calculation will be
 performed using Pulay DIIS extrapolation
 Exchange:  wPBE + LR-HF      Correlation:  PBE
 Using SG-1 standard quadrature grid
 SCF converges when DIIS error is below 1.0E-08
 ---------------------------------------
  Cycle       Energy         DIIS Error
 ---------------------------------------
    1     -76.4209609616      3.13E-05
    2     -76.4210569777      9.54E-06
    3     -76.4210570034      7.89E-06
    4     -76.4210570222      6.79E-07
    5     -76.4210570227      1.76E-07
    6     -76.4210570227      2.92E-08
    7     -76.4210570227      7.63E-09 Convergence criterion met
 ---------------------------------------
 One-Electron    Energy =  -123.1513051577
 Total Coulomb   Energy =    46.8111813171
 Alpha Exchange  Energy =    -1.2194803468
 Beta  Exchange  Energy =    -1.2194803468
 DFT   Exchange  Energy =    -6.5429366727
 DFT Correlation Energy =    -0.3263692459
 Nuclear Repu.   Energy =     9.2273334299
 Nuclear Attr.   Energy =  -199.3643630999
 Kinetic         Energy =    76.2130579422
 SCF time:  CPU 5.61 s  wall 6.21 s
 Final Alpha MO Eigenvalues
            1           2           3           4           5           6
    1 -19.0127796  -1.1950878  -0.6920820  -0.5419842  -0.4694811   0.0404372
            7           8           9          10
    1   0.0703939   0.2257940   0.2340036   0.2385391
 Analysis of SCF Wavefunction
 
 --------------------------------------------------------------
                    Orbital Energies (a.u.)
 --------------------------------------------------------------
 
 Alpha MOs
 -- Occupied --
-19.013  -1.195  -0.692  -0.542  -0.469
 -- Virtual --
  0.040   0.070   0.226   0.234   0.239   0.246   0.298   0.312
  0.614   0.654   0.744   0.786   0.874   0.992   1.012   1.134
  1.160   1.393   1.502   1.533   1.907   1.933   2.034   2.283
  2.369   2.576   2.975   3.729   3.769   3.774   4.021   4.215
  4.349   5.023   5.135   5.222   5.309   5.436   5.636   5.774
  5.890   7.004   7.042   7.130   7.169   7.425   7.497   7.627
 43.848  43.861  43.885  43.936  44.005  45.632  46.017  46.440
 49.831
 --------------------------------------------------------------
 
          Ground-State Mulliken Net Atomic Charges

     Atom                 Charge (a.u.)
  ----------------------------------------
      1 O                    -0.487529
      2 H                     0.243772
      3 H                     0.243757
  ----------------------------------------
  Sum of atomic charges =     0.000000

 -----------------------------------------------------------------
                    Cartesian Multipole Moments
 -----------------------------------------------------------------
    Charge (ESU x 10^10)
                 0.0000
    Dipole Moment (Debye)
         X       1.5867      Y       0.0000      Z       1.2495
       Tot       2.0196
    Quadrupole Moments (Debye-Ang)
        XX      -5.2550     XY       0.0000     YY      -7.6627
        XZ      -0.7711     YZ       0.0000     ZZ      -4.8830
    Octapole Moments (Debye-Ang^2)
       XXX       0.2543    XXY       0.0000    XYY      -0.5033
       YYY       0.0000    XXZ      -0.8640    XYZ       0.0000
       YYZ      -0.3962    XZZ      -0.4237    YZZ       0.0000
       ZZZ       0.7308
    Hexadecapole Moments (Debye-Ang^3)
      XXXX      -6.0617   XXXY       0.0000   XXYY      -2.5216
      XYYY       0.0000   YYYY      -7.0574   XXXZ      -0.5518
      XXYZ       0.0000   XYYZ       0.0015   YYYZ       0.0000
      XXZZ      -2.5105   XYZZ       0.0000   YYZZ      -2.5224
      XZZZ      -0.1330   YZZZ       0.0000   ZZZZ      -5.7313
 -----------------------------------------------------------------
 Calculating analytic gradient of the SCF energy
 Gradient of AOints
            1           2           3
    1   2.3780763   0.4571597  -2.8352360
    2   0.0000000  -0.0000000  -0.0000000
    3   1.8726584  -3.0268085   1.1541501
 Gradient of XC Energy
            1           2           3
    1  -0.1964701  -0.0243528   0.2208229
    2  -0.0000000   0.0000000  -0.0000000
    3  -0.1547176   0.2330129  -0.0782953
 Gradient of SCF Energy
            1           2           3
    1   0.0000155  -0.0000685   0.0000530
    2   0.0000000  -0.0000000  -0.0000000
    3  -0.0000183   0.0000798  -0.0000615
 Max gradient component =       7.976E-05
 RMS gradient           =       4.499E-05
 Gradient time:  CPU 2.07 s  wall 2.16 s
 Writing REM_CC_EA            3
 ----------------------------------------------------
       Standard Nuclear Orientation (Angstroms)
    I     Atom         X            Y            Z
 ----------------------------------------------------
    1      O       0.012859     0.000000     0.010114
    2      H      -0.006376     0.001000     0.963397
    3      H       0.934798     0.000000    -0.233091
 ----------------------------------------------------
 Nuclear Repulsion Energy =     9.2275684587 hartrees
 There are        5 alpha and        5 beta electrons

                       Distance Matrix (Angstroms)
             O (  1)   H (  2)
   H (  2)  0.953477
   H (  3)  0.953478  1.522298
 
 Requested basis set is G3large
 There are 22 shells and 62 basis functions
 A cutoff of  1.0D-11 yielded    253 shell pairs
 There are   2043 function pairs (  2475 Cartesian)
Evaluating contribution to one-electron hamiltonian from nuclear
 Smallest overlap matrix eigenvalue = 2.08E-03
 Multipole matrices computed through 2nd order
 Guess MOs from SCF MO coefficient file
Reading MOs from coefficient file
Reading MOs from coefficient file
 Long-range K will be added via erf
 Coulomb attenuation parameter = 0.5 bohr**(-1)
 A restricted Kohn-Sham SCF calculation will be
 performed using Pulay DIIS extrapolation
 Exchange:  wPBE + LR-HF      Correlation:  PBE
 Using SG-1 standard quadrature grid
 SCF converges when DIIS error is below 1.0E-08
 ---------------------------------------
  Cycle       Energy         DIIS Error
 ---------------------------------------
    1     -76.4211041512      2.39E-05
    2     -76.4210570434      6.21E-06
    3     -76.4210570595      4.30E-06
    4     -76.4210570655      8.20E-07
    5     -76.4210570660      1.85E-07
    6     -76.4210570660      3.74E-08
    7     -76.4210570660      1.10E-08
    8     -76.4210570660      1.61E-09 Convergence criterion met
 ---------------------------------------
 One-Electron    Energy =  -123.1515853968
 Total Coulomb   Energy =    46.8112435407
 Alpha Exchange  Energy =    -1.2194811225
 Beta  Exchange  Energy =    -1.2194811225
 DFT   Exchange  Energy =    -6.5429505402
 DFT Correlation Energy =    -0.3263708834
 Nuclear Repu.   Energy =     9.2275684587
 Nuclear Attr.   Energy =  -199.3647906713
 Kinetic         Energy =    76.2132052745
 SCF time:  CPU 6.64 s  wall 7.30 s
 Final Alpha MO Eigenvalues
            1           2           3           4           5           6
    1 -19.0128012  -1.1951358  -0.6919777  -0.5420956  -0.4694943   0.0404306
            7           8           9          10
    1   0.0703988   0.2257803   0.2340382   0.2385372
 Analysis of SCF Wavefunction
 
 --------------------------------------------------------------
                    Orbital Energies (a.u.)
 --------------------------------------------------------------
 
 Alpha MOs
 -- Occupied --
-19.013  -1.195  -0.692  -0.542  -0.469
 -- Virtual --
  0.040   0.070   0.226   0.234   0.239   0.246   0.298   0.312
  0.614   0.654   0.744   0.786   0.873   0.992   1.013   1.134
  1.160   1.393   1.502   1.533   1.907   1.933   2.034   2.283
  2.369   2.576   2.976   3.729   3.769   3.775   4.020   4.215
  4.350   5.023   5.135   5.222   5.309   5.437   5.636   5.774
  5.889   7.005   7.042   7.130   7.169   7.425   7.498   7.627
 43.848  43.860  43.885  43.936  44.005  45.632  46.017  46.440
 49.831
 --------------------------------------------------------------
 
          Ground-State Mulliken Net Atomic Charges

     Atom                 Charge (a.u.)
  ----------------------------------------
      1 O                    -0.487348
      2 H                     0.243679
      3 H                     0.243669
  ----------------------------------------
  Sum of atomic charges =     0.000000

 -----------------------------------------------------------------
                    Cartesian Multipole Moments
 -----------------------------------------------------------------
    Charge (ESU x 10^10)
                 0.0000
    Dipole Moment (Debye)
         X       1.5880      Y       0.0018      Z       1.2492
       Tot       2.0205
    Quadrupole Moments (Debye-Ang)
        XX      -5.2554     XY      -0.0002     YY      -7.6626
[...]
      XXXX      -6.0622   XXXY      -0.0016   XXYY      -2.5216
      XYYY       0.0005   YYYY      -7.0570   XXXZ      -0.5523
      XXYZ       0.0006   XYYZ       0.0012   YYYZ       0.0000
      XXZZ      -2.5107   XYZZ       0.0000   YYZZ      -2.5222
      XZZZ      -0.1312   YZZZ       0.0001   ZZZZ      -5.7309
 -----------------------------------------------------------------
 Calculating analytic gradient of the SCF energy
 Gradient of AOints
            1           2           3
    1   2.3815481   0.4531745  -2.8347226
    2  -0.0026387  -0.0004274   0.0030661
    3   1.8734211  -3.0265948   1.1531737
 Gradient of XC Energy
            1           2           3
    1  -0.1967342  -0.0240661   0.2208003
    2   0.0002183   0.0000211  -0.0002394
    3  -0.1547665   0.2330107  -0.0782443
 Gradient of SCF Energy
            1           2           3
    1  -0.0000699   0.0000233   0.0000466
    2   0.0000004  -0.0000000  -0.0000004
    3  -0.0000622   0.0000276   0.0000346
 Max gradient component =       6.989E-05
 RMS gradient           =       3.864E-05
 Gradient time:  CPU 2.11 s  wall 2.19 s
 Writing REM_CC_EA            3
 ----------------------------------------------------
       Standard Nuclear Orientation (Angstroms)
    I     Atom         X            Y            Z
 ----------------------------------------------------
    1      O       0.012859     0.000000     0.010114
    2      H      -0.006376     0.000000     0.963397
    3      H       0.934798     0.000000    -0.232091
 ----------------------------------------------------
 Nuclear Repulsion Energy =     9.2289363193 hartrees
 There are        5 alpha and        5 beta electrons

                       Distance Matrix (Angstroms)
             O (  1)   H (  2)
   H (  2)  0.953477
   H (  3)  0.953223  1.521512
 
 Requested basis set is G3large
 There are 22 shells and 62 basis functions
 A cutoff of  1.0D-11 yielded    253 shell pairs
 There are   2043 function pairs (  2475 Cartesian)
Evaluating contribution to one-electron hamiltonian from nuclear
 Smallest overlap matrix eigenvalue = 2.07E-03
 Multipole matrices computed through 2nd order
 Guess MOs from SCF MO coefficient file
Reading MOs from coefficient file
Reading MOs from coefficient file
 Long-range K will be added via erf
 Coulomb attenuation parameter = 0.5 bohr**(-1)
 A restricted Kohn-Sham SCF calculation will be
 performed using Pulay DIIS extrapolation
 Exchange:  wPBE + LR-HF      Correlation:  PBE
 Using SG-1 standard quadrature grid
 SCF converges when DIIS error is below 1.0E-08
 ---------------------------------------
  Cycle       Energy         DIIS Error
 ---------------------------------------
    1     -76.4212184413      2.85E-05
    2     -76.4210568117      6.92E-06
    3     -76.4210568306      4.78E-06
    4     -76.4210568376      1.03E-06
    5     -76.4210568382      2.53E-07
    6     -76.4210568383      6.25E-08
    7     -76.4210568383      1.21E-08
    8     -76.4210568383      2.32E-09 Convergence criterion met
 ---------------------------------------
 One-Electron    Energy =  -123.1538566804
 Total Coulomb   Energy =    46.8122836836
 Alpha Exchange  Energy =    -1.2194926842
 Beta  Exchange  Energy =    -1.2194926842
 DFT   Exchange  Energy =    -6.5430573702
 DFT Correlation Energy =    -0.3263774222
 Nuclear Repu.   Energy =     9.2289363193
 Nuclear Attr.   Energy =  -199.3676437791
 Kinetic         Energy =    76.2137870988
 SCF time:  CPU 6.52 s  wall 7.28 s
 Final Alpha MO Eigenvalues
            1           2           3           4           5           6
    1 -19.0128052  -1.1952341  -0.6919266  -0.5422171  -0.4695186   0.0404286
            7           8           9          10
    1   0.0704055   0.2257764   0.2340895   0.2385336
 Analysis of SCF Wavefunction
 
 --------------------------------------------------------------
                    Orbital Energies (a.u.)
 --------------------------------------------------------------
 
 Alpha MOs
 -- Occupied --
-19.013  -1.195  -0.692  -0.542  -0.470
 -- Virtual --
  0.040   0.070   0.226   0.234   0.239   0.246   0.298   0.312
  0.614   0.654   0.744   0.786   0.873   0.992   1.013   1.134
  1.160   1.393   1.502   1.534   1.907   1.933   2.034   2.283
  2.369   2.576   2.976   3.728   3.769   3.775   4.020   4.215
  4.350   5.023   5.135   5.222   5.309   5.439   5.636   5.775
  5.888   7.005   7.042   7.130   7.169   7.425   7.499   7.627
 43.848  43.860  43.886  43.936  44.005  45.632  46.017  46.440
 49.832
 --------------------------------------------------------------
 
          Ground-State Mulliken Net Atomic Charges

     Atom                 Charge (a.u.)
  ----------------------------------------
      1 O                    -0.487101
      2 H                     0.243588
      3 H                     0.243513
  ----------------------------------------
  Sum of atomic charges =     0.000000

 -----------------------------------------------------------------
                    Cartesian Multipole Moments
 -----------------------------------------------------------------
    Charge (ESU x 10^10)
                 0.0000
    Dipole Moment (Debye)
         X       1.5879      Y       0.0000      Z       1.2506
       Tot       2.0212
    Quadrupole Moments (Debye-Ang)
        XX      -5.2546     XY       0.0000     YY      -7.6622
        XZ      -0.7662     YZ       0.0000     ZZ      -4.8841
    Octapole Moments (Debye-Ang^2)
       XXX       0.2527    XXY       0.0000    XYY      -0.5037
       YYY       0.0000    XXZ      -0.8625    XYZ       0.0000
       YYZ      -0.3968    XZZ      -0.4230    YZZ       0.0000
       ZZZ       0.7290
    Hexadecapole Moments (Debye-Ang^3)
      XXXX      -6.0599   XXXY       0.0000   XXYY      -2.5211
      XYYY       0.0000   YYYY      -7.0562   XXXZ      -0.5509
      XXYZ       0.0000   XYYZ       0.0010   YYYZ       0.0000
      XXZZ      -2.5113   XYZZ       0.0000   YYZZ      -2.5219
      XZZZ      -0.1315   YZZZ       0.0000   ZZZZ      -5.7306
 -----------------------------------------------------------------
 Calculating analytic gradient of the SCF energy
 Gradient of AOints
            1           2           3
    1   2.3834346   0.4524104  -2.8358449
    2   0.0000001  -0.0000001   0.0000000
    3   1.8762717  -3.0259829   1.1497112
 Gradient of XC Energy
            1           2           3
    1  -0.1969053  -0.0240241   0.2209294
    2  -0.0000000   0.0000000  -0.0000000
    3  -0.1549773   0.2329814  -0.0780041
 Gradient of SCF Energy
            1           2           3
    1   0.0001114   0.0001196  -0.0002311
    2  -0.0000000   0.0000000   0.0000000
    3  -0.0002069   0.0000013   0.0002056
 Max gradient component =       2.311E-04
 RMS gradient           =       1.355E-04
 Gradient time:  CPU 2.05 s  wall 2.12 s
 Writing REM_CC_EA            3
 ----------------------------------------------------
       Standard Nuclear Orientation (Angstroms)
    I     Atom         X            Y            Z
 ----------------------------------------------------
    1      O       0.012859     0.000000     0.010114
    2      H      -0.006376     0.000000     0.963397
    3      H       0.934798     0.000000    -0.234091
 ----------------------------------------------------
 Nuclear Repulsion Energy =     9.2262018295 hartrees
 There are        5 alpha and        5 beta electrons

                       Distance Matrix (Angstroms)
             O (  1)   H (  2)
   H (  2)  0.953477
   H (  3)  0.953734  1.523084
 
 Requested basis set is G3large
 There are 22 shells and 62 basis functions
 A cutoff of  1.0D-11 yielded    253 shell pairs
 There are   2043 function pairs (  2475 Cartesian)
Evaluating contribution to one-electron hamiltonian from nuclear
 Smallest overlap matrix eigenvalue = 2.08E-03
 Multipole matrices computed through 2nd order
 Guess MOs from SCF MO coefficient file
Reading MOs from coefficient file
Reading MOs from coefficient file
 Long-range K will be added via erf
 Coulomb attenuation parameter = 0.5 bohr**(-1)
 A restricted Kohn-Sham SCF calculation will be
 performed using Pulay DIIS extrapolation
 Exchange:  wPBE + LR-HF      Correlation:  PBE
 Using SG-1 standard quadrature grid
 SCF converges when DIIS error is below 1.0E-08
 ---------------------------------------
  Cycle       Energy         DIIS Error
 ---------------------------------------
    1     -76.4207319659      4.41E-05
    2     -76.4210569083      1.14E-05
    3     -76.4210569465      8.76E-06
    4     -76.4210569685      1.28E-06
    5     -76.4210569694      3.38E-07
    6     -76.4210569695      6.81E-08
    7     -76.4210569695      7.98E-09 Convergence criterion met
 ---------------------------------------
 One-Electron    Energy =  -123.1493159391
 Total Coulomb   Energy =    46.8102044091
 Alpha Exchange  Energy =    -1.2194695566
 Beta  Exchange  Energy =    -1.2194695566
 DFT   Exchange  Energy =    -6.5428438074
 DFT Correlation Energy =    -0.3263643484
 Nuclear Repu.   Energy =     9.2262018295
 Nuclear Attr.   Energy =  -199.3619402436
 Kinetic         Energy =    76.2126243045
 SCF time:  CPU 5.78 s  wall 6.44 s
 Final Alpha MO Eigenvalues
            1           2           3           4           5           6
    1 -19.0127972  -1.1950375  -0.6920285  -0.5419741  -0.4694699   0.0404326
            7           8           9          10
    1   0.0703921   0.2257838   0.2339869   0.2385408
 Analysis of SCF Wavefunction
 
 --------------------------------------------------------------
                    Orbital Energies (a.u.)
 --------------------------------------------------------------
 
 Alpha MOs
 -- Occupied --
-19.013  -1.195  -0.692  -0.542  -0.469
 -- Virtual --
  0.040   0.070   0.226   0.234   0.239   0.246   0.298   0.312
  0.614   0.654   0.744   0.786   0.874   0.992   1.012   1.134
  1.161   1.393   1.502   1.533   1.907   1.933   2.034   2.283
  2.369   2.576   2.975   3.729   3.769   3.774   4.020   4.215
  4.349   5.023   5.135   5.222   5.309   5.436   5.636   5.774
  5.889   7.004   7.042   7.130   7.169   7.425   7.496   7.627
 43.848  43.860  43.885  43.936  44.005  45.632  46.016  46.439
 49.831
 --------------------------------------------------------------
 
          Ground-State Mulliken Net Atomic Charges

     Atom                 Charge (a.u.)
  ----------------------------------------
      1 O                    -0.487596
      2 H                     0.243770
      3 H                     0.243826
  ----------------------------------------
  Sum of atomic charges =     0.000000

 -----------------------------------------------------------------
                    Cartesian Multipole Moments
 -----------------------------------------------------------------
    Charge (ESU x 10^10)
                 0.0000
    Dipole Moment (Debye)
         X       1.5882      Y       0.0000      Z       1.2477
       Tot       2.0197
    Quadrupole Moments (Debye-Ang)
        XX      -5.2561     XY       0.0000     YY      -7.6630
        XZ      -0.7709     YZ       0.0000     ZZ      -4.8817
    Octapole Moments (Debye-Ang^2)
       XXX       0.2521    XXY       0.0000    XYY      -0.5039
       YYY       0.0000    XXZ      -0.8655    XYZ       0.0000
       YYZ      -0.3958    XZZ      -0.4213    YZZ       0.0000
       ZZZ       0.7320
    Hexadecapole Moments (Debye-Ang^3)
      XXXX      -6.0645   XXXY       0.0000   XXYY      -2.5221
      XYYY       0.0000   YYYY      -7.0578   XXXZ      -0.5536
      XXYZ       0.0000   XYYZ       0.0015   YYYZ       0.0000
      XXZZ      -2.5100   XYZZ       0.0000   YYZZ      -2.5225
      XZZZ      -0.1310   YZZZ       0.0000   ZZZZ      -5.7312
 -----------------------------------------------------------------
 Calculating analytic gradient of the SCF energy
 Gradient of AOints
            1           2           3
    1   2.3796649   0.4539351  -2.8336001
    2   0.0000000  -0.0000000  -0.0000000
    3   1.8705765  -3.0272075   1.1566310
 Gradient of XC Energy
            1           2           3
    1  -0.1965633  -0.0241079   0.2206712
    2  -0.0000000   0.0000000   0.0000000
    3  -0.1545560   0.2330401  -0.0784840
 Gradient of SCF Energy
            1           2           3
    1  -0.0002505  -0.0000730   0.0003235
    2  -0.0000000   0.0000000   0.0000000
    3   0.0000827   0.0000538  -0.0001365
 Max gradient component =       3.235E-04
 RMS gradient           =       1.495E-04
 Gradient time:  CPU 2.04 s  wall 2.14 s
Dipole drv :
gprntSymmMtrx error report: 
 Final Hessian.
            1           2           3           4           5           6
    1   0.5830893  -0.0000012  -0.1317052  -0.0449015   0.0000000   0.0359380
    2  -0.0000012  -0.0000310   0.0000013   0.0000005   0.0002630  -0.0000011
    3  -0.1317052   0.0000013   0.6464040  -0.0236180  -0.0000003  -0.5697756
    4  -0.0449015   0.0000005  -0.0236180   0.0485560  -0.0000001  -0.0273510
    5   0.0000000   0.0002630  -0.0000003  -0.0000001  -0.0002818   0.0000001
    6   0.0359380  -0.0000011  -0.5697756  -0.0273510   0.0000001   0.5836589
    7  -0.5381871   0.0000008   0.1553252  -0.0036548   0.0000000  -0.0085883
    8   0.0000006  -0.0002329  -0.0000008  -0.0000001   0.0000194   0.0000008
    9   0.0957669  -0.0000006  -0.0766298   0.0509687   0.0000004  -0.0138823
            7           8           9
    1  -0.5381871   0.0000006   0.0957669
    2   0.0000008  -0.0002329  -0.0000006
    3   0.1553252  -0.0000008  -0.0766298
    4  -0.0036548  -0.0000001   0.0509687
    5   0.0000000   0.0000194   0.0000004
    6  -0.0085883   0.0000008  -0.0138823
    7   0.5418414  -0.0000005  -0.1467363
    8  -0.0000005   0.0002139   0.0000001
    9  -0.1467363   0.0000001   0.0905125
 Writing REM_CC_EA            3
 ----------------------------------------------------
       Standard Nuclear Orientation (Angstroms)
    I     Atom         X            Y            Z
 ----------------------------------------------------
    1      O       0.012859     0.000000     0.010114
    2      H      -0.006376     0.000000     0.963397
    3      H       0.934798     0.000000    -0.233091
 ----------------------------------------------------
 Nuclear Repulsion Energy =     9.2275709756 hartrees
 There are        5 alpha and        5 beta electrons
 old dipole drv.
            1           2           3           4           5           6
    1  -0.4758999   0.0000125   0.0797671   0.2863610  -0.0000004  -0.0428775
    2  -0.0000004  -0.7325170  -0.0000183   0.0000002   0.3662957   0.0000171
    3   0.0797409   0.0000002  -0.5146025  -0.0603371  -0.0000013   0.2089004
            7           8           9
    1   0.1895241  -0.0000076  -0.0368687
    2   0.0000006   0.3662359   0.0000107
    3  -0.0194104   0.0000034   0.3057123
 New transposed dipole drv.
            1           2           3
    1  -0.4758999  -0.0000004   0.0797409
    2   0.0000125  -0.7325170   0.0000002
    3   0.0797671  -0.0000183  -0.5146025
    4   0.2863610   0.0000002  -0.0603371
    5  -0.0000004   0.3662957  -0.0000013
    6  -0.0428775   0.0000171   0.2089004
    7   0.1895241   0.0000006  -0.0194104
    8  -0.0000076   0.3662359   0.0000034
    9  -0.0368687   0.0000107   0.3057123
FINAL TENSOR RESULT:
Order 2, Length 9
Order 1, Length 9
   0.5830893  -0.0000012  -0.1317052  -0.0449015   0.0000000   0.0359380  -0.5381871   0.0000006   0.0957669
Order 1, Length 9
  -0.0000012  -0.0000310   0.0000013   0.0000005   0.0002630  -0.0000011   0.0000008  -0.0002329  -0.0000006
Order 1, Length 9
  -0.1317052   0.0000013   0.6464040  -0.0236180  -0.0000003  -0.5697756   0.1553252  -0.0000008  -0.0766298
Order 1, Length 9
  -0.0449015   0.0000005  -0.0236180   0.0485560  -0.0000001  -0.0273510  -0.0036548  -0.0000001   0.0509687
Order 1, Length 9
   0.0000000   0.0002630  -0.0000003  -0.0000001  -0.0002818   0.0000001   0.0000000   0.0000194   0.0000004
Order 1, Length 9
   0.0359380  -0.0000011  -0.5697756  -0.0273510   0.0000001   0.5836589  -0.0085883   0.0000008  -0.0138823
Order 1, Length 9
  -0.5381871   0.0000008   0.1553252  -0.0036548   0.0000000  -0.0085883   0.5418414  -0.0000005  -0.1467363
Order 1, Length 9
   0.0000006  -0.0002329  -0.0000008  -0.0000001   0.0000194   0.0000008  -0.0000005   0.0002139   0.0000001
Order 1, Length 9
   0.0957669  -0.0000006  -0.0766298   0.0509687   0.0000004  -0.0138823  -0.1467363   0.0000001   0.0905125


 # Finishing finite difference calculation for IDERIV #
 ######################################################
 ######################################################
 Requested basis set is G3large
 There are 22 shells and 62 basis functions
 **********************************************************************
 **                                                                  **
 **                       VIBRATIONAL ANALYSIS                       **
 **                       --------------------                       **
 **                                                                  **
 **        VIBRATIONAL FREQUENCIES (CM**-1) AND NORMAL MODES         **
 **     FORCE CONSTANTS (mDYN/ANGSTROM) AND REDUCED MASSES (AMU)     **
 **                  INFRARED INTENSITIES (KM/MOL)                   **
 **                                                                  **
 **********************************************************************
 

 Mode:                 1                      2                      3
 Frequency:      1629.37                3982.24                4084.92
 Force Cnst:      1.6947                 9.7592                10.6502
 Red. Mass:       1.0834                 1.0445                 1.0833
 IR Active:          YES                    YES                    YES
 IR Intens:       79.407                 16.860                 90.044
 Raman Active:       YES                    YES                    YES
               X      Y      Z        X      Y      Z        X      Y      Z
 O         -0.056  0.000 -0.044   -0.039  0.000 -0.031    0.044  0.000 -0.056
 H          0.705  0.000  0.015   -0.055  0.000  0.708   -0.014  0.000  0.702
 H          0.180  0.000  0.682    0.668  0.000 -0.218   -0.685  0.000  0.181
 TransDip   0.224  0.000  0.176    0.102  0.000  0.083   -0.188  0.000  0.238

 STANDARD THERMODYNAMIC QUANTITIES AT   298.18 K  AND     1.00 ATM

   This Molecule has  0 Imaginary Frequencies
   Zero point vibrational energy:       13.862 kcal/mol

   Atom    1 Element O  Has Mass   15.99491
   Atom    2 Element H  Has Mass    1.00783
   Atom    3 Element H  Has Mass    1.00783
   Molecular Mass:    18.010570 amu
   Principal axes and moments of inertia in atomic units:
                             1           2           3
    Eigenvalues --        2.10806     4.17018     6.27823
          X              -0.61826     0.78597     0.00000
          Y               0.00000     0.00000     1.00000
          Z               0.78597     0.61826     0.00000
   Rotational Symmetry Number is   1
   The Molecule is an Asymmetric Top
   Translational Enthalpy:        0.889 kcal/mol
   Rotational Enthalpy:           0.889 kcal/mol
   Vibrational Enthalpy:         13.864 kcal/mol
   gas constant (RT):             0.593 kcal/mol
   Translational Entropy:        34.609  cal/mol.K
   Rotational Entropy:           11.788  cal/mol.K
   Vibrational Entropy:           0.007  cal/mol.K

   Total Enthalpy:               16.234 kcal/mol
   Total Entropy:                46.404  cal/mol.K
 Total job time:  172.07s(wall), 157.59s(cpu) 
 Thu Mar 20 11:49:17 2014

        *************************************************************
        *                                                           *
        *  Thank you very much for using Q-Chem.  Have a nice day.  *
        *                                                           *
        *************************************************************


0 sent ACK to 0 
now end server 0 ... 
