Process 0 of 1 is on cl008.stfx.acenet.ca - thread support 1
initial socket setup ...start
initial socket setup ...done 
now start server 0 ... 

cmd = /usr/bin/ssh clhead /usr/local/qchem/bin/get_hostid 1947844566 > /scratch/tmp/5956765.1.short.q/qchem30386/lic.dat
                  Welcome to Q-Chem
     A Quantum Leap Into The Future Of Chemistry

 Y. Shao, L. Fusti-Molnar, Y. Jung, J. Kussmann, C. Ochsenfeld,
 S. T. Brown, A. T. B. Gilbert, L. V. Slipchenko,S. V. Levchenko,
 D. P. O'Neill, R. A. DiStasio Jr., R. C. Lochan, T. Wang,
 G. J. O. Beran, N. A. Besley, J. M. Herbert, C. Y. Lin,
 T. Van Voorhis, S. H. Chien, A. Sodt, R. P. Steele, 
 V. A. Rassolov, P. E. Maslen, P. P. Korambath, R. D. Adamson,
 B. Austin, J. Baker, E. F. C. Byrd, H. Dachsel, R. J. Doerksen,
 A. Dreuw, B. D. Dunietz, A. D. Dutoi, T. R. Furlani,
 S. R. Gwaltney, A. Heyden, S. Hirata, C.-P. Hsu, G. Kedziora,
 R. Z. Khaliullin, P. Klunzinger, A. M. Lee, M. S. Lee, W. Liang,
 I. Lotan, N. Nair, B. Peters, E. I. Proynov, P. A. Pieniazek, 
 Y. M. Rhee, J. Ritchie, E. Rosta, C. D. Sherrill, 
 A. C. Simmonett, J. E. Subotnik, H. L. Woodcock III,
 W. Zhang, A. T. Bell, A. K. Chakraborty, D. M. Chipman,
 F. J. Keil, A. Warshel, W. J. Hehre, H. F. Schaefer III,
 J. Kong, A. I. Krylov, P. M. W. Gill, M. Head-Gordon,
 Q-Chem, Version 3.1, Q-Chem, Inc., Pittsburgh, PA (2007).

 Additional authors for Version 3.1: 
 Z. Gan, Y. Zhao, N. E. Schultz, D. Truhlar, E. Epifanovsky and M. Oana.

 Additional authors for Version 3.2: 
 R. Baer, B. R. Brooks, D. Casanova, J.-D. Chai, C.-L. Cheng, 
 C. Cramer, D. Crittenden, A. Ghysels, G. Hawkins, E. G. Hohenstein, 
 C. Kelley, W. Kurlancheek, D. Liotard, E. Livshits, P. Manohar, 
 A. Marenich, D. Neuhauser, R. Olson, M. A. Rohrdanz, K. S. Thanthiriwatte, 
 A. J. W. Thom, V. Vanovschi, C. F. Williams, Q. Wu and Z.-Q. You. 


 Intel X86 Linux Version

 Q-chem begins on Wed May  1 12:30:19 2013  

 Parallel job on  1  processors
Processing $rem in /usr/local/qchem/config/preferences.

theFileMan(): MAXOPENFILES=974 MAX_SUB_FILE_NUM=16
Maximum size of a physical file is 2.0 GB, maximum size of a tmp-file is 32.0 GB


--------------------------------------------------------------
User input:
--------------------------------------------------------------

$molecule
0,1
C
C,1,CDC
C,2,CSC,1,CCC
C,3,CDC,2,CCC,1,180.,0
H,1,CH1,2,CC1,3,180.,0
H,1,CH2,2,CC2,3,0.,0
H,2,CH3,1,CC3,3,180.,0
H,3,CH3,4,CC3,2,180.,0
H,4,CH2,3,CC2,2,0.,0
H,4,CH1,3,CC1,2,180.,0

CDC=1.34054111
CSC=1.45747113
CH1=1.08576026
CH2=1.08793795
CH3=1.09045613
CCC=124.31048212
CC1=121.82705922
CC2=121.53880082
CC3=119.43908311

$end

$comment
neutral
$end

$xc_functional
C PBE   1.00
X wPBE  1.00
$end


$rem
SYMMETRY_DECOMPOSITION	0
LRC_DFT                 true
exchange 		general
BASIS                   g3large
omega			310 
JOBTYPE                 opt
mem_static              760
max_scf_cycles          200
scf_final_print         1
sym_ignore              true
$end


--------------------------------------------------------------
 Writing REM_CC_EA           10
 ----------------------------------------------------
       Standard Nuclear Orientation (Angstroms)
    I     Atom         X            Y            Z
 ----------------------------------------------------
    1      C       0.000000     0.000000     0.000000
    2      C       0.000000     0.000000     1.340541
    3      C       1.203864     0.000000     2.162084
    4      C       1.203864     0.000000     3.502625
    5      H      -0.922509     0.000000    -0.572583
    6      H       0.927234     0.000000    -0.569074
    7      H      -0.949655     0.000000     1.876498
    8      H       2.153519     0.000000     1.626127
    9      H       0.276630     0.000000     4.071699
   10      H       2.126374     0.000000     4.075209
 ----------------------------------------------------
 Nuclear Repulsion Energy =   103.5493734646 hartrees
 There are       15 alpha and       15 beta electrons
 Requested basis set is G3large
 There are 76 shells and 228 basis functions

Total QAlloc Memory Limit   2000 MB
Mega-Array Size       743 MB
MEM_STATIC part       760 MB
 A cutoff of  1.0D-11 yielded   2753 shell pairs
 There are  24850 function pairs ( 30433 Cartesian)
Evaluating contribution to one-electron hamiltonian from nuclear
 Smallest overlap matrix eigenvalue = 1.24E-05
 Multipole matrices computed through 2nd order

  Scale SEOQF with 1.000000e-01/1.000000e-01/1.000000e-01

 Standard Electronic Orientation quadrupole field applied
 Nucleus-field energy     =    -0.0000000153 hartrees
 Guess from superposition of atomic densities
 Warning:  Energy on first SCF cycle will be non-variational
 Long-range K will be added via erf
 Coulomb attenuation parameter = 0.31 bohr**(-1)
 A restricted Kohn-Sham SCF calculation will be
 performed using Pulay DIIS extrapolation
 Exchange:  wPBE + LR-HF      Correlation:  PBE
 Using SG-1 standard quadrature grid
 SCF converges when DIIS error is below 1.0E-08
 Requested basis set is G3large
 There are 76 shells and 228 basis functions
 A cutoff of  1.0D-11 yielded   2753 shell pairs
 There are  24850 function pairs ( 30433 Cartesian)
 ---------------------------------------
  Cycle       Energy         DIIS Error
 ---------------------------------------
    1    -156.8221476493      2.90E-02
    2    -155.8409216338      2.56E-03
    3    -155.8791763437      1.44E-03
    4    -155.8930414884      2.30E-04
    5    -155.8938267345      1.31E-04
    6    -155.8939597467      3.77E-05
    7    -155.8939804008      6.56E-06
    8    -155.8939814911      1.35E-06
    9    -155.8939815458      3.26E-07
   10    -155.8939815749      6.81E-08
   11    -155.8939815803      1.19E-08
   12    -155.8939815805      2.94E-09 Convergence criterion met
 ---------------------------------------
 One-Electron    Energy =  -413.1555656368
 Total Coulomb   Energy =   177.4558044414
 Alpha Exchange  Energy =    -2.3919324230
 Beta  Exchange  Energy =    -2.3919324230
 DFT   Exchange  Energy =   -18.0067551348
 DFT Correlation Energy =    -0.9529738536
 Nuclear Repu.   Energy =   103.5493734493
 Nuclear Attr.   Energy =  -568.2681563893
 Kinetic         Energy =   155.1125907525
 SCF time:  CPU 248.82 s  wall 251.41 s
 Final Alpha MO Eigenvalues
            1           2           3           4           5           6
    1 -10.0647855 -10.0645936 -10.0543883 -10.0543849  -0.9136218  -0.8400902
            7           8           9          10          11          12
    1  -0.7112632  -0.6589009  -0.5698313  -0.5661369  -0.4909350  -0.4838448
           13          14          15          16          17          18
    1  -0.4403813  -0.4369803  -0.3323074   0.0334188   0.0398539   0.0506732
           19          20
    1   0.0526813   0.0702493
 Analysis of SCF Wavefunction
 
 --------------------------------------------------------------
                    Orbital Energies (a.u.)
 --------------------------------------------------------------
 
 Alpha MOs
 -- Occupied --
-10.065 -10.065 -10.054 -10.054  -0.914  -0.840  -0.711  -0.659
 -0.570  -0.566  -0.491  -0.484  -0.440  -0.437  -0.332
 -- Virtual --
  0.033   0.040   0.051   0.053   0.070   0.079   0.098   0.101
  0.118   0.134   0.150   0.155   0.166   0.183   0.186   0.186
  0.191   0.195   0.202   0.204   0.220   0.231   0.239   0.255
  0.291   0.293   0.311   0.325   0.341   0.391   0.442   0.448
  0.483   0.533   0.535   0.594   0.595   0.597   0.601   0.608
  0.610   0.635   0.644   0.653   0.691   0.698   0.701   0.720
  0.745   0.747   0.770   0.780   0.797   0.801   0.837   0.844
  0.844   0.862   0.883   0.939   1.012   1.012   1.049   1.076
  1.096   1.103   1.113   1.134   1.134   1.176   1.286   1.288
  1.298   1.307   1.310   1.348   1.381   1.442   1.468   1.521
  1.523   1.559   1.568   1.576   1.598   1.618   1.625   1.708
  1.728   1.789   1.913   1.968   2.106   2.537   2.571   2.636
  2.651   2.654   2.669   2.735   2.743   2.750   2.776   2.794
  2.800   2.837   2.852   2.901   2.932   2.959   2.964   2.977
  3.046   3.089   3.094   3.108   3.140   3.148   3.199   3.238
  3.253   3.276   3.290   3.307   3.321   3.344   3.345   3.386
  3.422   3.434   3.452   3.464   3.471   3.510   3.585   3.586
  3.614   3.729   3.751   3.758   3.827   3.829   3.848   3.861
  3.954   4.003   4.010   4.125   4.152   4.159   4.169   4.207
  4.260   4.286   4.291   4.363   4.364   4.447   4.509   4.590
  4.601   4.627   4.715   4.740   4.809   4.865   4.974   5.091
  5.224   5.331   5.455   5.591   5.655   5.831   5.832   5.995
  6.043  23.978  24.002  24.554  24.771  27.167  27.229  27.405
 27.433  27.876  28.096  28.136  28.155  28.199  28.332  28.378
 28.721  40.792  40.823  40.897  40.914  40.925  40.953  41.074
 41.081  41.100  41.107  41.124  41.137  41.193  41.194  41.212
 41.218  41.231  41.268  41.304  41.349
 --------------------------------------------------------------
 
          Ground-State Mulliken Net Atomic Charges

     Atom                 Charge (a.u.)
  ----------------------------------------
      1 C                    -0.436589
      2 C                     0.114598
      3 C                     0.114598
      4 C                    -0.436589
      5 H                     0.115167
      6 H                     0.097934
      7 H                     0.108890
      8 H                     0.108890
      9 H                     0.097934
     10 H                     0.115167
  ----------------------------------------
  Sum of atomic charges =     0.000000

 -----------------------------------------------------------------
                    Cartesian Multipole Moments
 -----------------------------------------------------------------
    Charge (ESU x 10^10)
                 0.0000
    Dipole Moment (Debye)
         X       0.0000      Y       0.0000      Z       0.0000
       Tot       0.0000
    Quadrupole Moments (Debye-Ang)
        XX     -23.0072     XY       0.0000     YY     -28.9711
        XZ      -0.1595     YZ       0.0000     ZZ     -22.9243
    Octapole Moments (Debye-Ang^2)
       XXX     -41.5463    XXY       0.0000    XYY     -17.4386
       YYY       0.0000    XXZ     -40.4848    XYZ       0.0000
       YYZ     -50.7374    XZZ     -14.3575    YZZ       0.0000
       ZZZ    -120.4429
    Hexadecapole Moments (Debye-Ang^3)
      XXXX    -156.8057   XXXY       0.0000   XXYY     -38.2255
      XYYY       0.0000   YYYY     -35.4296   XXXZ    -120.5389
      XXYZ       0.0000   XYYZ     -51.1884   YYYZ       0.0000
      XXZZ    -143.5484   XYZZ       0.0000   YYZZ    -157.2239
      XZZZ    -121.3812   YZZZ       0.0000   ZZZZ    -732.7497
 -----------------------------------------------------------------
 Calculating analytic gradient of the SCF energy
 Gradient of AOints
            1           2           3           4           5           6
    1   0.7077748   3.9332848  -3.9332848  -0.7077748   3.0437183  -2.9010691
    2   0.0000006   0.0000006  -0.0000006  -0.0000006  -0.0000000  -0.0000001
    3   8.4612527  -2.8432506   2.8432506  -8.4612527   2.0861746   2.2597090
            7           8           9          10
    1   3.7943910  -3.7943909   2.9010691  -3.0437183
    2  -0.0000000   0.0000000   0.0000001   0.0000000
    3  -1.6060479   1.6060479  -2.2597090  -2.0861746
 Gradient of XC Energy
            1           2           3           4           5           6
    1   0.0125394  -0.0294948   0.0294948  -0.0125394  -0.1661108   0.1631887
    2  -0.0000000  -0.0000000   0.0000000   0.0000000  -0.0000000   0.0000000
    3  -0.1312638   0.1189366  -0.1189366   0.1312638  -0.0988719  -0.0969887
            7           8           9          10
    1  -0.1703251   0.1703251  -0.1631887   0.1661108
    2   0.0000000  -0.0000000  -0.0000000   0.0000000
    3   0.0867007  -0.0867007   0.0969887   0.0988719
 Gradient of SCF Energy
            1           2           3           4           5           6
    1  -0.0007701   0.0027174  -0.0027174   0.0007701   0.0005047  -0.0005572
    2  -0.0000000   0.0000000  -0.0000000   0.0000000   0.0000000  -0.0000000
    3  -0.0110346   0.0110328  -0.0110328   0.0110346  -0.0008370  -0.0007815
            7           8           9          10
    1   0.0000339  -0.0000339   0.0005572  -0.0005047
    2   0.0000000  -0.0000000   0.0000000  -0.0000000
    3   0.0004157  -0.0004157   0.0007815   0.0008370
 Max gradient component =       1.103E-02
 RMS gradient           =       4.111E-03
 Gradient time:  CPU 114.78 s  wall 115.25 s
 Geometry Optimization Parameters
   NAtoms,    NIC,     NZ,  NCons,   NDum,   NFix, NCnnct, MaxDiis
       10      53      10       0       0       0       0       0


** GEOMETRY OPTIMIZATION IN DELOCALIZED INTERNAL COORDINATES **
   Searching for a Minimum

   Optimization Cycle:   1

                       Coordinates (Angstroms)
     ATOM              X           Y           Z
    1  C           0.000000    0.000000    0.000000
    2  C           0.000000    0.000000    1.340541
    3  C           1.203864    0.000000    2.162084
    4  C           1.203864    0.000000    3.502625
    5  H          -0.922509    0.000000   -0.572583
    6  H           0.927234    0.000000   -0.569074
    7  H          -0.949655    0.000000    1.876498
    8  H           2.153519    0.000000    1.626127
    9  H           0.276630    0.000000    4.071699
   10  H           2.126374    0.000000    4.075209
   Point Group: c1    Number of degrees of freedom:  24


   Energy is   -155.893981580


 Attempting to Generate Delocalized Internal Coordinates

 17 Hessian modes will be used to form the next step
  Hessian Eigenvalues:
     0.160000    0.160000    0.160000    0.160000    0.160000    0.160000
     0.220000    0.220000    0.347600    0.347600    0.350520    0.350520
     0.353072    0.353072    0.372827    0.570839    0.570839

 Minimum Search - Taking Simple RFO Step
 Searching for Lamda that Minimizes Along All modes
 Value Taken    Lamda =  -0.00063672
 Step Taken.  Stepsize is  0.037158

                             Maximum     Tolerance    Cnvgd?
         Gradient           0.010313      0.000300      NO
         Displacement       0.024488      0.001200      NO
         Energy change     *********      0.000001      NO


 New Cartesian Coordinates Obtained by Inverse Iteration

 Displacement from previous Coordinates is:  0.080192
 Writing REM_CC_EA           10
 ----------------------------------------------------
       Standard Nuclear Orientation (Angstroms)
    I     Atom         X            Y            Z
 ----------------------------------------------------
    1      C       0.002472     0.000000     0.013751
    2      C      -0.002158     0.000000     1.342569
    3      C       1.206022     0.000000     2.160056
    4      C       1.201392     0.000000     3.488875
    5      H      -0.920433     0.000000    -0.558155
    6      H       0.934047     0.000000    -0.548389
    7      H      -0.952757     0.000000     1.876306
    8      H       2.156621     0.000000     1.626320
    9      H       0.269817     0.000000     4.051014
   10      H       2.124297     0.000000     4.060780
 ----------------------------------------------------
 Nuclear Repulsion Energy =   104.0230034528 hartrees
 There are       15 alpha and       15 beta electrons
 Applying Cartesian multipole field
    Component          Value
    ---------          -----
     (2,0,0)        1.00000E-11
     (0,2,0)        2.00000E-11
     (0,0,2)       -3.00000E-11
 Nucleus-field energy     =    -0.0000000152 hartrees
 Requested basis set is G3large
 There are 76 shells and 228 basis functions
 A cutoff of  1.0D-11 yielded   2755 shell pairs
 There are  24856 function pairs ( 30439 Cartesian)
Evaluating contribution to one-electron hamiltonian from nuclear
 Smallest overlap matrix eigenvalue = 1.18E-05
 Multipole matrices computed through 2nd order
 Guess MOs from SCF MO coefficient file
Reading MOs from coefficient file
Reading MOs from coefficient file
 Long-range K will be added via erf
 Coulomb attenuation parameter = 0.31 bohr**(-1)
 A restricted Kohn-Sham SCF calculation will be
 performed using Pulay DIIS extrapolation
 Exchange:  wPBE + LR-HF      Correlation:  PBE
 Using SG-1 standard quadrature grid
 SCF converges when DIIS error is below 1.0E-08
 Requested basis set is G3large
 There are 76 shells and 228 basis functions
 A cutoff of  1.0D-11 yielded   2755 shell pairs
 There are  24856 function pairs ( 30439 Cartesian)
 ---------------------------------------
  Cycle       Energy         DIIS Error
 ---------------------------------------
    1    -155.8925421483      3.93E-04
    2    -155.8942530935      4.42E-05
    3    -155.8942629368      3.16E-05
    4    -155.8942687386      7.49E-06
    5    -155.8942690639      2.73E-06
    6    -155.8942692383      6.79E-07
    7    -155.8942692775      1.28E-07
    8    -155.8942692848      2.69E-08
    9    -155.8942692912      5.70E-09 Convergence criterion met
 ---------------------------------------
 One-Electron    Energy =  -414.1013323728
 Total Coulomb   Energy =   177.9441791426
 Alpha Exchange  Energy =    -2.3927369401
 Beta  Exchange  Energy =    -2.3927369401
 DFT   Exchange  Energy =   -18.0206879367
 DFT Correlation Energy =    -0.9539576818
 Nuclear Repu.   Energy =   104.0230034376
 Nuclear Attr.   Energy =  -569.2847220468
 Kinetic         Energy =   155.1833896739
 SCF time:  CPU 191.27 s  wall 193.15 s
 Final Alpha MO Eigenvalues
            1           2           3           4           5           6
    1 -10.0624395 -10.0622501 -10.0520247 -10.0520216  -0.9155061  -0.8423287
            7           8           9          10          11          12
    1  -0.7091067  -0.6591272  -0.5699677  -0.5677698  -0.4911041  -0.4829659
           13          14          15          16          17          18
    1  -0.4394581  -0.4384835  -0.3341728   0.0367522   0.0398999   0.0506884
           19          20
    1   0.0527109   0.0703630
 Analysis of SCF Wavefunction
 
 --------------------------------------------------------------
                    Orbital Energies (a.u.)
 --------------------------------------------------------------
 
 Alpha MOs
 -- Occupied --
-10.062 -10.062 -10.052 -10.052  -0.916  -0.842  -0.709  -0.659
 -0.570  -0.568  -0.491  -0.483  -0.439  -0.438  -0.334
 -- Virtual --
  0.037   0.040   0.051   0.053   0.070   0.079   0.098   0.101
  0.118   0.134   0.149   0.155   0.166   0.183   0.186   0.186
  0.191   0.195   0.202   0.205   0.220   0.231   0.239   0.254
  0.292   0.294   0.312   0.326   0.341   0.392   0.448   0.449
  0.485   0.534   0.535   0.593   0.595   0.600   0.600   0.607
  0.610   0.636   0.643   0.654   0.692   0.699   0.702   0.722
  0.747   0.748   0.771   0.783   0.800   0.802   0.837   0.849
  0.849   0.862   0.887   0.941   1.009   1.010   1.050   1.077
  1.098   1.103   1.114   1.134   1.135   1.182   1.291   1.294
  1.302   1.307   1.314   1.353   1.383   1.446   1.472   1.521
  1.522   1.559   1.572   1.576   1.599   1.619   1.627   1.710
  1.731   1.798   1.914   1.972   2.097   2.540   2.578   2.633
  2.655   2.658   2.668   2.734   2.747   2.747   2.774   2.796
  2.803   2.832   2.851   2.895   2.934   2.962   2.965   2.985
  3.043   3.091   3.095   3.105   3.139   3.154   3.201   3.236
  3.254   3.279   3.293   3.303   3.331   3.346   3.346   3.389
  3.426   3.445   3.456   3.464   3.470   3.518   3.587   3.594
  3.618   3.737   3.761   3.764   3.831   3.836   3.860   3.861
  3.962   4.013   4.018   4.119   4.150   4.162   4.168   4.215
  4.262   4.288   4.296   4.372   4.375   4.459   4.526   4.598
  4.607   4.642   4.748   4.760   4.835   4.885   4.979   5.106
  5.234   5.337   5.475   5.584   5.652   5.836   5.845   6.011
  6.067  23.976  23.996  24.601  24.815  27.171  27.232  27.412
 27.438  27.882  28.103  28.149  28.183  28.234  28.336  28.368
 28.721  40.791  40.821  40.899  40.917  40.928  40.956  41.075
 41.082  41.101  41.109  41.127  41.139  41.204  41.205  41.216
 41.234  41.235  41.283  41.313  41.356
 --------------------------------------------------------------
 
          Ground-State Mulliken Net Atomic Charges

     Atom                 Charge (a.u.)
  ----------------------------------------
      1 C                    -0.439342
      2 C                     0.119725
      3 C                     0.119725
      4 C                    -0.439342
      5 H                     0.114261
      6 H                     0.096519
      7 H                     0.108837
      8 H                     0.108837
      9 H                     0.096519
     10 H                     0.114261
  ----------------------------------------
  Sum of atomic charges =     0.000000

 -----------------------------------------------------------------
                    Cartesian Multipole Moments
 -----------------------------------------------------------------
    Charge (ESU x 10^10)
                 0.0000
    Dipole Moment (Debye)
         X       0.0000      Y       0.0000      Z       0.0000
       Tot       0.0000
    Quadrupole Moments (Debye-Ang)
        XX     -22.9475     XY       0.0000     YY     -28.8874
        XZ      -0.1805     YZ       0.0000     ZZ     -23.0587
    Octapole Moments (Debye-Ang^2)
       XXX     -41.4386    XXY       0.0000    XYY     -17.3882
       YYY       0.0000    XXZ     -40.4056    XYZ       0.0000
       YYZ     -50.5909    XZZ     -14.5119    YZZ       0.0000
       ZZZ    -121.1492
    Hexadecapole Moments (Debye-Ang^3)
      XXXX    -156.4621   XXXY       0.0000   XXYY     -38.1136
      XYYY       0.0000   YYYY     -35.1619   XXXZ    -119.8020
      XXYZ       0.0000   XYYZ     -50.8276   YYYZ       0.0000
      XXZZ    -142.9181   XYZZ       0.0000   YYZZ    -155.9355
      XZZZ    -121.7677   YZZZ       0.0000   ZZZZ    -732.4040
 -----------------------------------------------------------------
 Calculating analytic gradient of the SCF energy
 Gradient of AOints
            1           2           3           4           5           6
    1   0.6753548   4.0074532  -4.0074533  -0.6753548   3.0631801  -2.9344460
    2   0.0000000   0.0000000  -0.0000000   0.0000000  -0.0000000  -0.0000000
    3   8.5677079  -3.0182109   3.0182110  -8.5677079   2.0686143   2.2335631
            7           8           9          10
    1   3.8318440  -3.8318439   2.9344459  -3.0631801
    2   0.0000000  -0.0000000   0.0000000  -0.0000000
    3  -1.5834019   1.5834019  -2.2335631  -2.0686144
 Gradient of XC Energy
            1           2           3           4           5           6
    1   0.0138469  -0.0310269   0.0310269  -0.0138469  -0.1665844   0.1642944
    2  -0.0000000  -0.0000000   0.0000000  -0.0000000   0.0000000  -0.0000000
    3  -0.1354701   0.1259146  -0.1259146   0.1354701  -0.0979028  -0.0951652
            7           8           9          10
    1  -0.1713347   0.1713347  -0.1642944   0.1665844
    2   0.0000000   0.0000000  -0.0000000   0.0000000
    3   0.0856029  -0.0856029   0.0951652   0.0979028
 Gradient of SCF Energy
            1           2           3           4           5           6
    1   0.0000592   0.0010455  -0.0010455  -0.0000592   0.0000458  -0.0000271
    2   0.0000000  -0.0000000  -0.0000000   0.0000000  -0.0000000  -0.0000000
    3   0.0012664   0.0002800  -0.0002800  -0.0012664   0.0001243  -0.0000238
            7           8           9          10
    1  -0.0002189   0.0002189   0.0000271  -0.0000458
    2   0.0000000  -0.0000000   0.0000000  -0.0000000
    3  -0.0003541   0.0003541   0.0000238  -0.0001243
 Max gradient component =       1.266E-03
 RMS gradient           =       4.450E-04
 Gradient time:  CPU 115.59 s  wall 116.15 s
 Geometry Optimization Parameters
   NAtoms,    NIC,     NZ,  NCons,   NDum,   NFix, NCnnct, MaxDiis
       10      53      10       0       0       0       0       0

 Cartesian Hessian Update
 Hessian Updated using BFGS Update


** GEOMETRY OPTIMIZATION IN DELOCALIZED INTERNAL COORDINATES **
   Searching for a Minimum

   Optimization Cycle:   2

                       Coordinates (Angstroms)
     ATOM              X           Y           Z
    1  C           0.002472    0.000000    0.013751
    2  C          -0.002158    0.000000    1.342569
    3  C           1.206022    0.000000    2.160056
    4  C           1.201392    0.000000    3.488875
    5  H          -0.920433    0.000000   -0.558155
    6  H           0.934047    0.000000   -0.548389
    7  H          -0.952757    0.000000    1.876306
    8  H           2.156621    0.000000    1.626320
    9  H           0.269817    0.000000    4.051014
   10  H           2.124297    0.000000    4.060780
   Point Group: c1    Number of degrees of freedom:  24


   Energy is   -155.894269291

 Hessian Updated using BFGS Update

  8 Hessian modes will be used to form the next step
  Hessian Eigenvalues:
     0.157634    0.163249    0.222123    0.347550    0.350509    0.353039
     0.365749    0.635212

 Minimum Search - Taking Simple RFO Step
 Searching for Lamda that Minimizes Along All modes
 Value Taken    Lamda =  -0.00001547
 Step Taken.  Stepsize is  0.006845

                             Maximum     Tolerance    Cnvgd?
         Gradient           0.001670      0.000300      NO
         Displacement       0.004385      0.001200      NO
         Energy change     -0.000288      0.000001      NO


 New Cartesian Coordinates Obtained by Inverse Iteration

 Displacement from previous Coordinates is:  0.010722
 Writing REM_CC_EA           10
 ----------------------------------------------------
       Standard Nuclear Orientation (Angstroms)
    I     Atom         X            Y            Z
 ----------------------------------------------------
    1      C       0.001766     0.000000     0.011798
    2      C      -0.002649     0.000000     1.341597
    3      C       1.206513     0.000000     2.161028
    4      C       1.202098     0.000000     3.490828
    5      H      -0.920930     0.000000    -0.560709
    6      H       0.933641     0.000000    -0.549882
    7      H      -0.952103     0.000000     1.877309
    8      H       2.155967     0.000000     1.625317
    9      H       0.270223     0.000000     4.052508
   10      H       2.124794     0.000000     4.063334
 ----------------------------------------------------
 Nuclear Repulsion Energy =   103.9446783887 hartrees
 There are       15 alpha and       15 beta electrons
 Applying Cartesian multipole field
    Component          Value
    ---------          -----
     (2,0,0)        1.00000E-11
     (0,2,0)        2.00000E-11
     (0,0,2)       -3.00000E-11
 Nucleus-field energy     =    -0.0000000152 hartrees
 Requested basis set is G3large
 There are 76 shells and 228 basis functions
 A cutoff of  1.0D-11 yielded   2755 shell pairs
 There are  24856 function pairs ( 30439 Cartesian)
Evaluating contribution to one-electron hamiltonian from nuclear
 Smallest overlap matrix eigenvalue = 1.19E-05
 Multipole matrices computed through 2nd order
 Guess MOs from SCF MO coefficient file
Reading MOs from coefficient file
Reading MOs from coefficient file
 Long-range K will be added via erf
 Coulomb attenuation parameter = 0.31 bohr**(-1)
 A restricted Kohn-Sham SCF calculation will be
 performed using Pulay DIIS extrapolation
 Exchange:  wPBE + LR-HF      Correlation:  PBE
 Using SG-1 standard quadrature grid
 SCF converges when DIIS error is below 1.0E-08
 Requested basis set is G3large
 There are 76 shells and 228 basis functions
 A cutoff of  1.0D-11 yielded   2755 shell pairs
 There are  24856 function pairs ( 30439 Cartesian)
 ---------------------------------------
  Cycle       Energy         DIIS Error
 ---------------------------------------
    1    -155.8945236833      4.60E-05
    2    -155.8942774944      7.44E-06
    3    -155.8942775623      7.68E-06
    4    -155.8942779143      6.70E-07
    5    -155.8942779365      3.05E-07
    6    -155.8942780242      6.63E-08
    7    -155.8942780071      1.25E-08
    8    -155.8942780090      2.79E-09 Convergence criterion met
 ---------------------------------------
 One-Electron    Energy =  -413.9456204526
 Total Coulomb   Energy =   177.8643377466
 Alpha Exchange  Energy =    -2.3926443952
 Beta  Exchange  Energy =    -2.3926443952
 DFT   Exchange  Energy =   -18.0185854212
 DFT Correlation Energy =    -0.9537994649
 Nuclear Repu.   Energy =   103.9446783735
 Nuclear Attr.   Energy =  -569.1185548257
 Kinetic         Energy =   155.1729343731
 SCF time:  CPU 163.11 s  wall 165.14 s
 Final Alpha MO Eigenvalues
            1           2           3           4           5           6
    1 -10.0627975 -10.0626113 -10.0523007 -10.0522976  -0.9150928  -0.8421615
            7           8           9          10          11          12
    1  -0.7091705  -0.6590790  -0.5699287  -0.5674651  -0.4913402  -0.4831289
           13          14          15          16          17          18
    1  -0.4393053  -0.4381357  -0.3341704   0.0365604   0.0398915   0.0506980
           19          20
    1   0.0527097   0.0703455
 Analysis of SCF Wavefunction
 
 --------------------------------------------------------------
                    Orbital Energies (a.u.)
 --------------------------------------------------------------
 
 Alpha MOs
 -- Occupied --
-10.063 -10.063 -10.052 -10.052  -0.915  -0.842  -0.709  -0.659
 -0.570  -0.567  -0.491  -0.483  -0.439  -0.438  -0.334
 -- Virtual --
  0.037   0.040   0.051   0.053   0.070   0.079   0.098   0.101
  0.118   0.134   0.149   0.155   0.166   0.183   0.186   0.186
  0.191   0.195   0.202   0.205   0.220   0.231   0.239   0.254
  0.292   0.294   0.312   0.326   0.341   0.392   0.447   0.449
  0.484   0.534   0.535   0.593   0.595   0.600   0.600   0.607
  0.610   0.636   0.643   0.654   0.692   0.699   0.702   0.722
  0.747   0.748   0.771   0.782   0.799   0.802   0.837   0.848
  0.849   0.862   0.886   0.941   1.009   1.010   1.050   1.077
  1.098   1.103   1.113   1.134   1.134   1.182   1.290   1.293
  1.302   1.307   1.314   1.352   1.383   1.445   1.471   1.521
  1.523   1.559   1.571   1.576   1.598   1.619   1.627   1.710
  1.731   1.797   1.913   1.971   2.098   2.540   2.577   2.633
  2.655   2.657   2.668   2.734   2.747   2.749   2.774   2.795
  2.803   2.833   2.851   2.895   2.934   2.961   2.965   2.983
  3.042   3.091   3.095   3.105   3.140   3.153   3.201   3.236
  3.254   3.279   3.292   3.305   3.328   3.345   3.346   3.389
  3.426   3.443   3.456   3.465   3.469   3.517   3.587   3.593
  3.618   3.736   3.760   3.763   3.829   3.834   3.858   3.859
  3.960   4.011   4.017   4.118   4.152   4.162   4.168   4.214
  4.261   4.287   4.294   4.370   4.373   4.458   4.522   4.597
  4.605   4.641   4.745   4.759   4.831   4.881   4.977   5.105
  5.233   5.337   5.471   5.583   5.652   5.836   5.841   6.010
  6.062  23.973  23.997  24.597  24.808  27.171  27.232  27.411
 27.437  27.876  28.102  28.148  28.181  28.230  28.335  28.369
 28.721  40.791  40.821  40.899  40.917  40.928  40.955  41.075
 41.082  41.101  41.109  41.127  41.139  41.203  41.204  41.216
 41.233  41.235  41.282  41.312  41.354
 --------------------------------------------------------------
 
          Ground-State Mulliken Net Atomic Charges

     Atom                 Charge (a.u.)
  ----------------------------------------
      1 C                    -0.439216
      2 C                     0.119501
      3 C                     0.119501
      4 C                    -0.439216
      5 H                     0.114391
      6 H                     0.096634
      7 H                     0.108690
      8 H                     0.108690
      9 H                     0.096634
     10 H                     0.114391
  ----------------------------------------
  Sum of atomic charges =     0.000000

 -----------------------------------------------------------------
                    Cartesian Multipole Moments
 -----------------------------------------------------------------
    Charge (ESU x 10^10)
                 0.0000
    Dipole Moment (Debye)
         X       0.0000      Y       0.0000      Z       0.0000
       Tot       0.0000
    Quadrupole Moments (Debye-Ang)
        XX     -22.9563     XY       0.0000     YY     -28.8982
        XZ      -0.1772     YZ       0.0000     ZZ     -23.0413
    Octapole Moments (Debye-Ang^2)
       XXX     -41.4544    XXY       0.0000    XYY     -17.3947
       YYY       0.0000    XXZ     -40.4170    XYZ       0.0000
       YYZ     -50.6098    XZZ     -14.4901    YZZ       0.0000
       ZZZ    -121.0577
    Hexadecapole Moments (Debye-Ang^3)
      XXXX    -156.6152   XXXY       0.0000   XXYY     -38.1431
      XYYY       0.0000   YYYY     -35.1921   XXXZ    -119.9341
      XXYZ       0.0000   XYYZ     -50.8885   YYYZ       0.0000
      XXZZ    -142.9878   XYZZ       0.0000   YYZZ    -156.1047
      XZZZ    -121.7131   YZZZ       0.0000   ZZZZ    -732.5494
 -----------------------------------------------------------------
 Calculating analytic gradient of the SCF energy
 Gradient of AOints
            1           2           3           4           5           6
    1   0.6816851   3.9930603  -3.9930602  -0.6816852   3.0609612  -2.9344991
    2  -0.0000000   0.0000000   0.0000001  -0.0000001   0.0000000   0.0000000
    3   8.5648993  -2.9971754   2.9971757  -8.5648995   2.0718124   2.2301807
            7           8           9          10
    1   3.8218390  -3.8218391   2.9344992  -3.0609612
    2  -0.0000000   0.0000000   0.0000000   0.0000000
    3  -1.5947950   1.5947950  -2.2301808  -2.0718124
 Gradient of XC Energy
            1           2           3           4           5           6
    1   0.0135017  -0.0306656   0.0306656  -0.0135017  -0.1665057   0.1643508
    2   0.0000000  -0.0000000  -0.0000000   0.0000000  -0.0000000  -0.0000000
    3  -0.1354809   0.1250022  -0.1250022   0.1354809  -0.0980803  -0.0950599
            7           8           9          10
    1  -0.1709904   0.1709904  -0.1643508   0.1665057
    2   0.0000000   0.0000000  -0.0000000  -0.0000000
    3   0.0861393  -0.0861393   0.0950599   0.0980803
 Gradient of SCF Energy
            1           2           3           4           5           6
    1  -0.0000405   0.0002847  -0.0002847   0.0000405  -0.0000089  -0.0000130
    2  -0.0000000  -0.0000000  -0.0000000  -0.0000000   0.0000000   0.0000000
    3   0.0000308   0.0002744  -0.0002744  -0.0000308  -0.0000165  -0.0000275
            7           8           9          10
    1  -0.0000578   0.0000578   0.0000130   0.0000089
    2   0.0000000   0.0000000   0.0000000   0.0000000
    3  -0.0001229   0.0001229   0.0000275   0.0000165
 Max gradient component =       2.847E-04
 RMS gradient           =       1.091E-04
 Gradient time:  CPU 115.40 s  wall 116.11 s
 Geometry Optimization Parameters
   NAtoms,    NIC,     NZ,  NCons,   NDum,   NFix, NCnnct, MaxDiis
       10      53      10       0       0       0       0       0

 Cartesian Hessian Update
 Hessian Updated using BFGS Update


** GEOMETRY OPTIMIZATION IN DELOCALIZED INTERNAL COORDINATES **
   Searching for a Minimum

   Optimization Cycle:   3

                       Coordinates (Angstroms)
     ATOM              X           Y           Z
    1  C           0.001766    0.000000    0.011798
    2  C          -0.002649    0.000000    1.341597
    3  C           1.206513    0.000000    2.161028
    4  C           1.202098    0.000000    3.490828
    5  H          -0.920930    0.000000   -0.560709
    6  H           0.933641    0.000000   -0.549882
    7  H          -0.952103    0.000000    1.877309
    8  H           2.155967    0.000000    1.625317
    9  H           0.270223    0.000000    4.052508
   10  H           2.124794    0.000000    4.063334
   Point Group: c1    Number of degrees of freedom:  24


   Energy is   -155.894278009

 Hessian Updated using BFGS Update

  9 Hessian modes will be used to form the next step
  Hessian Eigenvalues:
     0.134876    0.159917    0.160727    0.227877    0.347556    0.348929
     0.350545    0.353871    0.673879

 Minimum Search - Taking Simple RFO Step
 Searching for Lamda that Minimizes Along All modes
 Value Taken    Lamda =   0.00000000
 Step Taken.  Stepsize is  0.002420

                             Maximum     Tolerance    Cnvgd?
         Gradient           0.000211      0.000300     YES
         Displacement       0.001334      0.001200      NO
         Energy change     -0.000009      0.000001      NO


 New Cartesian Coordinates Obtained by Inverse Iteration

 Displacement from previous Coordinates is:  0.003270
 Writing REM_CC_EA           10
 ----------------------------------------------------
       Standard Nuclear Orientation (Angstroms)
    I     Atom         X            Y            Z
 ----------------------------------------------------
    1      C       0.001764     0.000000     0.011781
    2      C      -0.002883     0.000000     1.341565
    3      C       1.206747     0.000000     2.161060
    4      C       1.202100     0.000000     3.490845
    5      H      -0.920747     0.000000    -0.560978
    6      H       0.933920     0.000000    -0.549432
    7      H      -0.951783     0.000000     1.878284
    8      H       2.155647     0.000000     1.624341
    9      H       0.269944     0.000000     4.052057
   10      H       2.124611     0.000000     4.063603
 ----------------------------------------------------
 Nuclear Repulsion Energy =   103.9408443797 hartrees
 There are       15 alpha and       15 beta electrons
 Applying Cartesian multipole field
    Component          Value
    ---------          -----
     (2,0,0)        1.00000E-11
     (0,2,0)        2.00000E-11
     (0,0,2)       -3.00000E-11
 Nucleus-field energy     =    -0.0000000152 hartrees
 Requested basis set is G3large
 There are 76 shells and 228 basis functions
 A cutoff of  1.0D-11 yielded   2755 shell pairs
 There are  24856 function pairs ( 30439 Cartesian)
Evaluating contribution to one-electron hamiltonian from nuclear
 Smallest overlap matrix eigenvalue = 1.19E-05
 Multipole matrices computed through 2nd order
 Guess MOs from SCF MO coefficient file
Reading MOs from coefficient file
Reading MOs from coefficient file
 Long-range K will be added via erf
 Coulomb attenuation parameter = 0.31 bohr**(-1)
 A restricted Kohn-Sham SCF calculation will be
 performed using Pulay DIIS extrapolation
 Exchange:  wPBE + LR-HF      Correlation:  PBE
 Using SG-1 standard quadrature grid
 SCF converges when DIIS error is below 1.0E-08
 Requested basis set is G3large
 There are 76 shells and 228 basis functions
 A cutoff of  1.0D-11 yielded   2755 shell pairs
 There are  24856 function pairs ( 30439 Cartesian)
 ---------------------------------------
  Cycle       Energy         DIIS Error
 ---------------------------------------
    1    -155.8943547632      1.26E-05
    2    -155.8942783282      1.80E-06
    3    -155.8942783598      1.84E-06
    4    -155.8942781922      1.68E-07
    5    -155.8942782783      5.46E-08
    6    -155.8942782877      1.59E-08
    7    -155.8942782812      4.09E-09 Convergence criterion met
 ---------------------------------------
 One-Electron    Energy =  -413.9381181968
 Total Coulomb   Energy =   177.8605095270
 Alpha Exchange  Energy =    -2.3926412451
 Beta  Exchange  Energy =    -2.3926412451
 DFT   Exchange  Energy =   -18.0184416558
 DFT Correlation Energy =    -0.9537898299
 Nuclear Repu.   Energy =   103.9408443645
 Nuclear Attr.   Energy =  -569.1103902645
 Kinetic         Energy =   155.1722720677
 SCF time:  CPU 141.18 s  wall 143.42 s
 Final Alpha MO Eigenvalues
            1           2           3           4           5           6
    1 -10.0628203 -10.0626348 -10.0523061 -10.0523030  -0.9150566  -0.8421512
            7           8           9          10          11          12
    1  -0.7091416  -0.6590890  -0.5699382  -0.5673943  -0.4914069  -0.4831685
           13          14          15          16          17          18
    1  -0.4392518  -0.4380954  -0.3341954   0.0365944   0.0398897   0.0507024
           19          20
    1   0.0527085   0.0703463
 Analysis of SCF Wavefunction
 
 --------------------------------------------------------------
                    Orbital Energies (a.u.)
 --------------------------------------------------------------
 
 Alpha MOs
 -- Occupied --
-10.063 -10.063 -10.052 -10.052  -0.915  -0.842  -0.709  -0.659
 -0.570  -0.567  -0.491  -0.483  -0.439  -0.438  -0.334
 -- Virtual --
  0.037   0.040   0.051   0.053   0.070   0.079   0.098   0.101
  0.118   0.134   0.149   0.155   0.166   0.183   0.186   0.186
  0.191   0.195   0.202   0.205   0.220   0.231   0.239   0.254
  0.292   0.294   0.312   0.326   0.341   0.392   0.447   0.449
  0.484   0.534   0.535   0.593   0.595   0.600   0.600   0.607
  0.610   0.636   0.643   0.654   0.692   0.699   0.702   0.722
  0.747   0.748   0.771   0.782   0.799   0.802   0.837   0.848
  0.849   0.862   0.886   0.941   1.009   1.010   1.050   1.077
  1.098   1.103   1.113   1.134   1.134   1.182   1.289   1.293
  1.302   1.307   1.314   1.352   1.383   1.446   1.471   1.521
  1.523   1.559   1.571   1.576   1.598   1.619   1.627   1.710
  1.731   1.797   1.913   1.971   2.097   2.540   2.577   2.633
  2.655   2.657   2.668   2.734   2.747   2.749   2.774   2.795
  2.803   2.833   2.851   2.895   2.933   2.961   2.965   2.983
  3.042   3.091   3.095   3.105   3.140   3.153   3.202   3.236
  3.253   3.278   3.292   3.305   3.328   3.345   3.346   3.389
  3.426   3.443   3.456   3.465   3.469   3.517   3.587   3.593
  3.618   3.736   3.759   3.764   3.829   3.834   3.858   3.859
  3.960   4.011   4.017   4.118   4.152   4.162   4.168   4.213
  4.261   4.287   4.294   4.370   4.373   4.459   4.522   4.596
  4.605   4.641   4.745   4.759   4.831   4.881   4.977   5.105
  5.233   5.337   5.470   5.583   5.652   5.837   5.840   6.010
  6.061  23.973  23.996  24.597  24.808  27.170  27.232  27.411
 27.437  27.875  28.102  28.148  28.181  28.231  28.335  28.369
 28.721  40.791  40.821  40.899  40.917  40.928  40.955  41.075
 41.082  41.101  41.109  41.127  41.139  41.203  41.204  41.216
 41.233  41.235  41.282  41.312  41.353
 --------------------------------------------------------------
 
          Ground-State Mulliken Net Atomic Charges

     Atom                 Charge (a.u.)
  ----------------------------------------
      1 C                    -0.439327
      2 C                     0.119703
      3 C                     0.119703
      4 C                    -0.439327
      5 H                     0.114420
      6 H                     0.096618
      7 H                     0.108586
      8 H                     0.108586
      9 H                     0.096618
     10 H                     0.114420
  ----------------------------------------
  Sum of atomic charges =     0.000000

 -----------------------------------------------------------------
                    Cartesian Multipole Moments
 -----------------------------------------------------------------
    Charge (ESU x 10^10)
                 0.0000
    Dipole Moment (Debye)
         X       0.0000      Y       0.0000      Z       0.0000
       Tot       0.0000
    Quadrupole Moments (Debye-Ang)
        XX     -22.9585     XY       0.0000     YY     -28.8988
        XZ      -0.1793     YZ       0.0000     ZZ     -23.0401
    Octapole Moments (Debye-Ang^2)
       XXX     -41.4584    XXY       0.0000    XYY     -17.3951
       YYY       0.0000    XXZ     -40.4234    XYZ       0.0000
       YYZ     -50.6108    XZZ     -14.4967    YZZ       0.0000
       ZZZ    -121.0514
    Hexadecapole Moments (Debye-Ang^3)
      XXXX    -156.6449   XXXY       0.0000   XXYY     -38.1446
      XYYY       0.0000   YYYY     -35.1932   XXXZ    -119.9457
      XXYZ       0.0000   XYYZ     -50.8874   YYYZ       0.0000
      XXZZ    -142.9944   XYZZ       0.0000   YYZZ    -156.1062
      XZZZ    -121.7115   YZZZ       0.0000   ZZZZ    -732.5283
 -----------------------------------------------------------------
 Calculating analytic gradient of the SCF energy
 Gradient of AOints
            1           2           3           4           5           6
    1   0.6808416   3.9955191  -3.9955191  -0.6808415   3.0605128  -2.9357649
    2  -0.0000000   0.0000000   0.0000000  -0.0000000  -0.0000000   0.0000000
    3   8.5672463  -2.9961994   2.9961993  -8.5672462   2.0726139   2.2284755
            7           8           9          10
    1   3.8193503  -3.8193503   2.9357649  -3.0605128
    2   0.0000000  -0.0000000   0.0000000  -0.0000000
    3  -1.6004545   1.6004544  -2.2284756  -2.0726139
 Gradient of XC Energy
            1           2           3           4           5           6
    1   0.0135018  -0.0307775   0.0307775  -0.0135018  -0.1664816   0.1644105
    2   0.0000000  -0.0000000  -0.0000000   0.0000000   0.0000000  -0.0000000
    3  -0.1355801   0.1248968  -0.1248968   0.1355801  -0.0981263  -0.0949668
            7           8           9          10
    1  -0.1708682   0.1708682  -0.1644105   0.1664816
    2  -0.0000000   0.0000000  -0.0000000   0.0000000
    3   0.0863918  -0.0863918   0.0949668   0.0981263
 Gradient of SCF Energy
            1           2           3           4           5           6
    1  -0.0000062   0.0000436  -0.0000436   0.0000062   0.0000001   0.0000012
    2   0.0000000  -0.0000000   0.0000000   0.0000000  -0.0000000  -0.0000000
    3  -0.0000257   0.0000376  -0.0000376   0.0000257  -0.0000025  -0.0000111
            7           8           9          10
    1  -0.0000100   0.0000100  -0.0000012  -0.0000001
    2  -0.0000000  -0.0000000  -0.0000000   0.0000000
    3  -0.0000142   0.0000142   0.0000111   0.0000025
 Max gradient component =       4.363E-05
 RMS gradient           =       1.722E-05
 Gradient time:  CPU 115.36 s  wall 115.66 s
 Geometry Optimization Parameters
   NAtoms,    NIC,     NZ,  NCons,   NDum,   NFix, NCnnct, MaxDiis
       10      53      10       0       0       0       0       0

 Cartesian Hessian Update
 Hessian Updated using BFGS Update


** GEOMETRY OPTIMIZATION IN DELOCALIZED INTERNAL COORDINATES **
   Searching for a Minimum

   Optimization Cycle:   4

                       Coordinates (Angstroms)
     ATOM              X           Y           Z
    1  C           0.001764    0.000000    0.011781
    2  C          -0.002883    0.000000    1.341565
    3  C           1.206747    0.000000    2.161060
    4  C           1.202100    0.000000    3.490845
    5  H          -0.920747    0.000000   -0.560978
    6  H           0.933920    0.000000   -0.549432
    7  H          -0.951783    0.000000    1.878284
    8  H           2.155647    0.000000    1.624341
    9  H           0.269944    0.000000    4.052057
   10  H           2.124611    0.000000    4.063603
   Point Group: c1    Number of degrees of freedom:  24


   Energy is   -155.894278281

 Hessian Updated using BFGS Update

 10 Hessian modes will be used to form the next step
  Hessian Eigenvalues:
     0.115991    0.160657    0.161929    0.222009    0.347588    0.347600
     0.349675    0.351603    0.354017    0.678950

 Minimum Search - Taking Simple RFO Step
 Searching for Lamda that Minimizes Along All modes
 Value Taken    Lamda =   0.00000000
 Step Taken.  Stepsize is  0.000494

                             Maximum     Tolerance    Cnvgd?
         Gradient           0.000070      0.000300     YES
         Displacement       0.000320      0.001200     YES
         Energy change      0.000000      0.000001     YES


                       Distance Matrix (Angstroms)
             C (  1)   C (  2)   C (  3)   C (  4)   H (  5)   H (  6)
   C (  2)  1.329793
   C (  3)  2.464018  1.461087
   C (  4)  3.680312  2.464018  1.329793
   H (  5)  1.085854  2.112379  3.454811  4.574248
   H (  6)  1.088060  2.110324  2.724188  4.049167  1.854703
   H (  7)  2.095969  1.090174  2.176974  2.690644  2.439460  3.074034
   H (  8)  2.690644  2.176974  1.090174  2.095969  3.773569  2.493573
   H (  9)  4.049167  2.724188  2.110324  1.088060  4.764225  4.649146
   H ( 10)  4.574248  3.454811  2.112379  1.085854  5.537234  4.764225
             H (  7)   H (  8)   H (  9)
   H (  8)  3.117789
   H (  9)  2.493573  3.074034
   H ( 10)  3.773569  2.439460  1.854703
 


 ******************************
 **  OPTIMIZATION CONVERGED  **
 ******************************
 Analysis of SCF Wavefunction
 
 --------------------------------------------------------------
                    Orbital Energies (a.u.)
 --------------------------------------------------------------
 
 Alpha MOs
 -- Occupied --
-10.063 -10.063 -10.052 -10.052  -0.915  -0.842  -0.709  -0.659
 -0.570  -0.567  -0.491  -0.483  -0.439  -0.438  -0.334
 -- Virtual --
  0.037   0.040   0.051   0.053   0.070   0.079   0.098   0.101
  0.118   0.134   0.149   0.155   0.166   0.183   0.186   0.186
  0.191   0.195   0.202   0.205   0.220   0.231   0.239   0.254
  0.292   0.294   0.312   0.326   0.341   0.392   0.447   0.449
  0.484   0.534   0.535   0.593   0.595   0.600   0.600   0.607
  0.610   0.636   0.643   0.654   0.692   0.699   0.702   0.722
  0.747   0.748   0.771   0.782   0.799   0.802   0.837   0.848
  0.849   0.862   0.886   0.941   1.009   1.010   1.050   1.077
  1.098   1.103   1.113   1.134   1.134   1.182   1.289   1.293
  1.302   1.307   1.314   1.352   1.383   1.446   1.471   1.521
  1.523   1.559   1.571   1.576   1.598   1.619   1.627   1.710
  1.731   1.797   1.913   1.971   2.097   2.540   2.577   2.633
  2.655   2.657   2.668   2.734   2.747   2.749   2.774   2.795
  2.803   2.833   2.851   2.895   2.933   2.961   2.965   2.983
  3.042   3.091   3.095   3.105   3.140   3.153   3.202   3.236
  3.253   3.278   3.292   3.305   3.328   3.345   3.346   3.389
  3.426   3.443   3.456   3.465   3.469   3.517   3.587   3.593
  3.618   3.736   3.759   3.764   3.829   3.834   3.858   3.859
  3.960   4.011   4.017   4.118   4.152   4.162   4.168   4.213
  4.261   4.287   4.294   4.370   4.373   4.459   4.522   4.596
  4.605   4.641   4.745   4.759   4.831   4.881   4.977   5.105
  5.233   5.337   5.470   5.583   5.652   5.837   5.840   6.010
  6.061  23.973  23.996  24.597  24.808  27.170  27.232  27.411
 27.437  27.875  28.102  28.148  28.181  28.231  28.335  28.369
 28.721  40.791  40.821  40.899  40.917  40.928  40.955  41.075
 41.082  41.101  41.109  41.127  41.139  41.203  41.204  41.216
 41.233  41.235  41.282  41.312  41.353
 --------------------------------------------------------------
 
          Ground-State Mulliken Net Atomic Charges

     Atom                 Charge (a.u.)
  ----------------------------------------
      1 C                    -0.439327
      2 C                     0.119703
      3 C                     0.119703
      4 C                    -0.439327
      5 H                     0.114420
      6 H                     0.096618
      7 H                     0.108586
      8 H                     0.108586
      9 H                     0.096618
     10 H                     0.114420
  ----------------------------------------
  Sum of atomic charges =     0.000000

 -----------------------------------------------------------------
                    Cartesian Multipole Moments
 -----------------------------------------------------------------
    Charge (ESU x 10^10)
                 0.0000
    Dipole Moment (Debye)
         X       0.0000      Y       0.0000      Z       0.0000
       Tot       0.0000
    Quadrupole Moments (Debye-Ang)
        XX     -22.9585     XY       0.0000     YY     -28.8988
        XZ      -0.1793     YZ       0.0000     ZZ     -23.0401
    Octapole Moments (Debye-Ang^2)
       XXX     -41.4584    XXY       0.0000    XYY     -17.3951
       YYY       0.0000    XXZ     -40.4234    XYZ       0.0000
       YYZ     -50.6108    XZZ     -14.4967    YZZ       0.0000
       ZZZ    -121.0514
    Hexadecapole Moments (Debye-Ang^3)
      XXXX    -156.6449   XXXY       0.0000   XXYY     -38.1446
      XYYY       0.0000   YYYY     -35.1932   XXXZ    -119.9457
      XXYZ       0.0000   XYYZ     -50.8874   YYYZ       0.0000
      XXZZ    -142.9944   XYZZ       0.0000   YYZZ    -156.1062
      XZZZ    -121.7115   YZZZ       0.0000   ZZZZ    -732.5283
 -----------------------------------------------------------------
 Total job time:  1217.58s(wall), 1206.70s(cpu) 
 Wed May  1 12:50:37 2013

        *************************************************************
        *                                                           *
        *  Thank you very much for using Q-Chem.  Have a nice day.  *
        *                                                           *
        *************************************************************


0 sent ACK to 0 
now end server 0 ... 
 
**********************************************************************
Job 2 of 2 
**********************************************************************
 
Process 0 of 1 is on cl008.stfx.acenet.ca - thread support 1
initial socket setup ...start
initial socket setup ...done 
now start server 0 ... 

cmd = /usr/bin/ssh clhead /usr/local/qchem/bin/get_hostid 1353498859 > /scratch/tmp/5956765.1.short.q/qchem30386/lic.dat
                  Welcome to Q-Chem
     A Quantum Leap Into The Future Of Chemistry

 Y. Shao, L. Fusti-Molnar, Y. Jung, J. Kussmann, C. Ochsenfeld,
 S. T. Brown, A. T. B. Gilbert, L. V. Slipchenko,S. V. Levchenko,
 D. P. O'Neill, R. A. DiStasio Jr., R. C. Lochan, T. Wang,
 G. J. O. Beran, N. A. Besley, J. M. Herbert, C. Y. Lin,
 T. Van Voorhis, S. H. Chien, A. Sodt, R. P. Steele, 
 V. A. Rassolov, P. E. Maslen, P. P. Korambath, R. D. Adamson,
 B. Austin, J. Baker, E. F. C. Byrd, H. Dachsel, R. J. Doerksen,
 A. Dreuw, B. D. Dunietz, A. D. Dutoi, T. R. Furlani,
 S. R. Gwaltney, A. Heyden, S. Hirata, C.-P. Hsu, G. Kedziora,
 R. Z. Khaliullin, P. Klunzinger, A. M. Lee, M. S. Lee, W. Liang,
 I. Lotan, N. Nair, B. Peters, E. I. Proynov, P. A. Pieniazek, 
 Y. M. Rhee, J. Ritchie, E. Rosta, C. D. Sherrill, 
 A. C. Simmonett, J. E. Subotnik, H. L. Woodcock III,
 W. Zhang, A. T. Bell, A. K. Chakraborty, D. M. Chipman,
 F. J. Keil, A. Warshel, W. J. Hehre, H. F. Schaefer III,
 J. Kong, A. I. Krylov, P. M. W. Gill, M. Head-Gordon,
 Q-Chem, Version 3.1, Q-Chem, Inc., Pittsburgh, PA (2007).

 Additional authors for Version 3.1: 
 Z. Gan, Y. Zhao, N. E. Schultz, D. Truhlar, E. Epifanovsky and M. Oana.

 Additional authors for Version 3.2: 
 R. Baer, B. R. Brooks, D. Casanova, J.-D. Chai, C.-L. Cheng, 
 C. Cramer, D. Crittenden, A. Ghysels, G. Hawkins, E. G. Hohenstein, 
 C. Kelley, W. Kurlancheek, D. Liotard, E. Livshits, P. Manohar, 
 A. Marenich, D. Neuhauser, R. Olson, M. A. Rohrdanz, K. S. Thanthiriwatte, 
 A. J. W. Thom, V. Vanovschi, C. F. Williams, Q. Wu and Z.-Q. You. 


 Intel X86 Linux Version

 Q-chem begins on Wed May  1 12:50:40 2013  

 Parallel job on  1  processors
Processing $rem in /usr/local/qchem/config/preferences.

theFileMan(): MAXOPENFILES=974 MAX_SUB_FILE_NUM=16
Maximum size of a physical file is 2.0 GB, maximum size of a tmp-file is 32.0 GB


--------------------------------------------------------------
User input:
--------------------------------------------------------------

$molecule 
READ 
$end 

$xc_functional
C PBE   1.00
X wPBE  1.00
$end


$rem
SYMMETRY_DECOMPOSITION	0
LRC_DFT                 true
exchange 		general
BASIS                   g3large
omega			310 
JOBTYPE                 freq
IDERIV 1
SCF_GUESS READ
mem_static              760
max_scf_cycles          200
scf_final_print         1
sym_ignore              true
$end

--------------------------------------------------------------
 Writing REM_CC_EA           10
 ----------------------------------------------------
       Standard Nuclear Orientation (Angstroms)
    I     Atom         X            Y            Z
 ----------------------------------------------------
    1      C       0.001764     0.000000     0.011781
    2      C      -0.002883     0.000000     1.341565
    3      C       1.206747     0.000000     2.161060
    4      C       1.202100     0.000000     3.490845
    5      H      -0.920747     0.000000    -0.560978
    6      H       0.933920     0.000000    -0.549432
    7      H      -0.951783     0.000000     1.878284
    8      H       2.155647     0.000000     1.624341
    9      H       0.269944     0.000000     4.052057
   10      H       2.124611     0.000000     4.063603
 ----------------------------------------------------
 Nuclear Repulsion Energy =   103.9408443797 hartrees
 There are       15 alpha and       15 beta electrons
 Requested basis set is G3large
 There are 76 shells and 228 basis functions

Total QAlloc Memory Limit   2000 MB
Mega-Array Size       759 MB
MEM_STATIC part       760 MB

                       Distance Matrix (Angstroms)
             C (  1)   C (  2)   C (  3)   C (  4)   H (  5)   H (  6)
   C (  2)  1.329793
   C (  3)  2.464018  1.461087
   C (  4)  3.680312  2.464018  1.329793
   H (  5)  1.085854  2.112379  3.454811  4.574248
   H (  6)  1.088060  2.110324  2.724188  4.049167  1.854703
   H (  7)  2.095969  1.090174  2.176974  2.690644  2.439460  3.074034
   H (  8)  2.690644  2.176974  1.090174  2.095969  3.773569  2.493573
   H (  9)  4.049167  2.724188  2.110324  1.088060  4.764225  4.649146
   H ( 10)  4.574248  3.454811  2.112379  1.085854  5.537234  4.764225
             H (  7)   H (  8)   H (  9)
   H (  8)  3.117789
   H (  9)  2.493573  3.074034
   H ( 10)  3.773569  2.439460  1.854703
 
 A cutoff of  1.0D-11 yielded   2755 shell pairs
 There are  24856 function pairs ( 30439 Cartesian)
Evaluating contribution to one-electron hamiltonian from nuclear
 Smallest overlap matrix eigenvalue = 1.19E-05
 Multipole matrices computed through 2nd order
 Guess MOs from SCF MO coefficient file
Reading MOs from coefficient file
Reading MOs from coefficient file
 Long-range K will be added via erf
 Coulomb attenuation parameter = 0.31 bohr**(-1)
 A restricted Kohn-Sham SCF calculation will be
 performed using Pulay DIIS extrapolation
 Exchange:  wPBE + LR-HF      Correlation:  PBE
 Using SG-1 standard quadrature grid
 SCF converges when DIIS error is below 1.0E-08
 ---------------------------------------
  Cycle       Energy         DIIS Error
 ---------------------------------------
    1    -155.8942783584      1.04E-09
    2    -155.8942783571      6.74E-10 Convergence criterion met
 ---------------------------------------
 One-Electron    Energy =  -413.9381165601
 Total Coulomb   Energy =   177.8605077368
 Alpha Exchange  Energy =    -2.3926412521
 Beta  Exchange  Energy =    -2.3926412521
 DFT   Exchange  Energy =   -18.0184415785
 DFT Correlation Energy =    -0.9537898308
 Nuclear Repu.   Energy =   103.9408443797
 Nuclear Attr.   Energy =  -569.1103875013
 Kinetic         Energy =   155.1722709411
 SCF time:  CPU 47.15 s  wall 47.39 s
 Final Alpha MO Eigenvalues
            1           2           3           4           5           6
    1 -10.0628203 -10.0626348 -10.0523061 -10.0523031  -0.9150566  -0.8421512
            7           8           9          10          11          12
    1  -0.7091416  -0.6590890  -0.5699382  -0.5673943  -0.4914069  -0.4831685
           13          14          15          16          17          18
    1  -0.4392518  -0.4380954  -0.3341954   0.0365944   0.0398897   0.0507024
           19          20
    1   0.0527085   0.0703462
 Analysis of SCF Wavefunction
 
 --------------------------------------------------------------
                    Orbital Energies (a.u.)
 --------------------------------------------------------------
 
 Alpha MOs
 -- Occupied --
-10.063 -10.063 -10.052 -10.052  -0.915  -0.842  -0.709  -0.659
 -0.570  -0.567  -0.491  -0.483  -0.439  -0.438  -0.334
 -- Virtual --
  0.037   0.040   0.051   0.053   0.070   0.079   0.098   0.101
  0.118   0.134   0.149   0.155   0.166   0.183   0.186   0.186
  0.191   0.195   0.202   0.205   0.220   0.231   0.239   0.254
  0.292   0.294   0.312   0.326   0.341   0.392   0.447   0.449
  0.484   0.534   0.535   0.593   0.595   0.600   0.600   0.607
  0.610   0.636   0.643   0.654   0.692   0.699   0.702   0.722
  0.747   0.748   0.771   0.782   0.799   0.802   0.837   0.848
  0.849   0.862   0.886   0.941   1.009   1.010   1.050   1.077
  1.098   1.103   1.113   1.134   1.134   1.182   1.289   1.293
  1.302   1.307   1.314   1.352   1.383   1.446   1.471   1.521
  1.523   1.559   1.571   1.576   1.598   1.619   1.627   1.710
  1.731   1.797   1.913   1.971   2.097   2.540   2.577   2.633
  2.655   2.657   2.668   2.734   2.747   2.749   2.774   2.795
  2.803   2.833   2.851   2.895   2.933   2.961   2.965   2.983
  3.042   3.091   3.095   3.105   3.140   3.153   3.202   3.236
  3.253   3.278   3.292   3.305   3.328   3.345   3.346   3.389
  3.426   3.443   3.456   3.465   3.469   3.517   3.587   3.593
  3.618   3.736   3.759   3.764   3.829   3.834   3.858   3.859
  3.960   4.011   4.017   4.118   4.152   4.162   4.168   4.213
  4.261   4.287   4.294   4.370   4.373   4.459   4.522   4.596
  4.605   4.641   4.745   4.759   4.831   4.881   4.977   5.105
  5.233   5.337   5.470   5.583   5.652   5.837   5.840   6.010
  6.061  23.973  23.996  24.597  24.808  27.170  27.232  27.411
 27.437  27.875  28.102  28.148  28.181  28.231  28.335  28.369
 28.721  40.791  40.821  40.899  40.917  40.928  40.955  41.075
 41.082  41.101  41.109  41.127  41.139  41.203  41.204  41.216
 41.233  41.235  41.282  41.312  41.353
 --------------------------------------------------------------
 
          Ground-State Mulliken Net Atomic Charges

     Atom                 Charge (a.u.)
  ----------------------------------------
      1 C                    -0.439327
      2 C                     0.119703
      3 C                     0.119703
      4 C                    -0.439327
      5 H                     0.114420
      6 H                     0.096618
      7 H                     0.108586
      8 H                     0.108586
      9 H                     0.096618
     10 H                     0.114420
  ----------------------------------------
  Sum of atomic charges =     0.000000

 -----------------------------------------------------------------
                    Cartesian Multipole Moments
 -----------------------------------------------------------------
    Charge (ESU x 10^10)
                 0.0000
    Dipole Moment (Debye)
         X       0.0000      Y       0.0000      Z       0.0000
       Tot       0.0000
    Quadrupole Moments (Debye-Ang)
        XX     -22.9585     XY       0.0000     YY     -28.8988
        XZ      -0.1793     YZ       0.0000     ZZ     -23.0401
    Octapole Moments (Debye-Ang^2)
       XXX     -41.4584    XXY       0.0000    XYY     -17.3951
       YYY       0.0000    XXZ     -40.4234    XYZ       0.0000
       YYZ     -50.6108    XZZ     -14.4967    YZZ       0.0000
       ZZZ    -121.0514
    Hexadecapole Moments (Debye-Ang^3)
      XXXX    -156.6449   XXXY       0.0000   XXYY     -38.1446
      XYYY       0.0000   YYYY     -35.1932   XXXZ    -119.9457
      XXYZ       0.0000   XYYZ     -50.8874   YYYZ       0.0000
      XXZZ    -142.9944   XYZZ       0.0000   YYZZ    -156.1062
      XZZZ    -121.7115   YZZZ       0.0000   ZZZZ    -732.5282
 -----------------------------------------------------------------
 Calculating analytic gradient of the SCF energy
 Gradient of AOints
            1           2           3           4           5           6
    1   0.6808423   3.9955173  -3.9955173  -0.6808423   3.0605129  -2.9357649
    2  -0.0000000   0.0000000   0.0000000  -0.0000000  -0.0000000  -0.0000000
    3   8.5672465  -2.9961994   2.9961994  -8.5672465   2.0726141   2.2284755
            7           8           9          10
    1   3.8193506  -3.8193506   2.9357649  -3.0605129
    2  -0.0000000  -0.0000000   0.0000000   0.0000000
    3  -1.6004544   1.6004544  -2.2284755  -2.0726141
 Gradient of XC Energy
            1           2           3           4           5           6
    1   0.0135018  -0.0307775   0.0307775  -0.0135018  -0.1664816   0.1644105
    2   0.0000000  -0.0000000  -0.0000000   0.0000000   0.0000000   0.0000000
    3  -0.1355801   0.1248968  -0.1248968   0.1355801  -0.0981263  -0.0949668
            7           8           9          10
    1  -0.1708682   0.1708682  -0.1644105   0.1664816
    2   0.0000000   0.0000000  -0.0000000   0.0000000
    3   0.0863918  -0.0863918   0.0949668   0.0981263
 Gradient of SCF Energy
            1           2           3           4           5           6
    1  -0.0000062   0.0000436  -0.0000436   0.0000062   0.0000001   0.0000012
    2   0.0000000  -0.0000000   0.0000000   0.0000000  -0.0000000   0.0000000
    3  -0.0000257   0.0000376  -0.0000376   0.0000257  -0.0000025  -0.0000111
            7           8           9          10
    1  -0.0000100   0.0000100  -0.0000012  -0.0000001
    2  -0.0000000  -0.0000000  -0.0000000  -0.0000000
    3  -0.0000142   0.0000142   0.0000111   0.0000025
 Max gradient component =       4.364E-05
 RMS gradient           =       1.723E-05
 Gradient time:  CPU 103.02 s  wall 103.20 s
 ######################################################
 ######################################################
 # Starting finite difference calculation for IDERIV  #
 Finite diff step size: 1.89e-03 a.u.
 Writing REM_CC_EA           10
 ----------------------------------------------------
       Standard Nuclear Orientation (Angstroms)
    I     Atom         X            Y            Z
 ----------------------------------------------------
    1      C       0.002764     0.000000     0.011781
    2      C      -0.002883     0.000000     1.341565
    3      C       1.206747     0.000000     2.161060
    4      C       1.202100     0.000000     3.490845
    5      H      -0.920747     0.000000    -0.560978
    6      H       0.933920     0.000000    -0.549432
    7      H      -0.951783     0.000000     1.878284
    8      H       2.155647     0.000000     1.624341
    9      H       0.269944     0.000000     4.052057
   10      H       2.124611     0.000000     4.063603
 ----------------------------------------------------
 Nuclear Repulsion Energy =   103.9429138651 hartrees
 There are       15 alpha and       15 beta electrons

                       Distance Matrix (Angstroms)
             C (  1)   C (  2)   C (  3)   C (  4)   H (  5)   H (  6)
   C (  2)  1.329796
   C (  3)  2.463529  1.461087
   C (  4)  3.679986  2.464018  1.329793
   H (  5)  1.086704  2.112379  3.454811  4.574248
   H (  6)  1.087204  2.110324  2.724188  4.049167  1.854703
   H (  7)  2.096425  1.090174  2.176974  2.690644  2.439460  3.074034
   H (  8)  2.689843  2.176974  1.090174  2.095969  3.773569  2.493573
   H (  9)  4.049101  2.724188  2.110324  1.088060  4.764225  4.649146
   H ( 10)  4.573784  3.454811  2.112379  1.085854  5.537234  4.764225
             H (  7)   H (  8)   H (  9)
   H (  8)  3.117789
   H (  9)  2.493573  3.074034
   H ( 10)  3.773569  2.439460  1.854703
 
 Requested basis set is G3large
 There are 76 shells and 228 basis functions
 A cutoff of  1.0D-11 yielded   2755 shell pairs
 There are  24856 function pairs ( 30439 Cartesian)
Evaluating contribution to one-electron hamiltonian from nuclear
 Smallest overlap matrix eigenvalue = 1.19E-05
 Multipole matrices computed through 2nd order
 Guess MOs from SCF MO coefficient file
Reading MOs from coefficient file
Reading MOs from coefficient file
 Long-range K will be added via erf
 Coulomb attenuation parameter = 0.31 bohr**(-1)
 A restricted Kohn-Sham SCF calculation will be
 performed using Pulay DIIS extrapolation
 Exchange:  wPBE + LR-HF      Correlation:  PBE
 Using SG-1 standard quadrature grid
 SCF converges when DIIS error is below 1.0E-08
 ---------------------------------------
  Cycle       Energy         DIIS Error
 ---------------------------------------
    1    -155.8942632610      2.08E-05
    2    -155.8942771573      2.79E-06
    3    -155.8942772340      1.01E-06
    4    -155.8942772228      2.21E-07
    5    -155.8942772422      1.40E-07
    6    -155.8942772378      2.82E-08
    7    -155.8942772345      6.59E-09 Convergence criterion met
 ---------------------------------------
 One-Electron    Energy =  -413.9424112534
 Total Coulomb   Energy =   177.8627537118
 Alpha Exchange  Energy =    -2.3926424682
 Beta  Exchange  Energy =    -2.3926424682
 DFT   Exchange  Energy =   -18.0184564436
 DFT Correlation Energy =    -0.9537921778
 Nuclear Repu.   Energy =   103.9429138651
 Nuclear Attr.   Energy =  -569.1147695656
 Kinetic         Energy =   155.1723583122
 SCF time:  CPU 138.95 s  wall 140.05 s
 Final Alpha MO Eigenvalues
            1           2           3           4           5           6
    1 -10.0628111 -10.0626234 -10.0523063 -10.0522826  -0.9150635  -0.8421345
            7           8           9          10          11          12
    1  -0.7091114  -0.6591287  -0.5698546  -0.5674384  -0.4913494  -0.4832384
           13          14          15          16          17          18
    1  -0.4392492  -0.4380957  -0.3341833   0.0366100   0.0398884   0.0507041
           19          20
    1   0.0527037   0.0703519
 Analysis of SCF Wavefunction
 
 --------------------------------------------------------------
                    Orbital Energies (a.u.)
 --------------------------------------------------------------
 
 Alpha MOs
 -- Occupied --
-10.063 -10.063 -10.052 -10.052  -0.915  -0.842  -0.709  -0.659
 -0.570  -0.567  -0.491  -0.483  -0.439  -0.438  -0.334
 -- Virtual --
  0.037   0.040   0.051   0.053   0.070   0.079   0.098   0.101
  0.118   0.134   0.149   0.155   0.166   0.183   0.186   0.186
  0.191   0.195   0.202   0.205   0.220   0.231   0.239   0.254
  0.292   0.294   0.312   0.326   0.341   0.392   0.447   0.449
  0.484   0.534   0.535   0.593   0.595   0.600   0.600   0.607
  0.610   0.636   0.644   0.654   0.692   0.699   0.702   0.722
  0.747   0.748   0.771   0.782   0.799   0.802   0.837   0.848
  0.849   0.862   0.886   0.941   1.009   1.010   1.051   1.077
  1.098   1.103   1.113   1.134   1.135   1.182   1.289   1.293
  1.302   1.307   1.314   1.352   1.383   1.445   1.471   1.521
  1.523   1.559   1.571   1.576   1.598   1.619   1.627   1.710
  1.731   1.797   1.913   1.971   2.097   2.540   2.577   2.633
  2.654   2.657   2.668   2.734   2.747   2.749   2.774   2.795
  2.803   2.833   2.851   2.895   2.933   2.961   2.965   2.983
  3.042   3.091   3.095   3.105   3.140   3.153   3.202   3.236
  3.254   3.278   3.292   3.305   3.328   3.345   3.346   3.389
  3.426   3.443   3.457   3.465   3.469   3.517   3.587   3.593
  3.618   3.736   3.759   3.764   3.828   3.834   3.858   3.860
  3.960   4.011   4.017   4.118   4.152   4.162   4.168   4.214
  4.261   4.287   4.295   4.370   4.373   4.459   4.522   4.596
  4.605   4.640   4.745   4.759   4.830   4.881   4.977   5.105
  5.233   5.336   5.470   5.583   5.652   5.837   5.840   6.010
  6.062  23.973  23.996  24.597  24.808  27.171  27.232  27.411
 27.437  27.875  28.102  28.148  28.181  28.231  28.335  28.369
 28.721  40.791  40.821  40.899  40.917  40.928  40.955  41.075
 41.082  41.101  41.109  41.127  41.139  41.203  41.204  41.216
 41.233  41.235  41.282  41.312  41.353
 --------------------------------------------------------------
 
          Ground-State Mulliken Net Atomic Charges

     Atom                 Charge (a.u.)
  ----------------------------------------
      1 C                    -0.439139
      2 C                     0.119397
      3 C                     0.120049
      4 C                    -0.439606
      5 H                     0.114149
      6 H                     0.096906
      7 H                     0.108642
      8 H                     0.108595
      9 H                     0.096611
     10 H                     0.114395
  ----------------------------------------
  Sum of atomic charges =     0.000000

 -----------------------------------------------------------------
                    Cartesian Multipole Moments
 -----------------------------------------------------------------
    Charge (ESU x 10^10)
                 0.0000
    Dipole Moment (Debye)
         X       0.0003      Y       0.0000      Z      -0.0006
       Tot       0.0006
    Quadrupole Moments (Debye-Ang)
        XX     -22.9586     XY       0.0000     YY     -28.8988
        XZ      -0.1838     YZ       0.0000     ZZ     -23.0432
    Octapole Moments (Debye-Ang^2)
       XXX     -41.4723    XXY       0.0000    XYY     -17.3996
       YYY       0.0000    XXZ     -40.4254    XYZ       0.0000
       YYZ     -50.6116    XZZ     -14.5083    YZZ       0.0000
       ZZZ    -121.0665
    Hexadecapole Moments (Debye-Ang^3)
      XXXX    -156.6464   XXXY       0.0000   XXYY     -38.1449
      XYYY       0.0000   YYYY     -35.1935   XXXZ    -119.9575
      XXYZ       0.0000   XYYZ     -50.8910   YYYZ       0.0000
      XXZZ    -143.0034   XYZZ       0.0000   YYZZ    -156.1099
      XZZZ    -121.7476   YZZZ       0.0000   ZZZZ    -732.5986
 -----------------------------------------------------------------
 Calculating analytic gradient of the SCF energy
 Gradient of AOints
            1           2           3           4           5           6
    1   0.6705799   4.0049100  -3.9951389  -0.6803051   3.0601250  -2.9358961
    2  -0.0000000   0.0000000   0.0000000   0.0000000   0.0000000   0.0000000
    3   8.5667836  -2.9956232   2.9973481  -8.5677366   2.0692964   2.2320130
            7           8           9          10
    1   3.8200357  -3.8195455   2.9357579  -3.0605227
    2   0.0000000  -0.0000000  -0.0000000  -0.0000000
    3  -1.6015357   1.6003631  -2.2283598  -2.0725489
 Gradient of XC Energy
            1           2           3           4           5           6
    1   0.0137313  -0.0310900   0.0307779  -0.0135128  -0.1664225   0.1644591
    2   0.0000000  -0.0000000  -0.0000000  -0.0000000  -0.0000000  -0.0000000
    3  -0.1355441   0.1248677  -0.1249445   0.1355838  -0.0979418  -0.0951516
            7           8           9          10
    1  -0.1708865   0.1708717  -0.1644094   0.1664812
    2   0.0000000   0.0000000   0.0000000   0.0000000
    3   0.0864329  -0.0863881   0.0949633   0.0981225
 Gradient of SCF Energy
            1           2           3           4           5           6
    1   0.0012054  -0.0001733  -0.0000347  -0.0000049  -0.0005022  -0.0004990
    2  -0.0000000   0.0000000  -0.0000000  -0.0000000   0.0000000  -0.0000000
    3  -0.0000123   0.0000485  -0.0001008   0.0000216  -0.0002338   0.0002130
            7           8           9          10
    1  -0.0000039   0.0000128  -0.0000008   0.0000004
    2  -0.0000000   0.0000000   0.0000000   0.0000000
    3   0.0000410   0.0000129   0.0000102  -0.0000005
 Max gradient component =       1.205E-03
 RMS gradient           =       2.646E-04
 Gradient time:  CPU 103.30 s  wall 103.46 s
 Writing REM_CC_EA           10
 ----------------------------------------------------
       Standard Nuclear Orientation (Angstroms)
    I     Atom         X            Y            Z
 ----------------------------------------------------
    1      C       0.000764     0.000000     0.011781
    2      C      -0.002883     0.000000     1.341565
    3      C       1.206747     0.000000     2.161060
    4      C       1.202100     0.000000     3.490845
    5      H      -0.920747     0.000000    -0.560978
    6      H       0.933920     0.000000    -0.549432
    7      H      -0.951783     0.000000     1.878284
    8      H       2.155647     0.000000     1.624341
    9      H       0.269944     0.000000     4.052057
   10      H       2.124611     0.000000     4.063603
 ----------------------------------------------------
 Nuclear Repulsion Energy =   103.9387719865 hartrees
 There are       15 alpha and       15 beta electrons

                       Distance Matrix (Angstroms)
             C (  1)   C (  2)   C (  3)   C (  4)   H (  5)   H (  6)
   C (  2)  1.329789
   C (  3)  2.464507  1.461087
   C (  4)  3.680638  2.464018  1.329793
   H (  5)  1.085004  2.112379  3.454811  4.574248
   H (  6)  1.088917  2.110324  2.724188  4.049167  1.854703
   H (  7)  2.095515  1.090174  2.176974  2.690644  2.439460  3.074034
   H (  8)  2.691444  2.176974  1.090174  2.095969  3.773569  2.493573
   H (  9)  4.049233  2.724188  2.110324  1.088060  4.764225  4.649146
   H ( 10)  4.574712  3.454811  2.112379  1.085854  5.537234  4.764225
             H (  7)   H (  8)   H (  9)
   H (  8)  3.117789
   H (  9)  2.493573  3.074034
   H ( 10)  3.773569  2.439460  1.854703
 
 Requested basis set is G3large
 There are 76 shells and 228 basis functions
 A cutoff of  1.0D-11 yielded   2755 shell pairs
 There are  24856 function pairs ( 30439 Cartesian)
Evaluating contribution to one-electron hamiltonian from nuclear
 Smallest overlap matrix eigenvalue = 1.19E-05
 Multipole matrices computed through 2nd order
 Guess MOs from SCF MO coefficient file
Reading MOs from coefficient file
Reading MOs from coefficient file
 Long-range K will be added via erf
 Coulomb attenuation parameter = 0.31 bohr**(-1)
 A restricted Kohn-Sham SCF calculation will be
 performed using Pulay DIIS extrapolation
 Exchange:  wPBE + LR-HF      Correlation:  PBE
 Using SG-1 standard quadrature grid
 SCF converges when DIIS error is below 1.0E-08
 ---------------------------------------
  Cycle       Energy         DIIS Error
 ---------------------------------------
    1    -155.8943076259      4.16E-05
    2    -155.8942769519      5.57E-06
    3    -155.8942771550      2.02E-06
    4    -155.8942772174      4.46E-07
    5    -155.8942771813      2.83E-07
    6    -155.8942771922      5.57E-08
    7    -155.8942772008      1.28E-08
    8    -155.8942771978      4.04E-09 Convergence criterion met
 ---------------------------------------
 One-Electron    Energy =  -413.9338128065
 Total Coulomb   Energy =   177.8582582445
 Alpha Exchange  Energy =    -2.3926399953
 Beta  Exchange  Energy =    -2.3926399953
 DFT   Exchange  Energy =   -18.0184271750
 DFT Correlation Energy =    -0.9537874568
 Nuclear Repu.   Energy =   103.9387719865
 Nuclear Attr.   Energy =  -569.1060018499
 Kinetic         Energy =   155.1721890434
 SCF time:  CPU 156.65 s  wall 160.12 s
 Final Alpha MO Eigenvalues
            1           2           3           4           5           6
    1 -10.0628319 -10.0626441 -10.0523268 -10.0523030  -0.9150499  -0.8421679
            7           8           9          10          11          12
    1  -0.7091723  -0.6590496  -0.5700241  -0.5673486  -0.4914678  -0.4830953
           13          14          15          16          17          18
    1  -0.4392536  -0.4380952  -0.3342076   0.0365788   0.0398909   0.0507007
           19          20
    1   0.0527133   0.0703405
 Analysis of SCF Wavefunction
 
 --------------------------------------------------------------
                    Orbital Energies (a.u.)
 --------------------------------------------------------------
 
 Alpha MOs
 -- Occupied --
-10.063 -10.063 -10.052 -10.052  -0.915  -0.842  -0.709  -0.659
 -0.570  -0.567  -0.491  -0.483  -0.439  -0.438  -0.334
 -- Virtual --
  0.037   0.040   0.051   0.053   0.070   0.079   0.098   0.101
  0.118   0.134   0.149   0.155   0.166   0.183   0.186   0.186
  0.191   0.195   0.202   0.205   0.220   0.231   0.239   0.254
  0.292   0.294   0.312   0.326   0.341   0.392   0.447   0.449
  0.484   0.534   0.535   0.593   0.595   0.600   0.600   0.607
  0.610   0.636   0.643   0.654   0.692   0.699   0.702   0.722
  0.747   0.748   0.771   0.782   0.799   0.802   0.837   0.848
  0.849   0.862   0.886   0.941   1.009   1.010   1.050   1.077
  1.098   1.103   1.113   1.134   1.134   1.182   1.289   1.293
[...]
Order 1, Length 30
   0.0000035  -0.0358988   0.0000013   0.0000025   0.0065067   0.0000045  -0.0000009  -0.0083898   0.0000012  -0.0000000   0.0002171  -0.0000025  -0.0000035   0.0028135  -0.0000028  -0.0000000   0.0229387   0.0000004   0.0000000   0.0109452  -0.0000017   0.0000000   0.0002762   0.0000004   0.0000000   0.0003051   0.0000007   0.0000000   0.0002879  -0.0000003
Order 1, Length 30
   0.1181218  -0.0000012  -0.1265352   0.0292936  -0.0000012  -0.0123619   0.0019772   0.0000006   0.0015235  -0.0004373  -0.0000003   0.0000452  -0.0130948  -0.0000010   0.0097511  -0.1338819   0.0000004   0.1323405  -0.0006059   0.0000003  -0.0048573  -0.0012329   0.0000013  -0.0001641  -0.0000728   0.0000015   0.0002541  -0.0000636  -0.0000010   0.0000067
Order 1, Length 30
   0.0032613   0.0000016  -0.0022461  -0.2634335   0.0000049   0.1162740  -0.0202730  -0.0000025   0.0142110   0.0014476   0.0000000   0.0008742   0.0011157  -0.0000001   0.0002102   0.0010063   0.0000000  -0.0006059   0.2788109  -0.0000014  -0.1246043  -0.0027725  -0.0000030  -0.0026699   0.0003738  -0.0000020  -0.0012323   0.0004576   0.0000014  -0.0002134
Order 1, Length 30
   0.0000015   0.0070309   0.0000027   0.0000034  -0.0416039  -0.0000072  -0.0000006   0.0037118  -0.0000069   0.0000016  -0.0011227   0.0000007   0.0000017  -0.0075727   0.0000020  -0.0000034   0.0109452   0.0000003  -0.0000014   0.0262029   0.0000016   0.0000000   0.0023694   0.0000020   0.0000000   0.0002762   0.0000010   0.0000000  -0.0002425   0.0000018
Order 1, Length 30
   0.0292371  -0.0000013  -0.0130471   0.1141868  -0.0000021  -0.1189750  -0.0158213  -0.0000005   0.0089747  -0.0006808  -0.0000002   0.0017328  -0.0003876   0.0000016   0.0009998  -0.0002888  -0.0000017  -0.0048573  -0.1246043   0.0000016   0.1269519  -0.0026698   0.0000025  -0.0016235   0.0007656   0.0000007  -0.0001641   0.0002685  -0.0000002   0.0000096
Order 1, Length 30
   0.0014497   0.0000000   0.0008733  -0.0202713   0.0000029   0.0142132  -0.2634351   0.0000000   0.1162757   0.0032613   0.0000000  -0.0022438   0.0004572   0.0000000  -0.0002141   0.0003759   0.0000000  -0.0012329  -0.0027725   0.0000000  -0.0026698   0.2788118  -0.0000009  -0.1246054   0.0010108  -0.0000014  -0.0006078   0.0011130  -0.0000016   0.0002089
Order 1, Length 30
   0.0000015  -0.0011227  -0.0000016  -0.0000011   0.0037118  -0.0000066   0.0000045  -0.0416039  -0.0000052   0.0000017   0.0070310   0.0000031   0.0000023  -0.0002425   0.0000021  -0.0000029   0.0002762   0.0000013  -0.0000030   0.0023694   0.0000025  -0.0000009   0.0262029   0.0000011   0.0000000   0.0109452  -0.0000002   0.0000000  -0.0075725   0.0000014
Order 1, Length 30
  -0.0006832  -0.0000016   0.0017328  -0.0158229  -0.0000027   0.0089747   0.1141877  -0.0000025  -0.1189751   0.0292367  -0.0000007  -0.0130470   0.0002677  -0.0000003   0.0000095   0.0007659   0.0000004  -0.0001641  -0.0026699   0.0000020  -0.0016235  -0.1246054   0.0000011   0.1269520  -0.0002892  -0.0000009  -0.0048573  -0.0003871   0.0000025   0.0009998
Order 1, Length 30
   0.0002447   0.0000000  -0.0000643   0.0013576   0.0000000  -0.0016996   0.0021784   0.0000000  -0.0007615  -0.2641565   0.0000000   0.1229018  -0.0000020   0.0000000   0.0001002  -0.0001720   0.0000000  -0.0000728   0.0003738   0.0000000   0.0007656   0.0010108   0.0000000  -0.0002892   0.2738276  -0.0000014  -0.1338816  -0.0146636  -0.0000026   0.0129981
Order 1, Length 30
   0.0000003   0.0002171  -0.0000019   0.0000006  -0.0083899  -0.0000006   0.0000027   0.0065065   0.0000031   0.0000037  -0.0358989  -0.0000003   0.0000013   0.0002880   0.0000002  -0.0000017   0.0003051   0.0000015  -0.0000020   0.0002762   0.0000007  -0.0000014   0.0109452  -0.0000009  -0.0000014   0.0229387   0.0000013  -0.0000021   0.0028135  -0.0000019
Order 1, Length 30
  -0.0004395  -0.0000019   0.0000452   0.0019750  -0.0000011   0.0015235   0.0292948  -0.0000021  -0.0123619   0.1181212  -0.0000009  -0.1265352  -0.0000649  -0.0000016   0.0000068  -0.0000717   0.0000007   0.0002541  -0.0012323   0.0000010  -0.0001641  -0.0006078  -0.0000002  -0.0048573  -0.1338816   0.0000013   0.1323404  -0.0130939  -0.0000001   0.0097511
Order 1, Length 30
   0.0002423   0.0000000  -0.0000911   0.0006918   0.0000000   0.0002138   0.0041544  -0.0000040   0.0040763  -0.2662999   0.0000000  -0.1286273  -0.0000011   0.0000000   0.0000122  -0.0000033   0.0000000  -0.0000636   0.0004576   0.0000000   0.0002685   0.0011130   0.0000000  -0.0003871  -0.0146636  -0.0000021  -0.0130939   0.2743010  -0.0000002   0.1376951
Order 1, Length 30
   0.0000003  -0.0004808   0.0000057   0.0000007   0.0125315  -0.0000049  -0.0000006   0.0059748  -0.0000057   0.0000031  -0.0349548   0.0000007  -0.0000007  -0.0012339   0.0000002   0.0000002   0.0002879  -0.0000010   0.0000014  -0.0002425  -0.0000002  -0.0000016  -0.0075725   0.0000025  -0.0000026   0.0028135  -0.0000001  -0.0000002   0.0228782   0.0000009
Order 1, Length 30
  -0.0015761  -0.0000009  -0.0002684   0.0023282  -0.0000032  -0.0043360  -0.0286906  -0.0000034  -0.0117800  -0.1228676  -0.0000010  -0.1305691   0.0000106  -0.0000001  -0.0004509   0.0001008  -0.0000003   0.0000067  -0.0002134   0.0000018   0.0000096   0.0002089   0.0000014   0.0009998   0.0129981  -0.0000019   0.0097511   0.1376951   0.0000009   0.1366392


 # Finishing finite difference calculation for IDERIV #
 ######################################################
 ######################################################
 Requested basis set is G3large
 There are 76 shells and 228 basis functions
 **********************************************************************
 **                                                                  **
 **                       VIBRATIONAL ANALYSIS                       **
 **                       --------------------                       **
 **                                                                  **
 **        VIBRATIONAL FREQUENCIES (CM**-1) AND NORMAL MODES         **
 **     FORCE CONSTANTS (mDYN/ANGSTROM) AND REDUCED MASSES (AMU)     **
 **                  INFRARED INTENSITIES (KM/MOL)                   **
 **                                                                  **
 **********************************************************************
 

 Mode:                 1                      2                      3
 Frequency:       154.80                 290.46                 511.42
 Force Cnst:      0.0361                 0.1070                 0.4095
 Red. Mass:       2.5592                 2.1521                 2.6575
 IR Active:          YES                    YES                    YES
 IR Intens:        0.516                  2.740                  0.000
 Raman Active:       YES                    YES                    YES
               X      Y      Z        X      Y      Z        X      Y      Z
 C          0.000 -0.176  0.000   -0.144  0.000 -0.004    0.090  0.000  0.192
 C          0.000  0.199  0.000    0.176  0.000 -0.006   -0.069  0.000  0.159
 C          0.000  0.199  0.000    0.176  0.000 -0.006    0.069  0.000 -0.159
 C          0.000 -0.176  0.000   -0.144  0.000 -0.004   -0.090  0.000 -0.192
 H          0.000 -0.256  0.000   -0.321  0.000  0.278    0.253  0.000 -0.063
 H          0.000 -0.437  0.000   -0.317  0.000 -0.289    0.255  0.000  0.468
 H          0.000  0.415  0.000    0.255  0.000  0.138    0.000  0.000  0.271
 H          0.000  0.415  0.000    0.255  0.000  0.138    0.000  0.000 -0.271
 H          0.000 -0.437  0.000   -0.317  0.000 -0.289   -0.255  0.000 -0.468
 H          0.000 -0.256  0.000   -0.321  0.000  0.278   -0.253  0.000  0.063
 TransDip   0.000 -0.023  0.000    0.028  0.000  0.045    0.000  0.000  0.000

 Mode:                 4                      5                      6
 Frequency:       531.04                 782.70                 896.33
 Force Cnst:      0.1803                 0.5852                 0.8439
 Red. Mass:       1.0853                 1.6213                 1.7829
 IR Active:          YES                    YES                    YES
 IR Intens:       13.888                  0.000                  0.000
 Raman Active:       YES                    YES                    YES
               X      Y      Z        X      Y      Z        X      Y      Z
 C          0.000  0.018  0.000    0.000 -0.005  0.000    0.095  0.000  0.090
 C          0.000 -0.056  0.000    0.000  0.167  0.000    0.128  0.000  0.041
 C          0.000 -0.056  0.000    0.000 -0.167  0.000   -0.128  0.000 -0.041
 C          0.000  0.018  0.000    0.000  0.005  0.000   -0.095  0.000 -0.090
 H          0.000  0.498  0.000    0.000 -0.612  0.000   -0.187  0.000  0.548
 H          0.000 -0.375  0.000    0.000  0.301  0.000   -0.154  0.000 -0.310
 H          0.000  0.328  0.000    0.000 -0.087  0.000    0.084  0.000 -0.051
 H          0.000  0.328  0.000    0.000  0.087  0.000   -0.084  0.000  0.051
 H          0.000 -0.375  0.000    0.000 -0.301  0.000    0.154  0.000  0.310
 H          0.000  0.498  0.000    0.000  0.612  0.000    0.187  0.000 -0.548
 TransDip   0.000  0.119  0.000    0.000  0.000  0.000    0.000  0.000  0.000

 Mode:                 7                      8                      9
 Frequency:       953.63                 957.12                 990.23
 Force Cnst:      0.6692                 0.7257                 0.6889
 Red. Mass:       1.2490                 1.3445                 1.1924
 IR Active:          YES                    YES                    YES
 IR Intens:        0.000                 95.197                  2.482
 Raman Active:       YES                    YES                    YES
               X      Y      Z        X      Y      Z        X      Y      Z
 C          0.000 -0.103  0.000    0.000 -0.119  0.000    0.082  0.000  0.013
 C          0.000  0.017  0.000    0.000  0.033  0.000   -0.037  0.000  0.011
 C          0.000 -0.016  0.000    0.000  0.033  0.000   -0.037  0.000  0.011
 C          0.000  0.103  0.000    0.000 -0.119  0.000    0.082  0.000  0.013
 H          0.000  0.321  0.000    0.000  0.461  0.000   -0.160  0.000  0.396
 H          0.000  0.585  0.000    0.000  0.520  0.000   -0.157  0.000 -0.374
 H          0.000  0.209  0.000    0.000  0.041  0.000   -0.219  0.000 -0.311
 H          0.000 -0.209  0.000    0.000  0.041  0.000   -0.219  0.000 -0.311
 H          0.000 -0.585  0.000    0.000  0.520  0.000   -0.157  0.000 -0.374
 H          0.000 -0.321  0.000    0.000  0.461  0.000   -0.160  0.000  0.396
 TransDip   0.000  0.000  0.000    0.000  0.312  0.000   -0.024  0.000 -0.044

 Mode:                10                     11                     12
 Frequency:      1008.97                1049.32                1218.14
 Force Cnst:      0.7707                 0.7188                 1.6053
 Red. Mass:       1.2850                 1.1081                 1.8362
 IR Active:          YES                    YES                    YES
 IR Intens:        0.000                 28.444                  0.000
 Raman Active:       YES                    YES                    YES
               X      Y      Z        X      Y      Z        X      Y      Z
 C          0.000 -0.052  0.000    0.000  0.015  0.000   -0.056  0.000 -0.018
 C          0.000  0.099  0.000    0.000 -0.066  0.000    0.185  0.000 -0.008
 C          0.000 -0.099  0.000    0.000 -0.066  0.000   -0.185  0.000  0.008
 C          0.000  0.052  0.000    0.000  0.015  0.000    0.056  0.000  0.018
 H          0.000  0.351  0.000    0.000 -0.268  0.000    0.072  0.000 -0.214
 H          0.000 -0.125  0.000    0.000  0.284  0.000    0.090  0.000  0.211
 H          0.000 -0.590  0.000    0.000  0.586  0.000    0.429  0.000  0.417
 H          0.000  0.590  0.000    0.000  0.586  0.000   -0.429  0.000 -0.417
 H          0.000  0.125  0.000    0.000  0.284  0.000   -0.090  0.000 -0.211
 H          0.000 -0.351  0.000    0.000 -0.268  0.000   -0.072  0.000  0.214
 TransDip   0.000  0.000  0.000    0.000  0.171  0.000    0.000  0.000  0.000

 Mode:                13                     14                     15
 Frequency:      1302.65                1304.16                1402.54
 Force Cnst:      1.2755                 1.3691                 1.3657
 Red. Mass:       1.2758                 1.3662                 1.1783
 IR Active:          YES                    YES                    YES
 IR Intens:        1.952                  0.000                  8.836
 Raman Active:       YES                    YES                    YES
               X      Y      Z        X      Y      Z        X      Y      Z
 C          0.065  0.000 -0.044    0.064  0.000 -0.063    0.009  0.000  0.009
 C         -0.078  0.000  0.006   -0.081  0.000  0.040   -0.015  0.000 -0.086
 C         -0.078  0.000  0.006    0.081  0.000 -0.040   -0.015  0.000 -0.086
 C          0.065  0.000 -0.044   -0.064  0.000  0.063    0.009  0.000  0.009
 H         -0.030  0.000  0.100    0.041  0.000 -0.045   -0.247  0.000  0.450
 H         -0.061  0.000 -0.247   -0.130  0.000 -0.400    0.232  0.000  0.407
 H          0.245  0.000  0.592    0.183  0.000  0.520    0.076  0.000  0.058
 H          0.246  0.000  0.593   -0.182  0.000 -0.519    0.076  0.000  0.058
 H         -0.061  0.000 -0.248    0.130  0.000  0.399    0.232  0.000  0.407
 H         -0.030  0.000  0.100   -0.041  0.000  0.046   -0.247  0.000  0.450
 TransDip   0.040  0.000 -0.021    0.000  0.000  0.000   -0.030  0.000  0.090

 Mode:                16                     17                     18
 Frequency:      1455.00                1677.10                1745.80
 Force Cnst:      1.5187                 7.3053                 9.5968
 Red. Mass:       1.2176                 4.4083                 5.3443
 IR Active:          YES                    YES                    YES
 IR Intens:        0.000                 22.644                  0.000
 Raman Active:       YES                    YES                    YES
               X      Y      Z        X      Y      Z        X      Y      Z
 C          0.018  0.000 -0.054    0.014  0.000  0.291    0.005  0.000  0.260
 C         -0.050  0.000 -0.061   -0.029  0.000 -0.263   -0.080  0.000 -0.351
 C          0.050  0.000  0.061   -0.029  0.000 -0.263    0.080  0.000  0.351
 C         -0.018  0.000  0.054    0.014  0.000  0.291   -0.005  0.000 -0.260
 H         -0.276  0.000  0.435    0.333  0.000 -0.157    0.257  0.000 -0.073
 H          0.245  0.000  0.338   -0.340  0.000 -0.228   -0.275  0.000 -0.133
 H          0.092  0.000  0.206    0.196  0.000  0.057    0.283  0.000  0.242
 H         -0.092  0.000 -0.206    0.196  0.000  0.057   -0.283  0.000 -0.242
 H         -0.245  0.000 -0.338   -0.340  0.000 -0.229    0.275  0.000  0.133
 H          0.276  0.000 -0.435    0.333  0.000 -0.157   -0.257  0.000  0.073
 TransDip   0.000  0.000  0.000   -0.030  0.000 -0.149    0.000  0.000  0.000

 Mode:                19                     20                     21
 Frequency:      3132.41                3135.29                3145.79
 Force Cnst:      6.1547                 6.1385                 6.3398
 Red. Mass:       1.0646                 1.0599                 1.0873
 IR Active:          YES                    YES                    YES
 IR Intens:        0.000                 13.616                  0.000
 Raman Active:       YES                    YES                    YES
               X      Y      Z        X      Y      Z        X      Y      Z
 C         -0.004  0.000  0.036   -0.006  0.000  0.044   -0.012  0.000  0.032
 C         -0.033  0.000  0.014   -0.019  0.000  0.006    0.041  0.000 -0.027
 C          0.033  0.000 -0.014   -0.020  0.000  0.006   -0.041  0.000  0.027
 C          0.004  0.000 -0.036   -0.006  0.000  0.044    0.012  0.000 -0.032
 H         -0.319  0.000 -0.189   -0.359  0.000 -0.213   -0.190  0.000 -0.115
 H          0.363  0.000 -0.211    0.432  0.000 -0.255    0.331  0.000 -0.198
 H          0.379  0.000 -0.213    0.226  0.000 -0.123   -0.475  0.000  0.267
 H         -0.376  0.000  0.211    0.230  0.000 -0.125    0.477  0.000 -0.268
 H         -0.359  0.000  0.209    0.436  0.000 -0.258   -0.331  0.000  0.198
 H          0.315  0.000  0.186   -0.362  0.000 -0.215    0.189  0.000  0.115
 TransDip   0.000  0.000  0.001   -0.079  0.000  0.088    0.000  0.000  0.000

 Mode:                22                     23                     24
 Frequency:      3149.18                3225.97                3226.22
 Force Cnst:      6.3890                 6.8457                 6.8442
 Red. Mass:       1.0934                 1.1165                 1.1160
 IR Active:          YES                    YES                    YES
 IR Intens:        7.913                  0.000                 15.960
 Raman Active:       YES                    YES                    YES
               X      Y      Z        X      Y      Z        X      Y      Z
 C          0.012  0.000 -0.021    0.069  0.000  0.008   -0.069  0.000 -0.008
 C         -0.047  0.000  0.033    0.006  0.000 -0.004   -0.007  0.000  0.005
 C         -0.047  0.000  0.033   -0.006  0.000  0.004   -0.007  0.000  0.005
 C          0.012  0.000 -0.021   -0.070  0.000 -0.008   -0.069  0.000 -0.008
 H          0.081  0.000  0.046   -0.476  0.000 -0.299    0.476  0.000  0.298
 H         -0.225  0.000  0.131   -0.354  0.000  0.219    0.354  0.000 -0.219
 H          0.566  0.000 -0.318   -0.060  0.000  0.037    0.078  0.000 -0.042
 H          0.564  0.000 -0.317    0.060  0.000 -0.037    0.078  0.000 -0.042
 H         -0.224  0.000  0.131    0.355  0.000 -0.219    0.353  0.000 -0.219
 H          0.080  0.000  0.046    0.477  0.000  0.299    0.475  0.000  0.297
 TransDip  -0.090  0.000  0.000    0.000  0.000  0.000   -0.128  0.000  0.004

 STANDARD THERMODYNAMIC QUANTITIES AT   298.18 K  AND     1.00 ATM

   This Molecule has  0 Imaginary Frequencies
   Zero point vibrational energy:       53.246 kcal/mol

   Atom    1 Element C  Has Mass   12.00000
   Atom    2 Element C  Has Mass   12.00000
   Atom    3 Element C  Has Mass   12.00000
   Atom    4 Element C  Has Mass   12.00000
   Atom    5 Element H  Has Mass    1.00783
   Atom    6 Element H  Has Mass    1.00783
   Atom    7 Element H  Has Mass    1.00783
   Atom    8 Element H  Has Mass    1.00783
   Atom    9 Element H  Has Mass    1.00783
   Atom   10 Element H  Has Mass    1.00783
   Molecular Mass:    54.046980 amu
   Principal axes and moments of inertia in atomic units:
                             1           2           3
    Eigenvalues --       42.85808   404.65917   447.51725
          X               0.38713     0.92203     0.00000
          Y               0.00000     0.00000     1.00000
          Z               0.92203    -0.38713     0.00000
   Rotational Symmetry Number is   1
   The Molecule is an Asymmetric Top
   Translational Enthalpy:        0.889 kcal/mol
   Rotational Enthalpy:           0.889 kcal/mol
   Vibrational Enthalpy:         54.420 kcal/mol
   gas constant (RT):             0.593 kcal/mol
   Translational Entropy:        37.884  cal/mol.K
   Rotational Entropy:           23.566  cal/mol.K
   Vibrational Entropy:           6.285  cal/mol.K

   Total Enthalpy:               56.790 kcal/mol
   Total Entropy:                67.735  cal/mol.K
 Total job time:  16054.16s(wall), 15894.67s(cpu) 
 Wed May  1 17:18:14 2013

        *************************************************************
        *                                                           *
        *  Thank you very much for using Q-Chem.  Have a nice day.  *
        *                                                           *
        *************************************************************


0 sent ACK to 0 
now end server 0 ... 
