Process 0 of 1 is on cl158.stfx.acenet.ca - thread support 1
initial socket setup ...start
initial socket setup ...done 
now start server 0 ... 

cmd = /usr/bin/ssh clhead /usr/local/qchem/bin/get_hostid 1946326452 > /scratch/tmp/6027845.1.medium.q/qchem1590/lic.dat
                  Welcome to Q-Chem
     A Quantum Leap Into The Future Of Chemistry

 Y. Shao, L. Fusti-Molnar, Y. Jung, J. Kussmann, C. Ochsenfeld,
 S. T. Brown, A. T. B. Gilbert, L. V. Slipchenko,S. V. Levchenko,
 D. P. O'Neill, R. A. DiStasio Jr., R. C. Lochan, T. Wang,
 G. J. O. Beran, N. A. Besley, J. M. Herbert, C. Y. Lin,
 T. Van Voorhis, S. H. Chien, A. Sodt, R. P. Steele, 
 V. A. Rassolov, P. E. Maslen, P. P. Korambath, R. D. Adamson,
 B. Austin, J. Baker, E. F. C. Byrd, H. Dachsel, R. J. Doerksen,
 A. Dreuw, B. D. Dunietz, A. D. Dutoi, T. R. Furlani,
 S. R. Gwaltney, A. Heyden, S. Hirata, C.-P. Hsu, G. Kedziora,
 R. Z. Khaliullin, P. Klunzinger, A. M. Lee, M. S. Lee, W. Liang,
 I. Lotan, N. Nair, B. Peters, E. I. Proynov, P. A. Pieniazek, 
 Y. M. Rhee, J. Ritchie, E. Rosta, C. D. Sherrill, 
 A. C. Simmonett, J. E. Subotnik, H. L. Woodcock III,
 W. Zhang, A. T. Bell, A. K. Chakraborty, D. M. Chipman,
 F. J. Keil, A. Warshel, W. J. Hehre, H. F. Schaefer III,
 J. Kong, A. I. Krylov, P. M. W. Gill, M. Head-Gordon,
 Q-Chem, Version 3.1, Q-Chem, Inc., Pittsburgh, PA (2007).

 Additional authors for Version 3.1: 
 Z. Gan, Y. Zhao, N. E. Schultz, D. Truhlar, E. Epifanovsky and M. Oana.

 Additional authors for Version 3.2: 
 R. Baer, B. R. Brooks, D. Casanova, J.-D. Chai, C.-L. Cheng, 
 C. Cramer, D. Crittenden, A. Ghysels, G. Hawkins, E. G. Hohenstein, 
 C. Kelley, W. Kurlancheek, D. Liotard, E. Livshits, P. Manohar, 
 A. Marenich, D. Neuhauser, R. Olson, M. A. Rohrdanz, K. S. Thanthiriwatte, 
 A. J. W. Thom, V. Vanovschi, C. F. Williams, Q. Wu and Z.-Q. You. 


 Intel X86 Linux Version

 Q-chem begins on Mon Jun  3 17:05:20 2013  

 Parallel job on  1  processors
Processing $rem in /usr/local/qchem/config/preferences.

theFileMan(): MAXOPENFILES=974 MAX_SUB_FILE_NUM=16
Maximum size of a physical file is 2.0 GB, maximum size of a tmp-file is 32.0 GB


--------------------------------------------------------------
User input:
--------------------------------------------------------------

$molecule
-1,1
C
C,1,RCC
H,1,R1,2,A1
X,1,1.,2,X1,3,180.,0
H,1,R2,4,A2,2,90.,0
H,1,R2,4,A2,2,-90.,0
X,2,1.,1,X2,3,0.,0
H,2,R3,7,A3,1,90.,0
H,2,R3,7,A3,1,-90.,0

RCC=1.48936945
R1=1.10529134
R2=1.09701109
R3=1.08546443
A1=112.13113048
X1=129.25454486
A2=54.01302883
X2=171.53419822
A3=58.6932455

$end

$comment
negative
$end

$xc_functional
C PBE   1.00
X wPBE  1.00
$end

$rem
SYMMETRY_DECOMPOSITION	0
exchange 		general
LRC_DFT                 true
BASIS                   g3large
omega			700
mem_static              760
max_scf_cycles          200
scf_final_print         1
sym_ignore              true
$end

--------------------------------------------------------------
 Writing REM_CC_EA            7
 ----------------------------------------------------
       Standard Nuclear Orientation (Angstroms)
    I     Atom         X            Y            Z
 ----------------------------------------------------
    1      C       0.000000     0.000000     0.000000
    2      C       0.000000     0.000000     1.489369
    3      H       1.023858     0.000000    -0.416394
    4      H      -0.499145    -0.887647    -0.407885
    5      H      -0.499145     0.887647    -0.407885
    6      H       0.083036    -0.927418     2.047253
    7      H       0.083036     0.927418     2.047253
 ----------------------------------------------------
 Nuclear Repulsion Energy =    36.8646081075 hartrees
 There are        9 alpha and        9 beta electrons
 Requested basis set is G3large
 There are 50 shells and 134 basis functions

Total QAlloc Memory Limit   2000 MB
Mega-Array Size       743 MB
MEM_STATIC part       760 MB

                       Distance Matrix (Angstroms)
             C (  1)   C (  2)   H (  3)   H (  4)   H (  5)   H (  6)
   C (  2)  1.489369
   H (  3)  1.105291  2.163381
   H (  4)  1.097011  2.153285  1.762818
   H (  5)  1.097011  2.153285  1.762818  1.775294
   H (  6)  2.249054  1.085464  2.795497  2.523532  3.108230
   H (  7)  2.249054  1.085464  2.795497  3.108230  2.523532  1.854836

 
 A cutoff of  1.0D-08 yielded   1257 shell pairs
 There are   9069 function pairs ( 10810 Cartesian)
Evaluating contribution to one-electron hamiltonian from nuclear
 Smallest overlap matrix eigenvalue = 1.56E-04
 Multipole matrices computed through 2nd order

  Scale SEOQF with 1.000000e-01/1.000000e-01/1.000000e-01

 Standard Electronic Orientation quadrupole field applied
 Nucleus-field energy     =    -0.0000000021 hartrees
 Guess from superposition of atomic densities
 Warning:  Energy on first SCF cycle will be non-variational
 Long-range K will be added via erf
 Coulomb attenuation parameter = 0.7 bohr**(-1)
 A restricted Kohn-Sham SCF calculation will be
 performed using Pulay DIIS extrapolation
 Exchange:  wPBE + LR-HF      Correlation:  PBE
 Using SG-1 standard quadrature grid
 SCF converges when DIIS error is below 1.0E-05
 Requested basis set is G3large
 There are 50 shells and 134 basis functions
 A cutoff of  1.0D-08 yielded   1257 shell pairs
 There are   9069 function pairs ( 10810 Cartesian)
 Warning!  Inaccurate integrated density:
   Number of electrons =    18
   Numerical integral  =    16.999883480940
   Relative error      =    -5.5562028837 %
 ---------------------------------------
  Cycle       Energy         DIIS Error
 ---------------------------------------
    1     -79.4873367507      3.43E-02
    2     -79.0001315154      6.09E-03
    3     -79.0668449703      4.22E-03
    4     -79.1076655182      3.82E-04
    5     -79.1088415467      1.32E-04
    6     -79.1090582313      5.15E-05
    7     -79.1091075488      1.98E-05
    8     -79.1091169677      6.10E-06 Convergence criterion met
 ---------------------------------------
 One-Electron    Energy =  -182.2461641098
 Total Coulomb   Energy =    79.1178095989
 Alpha Exchange  Energy =    -2.5573614512
 Beta  Exchange  Energy =    -2.5573614512
 DFT   Exchange  Energy =    -7.1746686582
 DFT Correlation Energy =    -0.5559790015
 Nuclear Repu.   Energy =    36.8646081054
 Nuclear Attr.   Energy =  -260.9495916351
 Kinetic         Energy =    78.7034275253
 SCF time:  CPU 31.76 s  wall 36.71 s
 Final Alpha MO Eigenvalues
            1           2           3           4           5           6
    1 -10.0406372  -9.9562731  -0.7403162  -0.5471283  -0.3775122  -0.3476493
            7           8           9          10          11          12
    1  -0.2914354  -0.2600695  -0.0142931   0.1687990   0.1888317   0.1904047
           13          14
    1   0.1986360   0.2156705
 Analysis of SCF Wavefunction
 
 --------------------------------------------------------------
                    Orbital Energies (a.u.)
 --------------------------------------------------------------
 
 Alpha MOs
 -- Occupied --
-10.041  -9.956  -0.740  -0.547  -0.378  -0.348  -0.291  -0.260
 -0.014
 -- Virtual --
  0.169   0.189   0.190   0.199   0.216   0.283   0.305   0.307
  0.317   0.338   0.349   0.364   0.375   0.444   0.449   0.479
  0.517   0.530   0.621   0.729   0.749   0.780   0.808   0.856
  0.875   0.886   0.931   0.953   0.954   0.961   0.979   0.993
  1.024   1.114   1.134   1.210   1.240   1.315   1.352   1.380
  1.398   1.470   1.476   1.543   1.596   1.619   1.633   1.714
  1.731   1.754   1.800   1.814   1.840   1.859   1.924   1.988
  1.989   2.780   2.850   2.936   2.955   3.057   3.192   3.218
  3.280   3.291   3.346   3.436   3.452   3.484   3.543   3.546
  3.555   3.577   3.676   3.679   3.728   3.799   3.811   3.913
  3.924   3.998   4.011   4.132   4.161   4.266   4.281   4.407
  4.468   4.477   4.560   4.604   4.654   4.659   4.716   4.760
  4.789   4.869   4.977   5.017   5.117   5.452   5.638   5.971
  6.033   6.090   6.102  24.465  24.729  27.782  28.142  28.459
 28.480  28.593  28.817  41.343  41.355  41.447  41.539  41.571
 41.597  41.616  41.633  41.646  41.736
 --------------------------------------------------------------
 
          Ground-State Mulliken Net Atomic Charges

     Atom                 Charge (a.u.)
  ----------------------------------------
      1 C                     0.007227
      2 C                    -1.123605
      3 H                    -0.007203
      4 H                     0.014372
      5 H                     0.014339
      6 H                     0.047463
      7 H                     0.047406
  ----------------------------------------
  Sum of atomic charges =    -1.000000

 -----------------------------------------------------------------
                    Cartesian Multipole Moments
 -----------------------------------------------------------------
    Charge (ESU x 10^10)
                -4.8032
    Dipole Moment (Debye)
         X       0.3640      Y       0.0002      Z      -6.7134
       Tot       6.7233
    Quadrupole Moments (Debye-Ang)
        XX     -24.7083     XY       0.0073     YY     -18.4433
        XZ       1.4560     YZ      -0.0016     ZZ     -32.1432
    Octapole Moments (Debye-Ang^2)
       XXX       1.4267    XXY      -0.0018    XYY      -0.2184
       YYY       0.0039    XXZ     -27.1309    XYZ       0.0208
       YYZ     -15.9003    XZZ       2.3241    YZZ      -0.0023
       ZZZ     -69.1145
    Hexadecapole Moments (Debye-Ang^3)
      XXXX     -71.0375   XXXY       0.0453   XXYY     -19.4909
      XYYY       0.0468   YYYY     -44.5010   XXXZ       4.3725
      XXYZ      -0.0034   XYYZ       0.9611   YYYZ      -0.0064
      XXZZ     -68.8934   XYZZ       0.0494   YYZZ     -42.3933
      XZZZ       7.7932   YZZZ      -0.0115   ZZZZ    -245.9797
 -----------------------------------------------------------------
 Total job time:  36.85s(wall), 31.90s(cpu) 
 Mon Jun  3 17:05:57 2013

        *************************************************************
        *                                                           *
        *  Thank you very much for using Q-Chem.  Have a nice day.  *
        *                                                           *
        *************************************************************


0 sent ACK to 0 
now end server 0 ... 
 
**********************************************************************
Job 2 of 3 
**********************************************************************
 
Process 0 of 1 is on cl158.stfx.acenet.ca - thread support 1
initial socket setup ...start
initial socket setup ...done 
now start server 0 ... 

cmd = /usr/bin/ssh clhead /usr/local/qchem/bin/get_hostid 525898224 > /scratch/tmp/6027845.1.medium.q/qchem1590/lic.dat
                  Welcome to Q-Chem
     A Quantum Leap Into The Future Of Chemistry

 Y. Shao, L. Fusti-Molnar, Y. Jung, J. Kussmann, C. Ochsenfeld,
 S. T. Brown, A. T. B. Gilbert, L. V. Slipchenko,S. V. Levchenko,
 D. P. O'Neill, R. A. DiStasio Jr., R. C. Lochan, T. Wang,
 G. J. O. Beran, N. A. Besley, J. M. Herbert, C. Y. Lin,
 T. Van Voorhis, S. H. Chien, A. Sodt, R. P. Steele, 
 V. A. Rassolov, P. E. Maslen, P. P. Korambath, R. D. Adamson,
 B. Austin, J. Baker, E. F. C. Byrd, H. Dachsel, R. J. Doerksen,
 A. Dreuw, B. D. Dunietz, A. D. Dutoi, T. R. Furlani,
 S. R. Gwaltney, A. Heyden, S. Hirata, C.-P. Hsu, G. Kedziora,
 R. Z. Khaliullin, P. Klunzinger, A. M. Lee, M. S. Lee, W. Liang,
 I. Lotan, N. Nair, B. Peters, E. I. Proynov, P. A. Pieniazek, 
 Y. M. Rhee, J. Ritchie, E. Rosta, C. D. Sherrill, 
 A. C. Simmonett, J. E. Subotnik, H. L. Woodcock III,
 W. Zhang, A. T. Bell, A. K. Chakraborty, D. M. Chipman,
 F. J. Keil, A. Warshel, W. J. Hehre, H. F. Schaefer III,
 J. Kong, A. I. Krylov, P. M. W. Gill, M. Head-Gordon,
 Q-Chem, Version 3.1, Q-Chem, Inc., Pittsburgh, PA (2007).

 Additional authors for Version 3.1: 
 Z. Gan, Y. Zhao, N. E. Schultz, D. Truhlar, E. Epifanovsky and M. Oana.

 Additional authors for Version 3.2: 
 R. Baer, B. R. Brooks, D. Casanova, J.-D. Chai, C.-L. Cheng, 
 C. Cramer, D. Crittenden, A. Ghysels, G. Hawkins, E. G. Hohenstein, 
 C. Kelley, W. Kurlancheek, D. Liotard, E. Livshits, P. Manohar, 
 A. Marenich, D. Neuhauser, R. Olson, M. A. Rohrdanz, K. S. Thanthiriwatte, 
 A. J. W. Thom, V. Vanovschi, C. F. Williams, Q. Wu and Z.-Q. You. 


 Intel X86 Linux Version

 Q-chem begins on Mon Jun  3 17:05:59 2013  

 Parallel job on  1  processors
Processing $rem in /usr/local/qchem/config/preferences.

theFileMan(): MAXOPENFILES=974 MAX_SUB_FILE_NUM=16
Maximum size of a physical file is 2.0 GB, maximum size of a tmp-file is 32.0 GB


--------------------------------------------------------------
User input:
--------------------------------------------------------------

$molecule
0,2
C
C,1,RCC
H,1,R1,2,A1
X,1,1.,2,X1,3,180.,0
H,1,R2,4,A2,2,90.,0
H,1,R2,4,A2,2,-90.,0
X,2,1.,1,X2,3,0.,0
H,2,R3,7,A3,1,90.,0
H,2,R3,7,A3,1,-90.,0

RCC=1.48936945
R1=1.10529134
R2=1.09701109
R3=1.08546443
A1=112.13113048
X1=129.25454486
A2=54.01302883
X2=171.53419822
A3=58.6932455

$end

$comment
neutral
$end

$xc_functional
C PBE   1.00
X wPBE  1.00
$end


$rem
SYMMETRY_DECOMPOSITION	0
LRC_DFT                 true
exchange 		general
BASIS                   g3large
omega			700
mem_static              760
max_scf_cycles          200
scf_final_print         1
sym_ignore              true
$end

--------------------------------------------------------------
 Writing REM_CC_EA            7
 ----------------------------------------------------
       Standard Nuclear Orientation (Angstroms)
    I     Atom         X            Y            Z
 ----------------------------------------------------
    1      C       0.000000     0.000000     0.000000
    2      C       0.000000     0.000000     1.489369
    3      H       1.023858     0.000000    -0.416394
    4      H      -0.499145    -0.887647    -0.407885
    5      H      -0.499145     0.887647    -0.407885
    6      H       0.083036    -0.927418     2.047253
    7      H       0.083036     0.927418     2.047253
 ----------------------------------------------------
 Nuclear Repulsion Energy =    36.8646081075 hartrees
 There are        9 alpha and        8 beta electrons
 Requested basis set is G3large
 There are 50 shells and 134 basis functions

Total QAlloc Memory Limit   2000 MB
Mega-Array Size       743 MB
MEM_STATIC part       760 MB

                       Distance Matrix (Angstroms)
             C (  1)   C (  2)   H (  3)   H (  4)   H (  5)   H (  6)
   C (  2)  1.489369
   H (  3)  1.105291  2.163381
   H (  4)  1.097011  2.153285  1.762818
   H (  5)  1.097011  2.153285  1.762818  1.775294
   H (  6)  2.249054  1.085464  2.795497  2.523532  3.108230
   H (  7)  2.249054  1.085464  2.795497  3.108230  2.523532  1.854836

 
 A cutoff of  1.0D-08 yielded   1257 shell pairs
 There are   9069 function pairs ( 10810 Cartesian)
Evaluating contribution to one-electron hamiltonian from nuclear
 Smallest overlap matrix eigenvalue = 1.56E-04
 Multipole matrices computed through 2nd order

  Scale SEOQF with 1.000000e-01/1.000000e-01/1.000000e-01

 Standard Electronic Orientation quadrupole field applied
 Nucleus-field energy     =    -0.0000000021 hartrees
 Guess from superposition of atomic densities
 Warning:  Energy on first SCF cycle will be non-variational
 Long-range K will be added via erf
 Coulomb attenuation parameter = 0.7 bohr**(-1)
 An unrestricted Kohn-Sham SCF calculation will be
 performed using Pulay DIIS extrapolation
 Exchange:  wPBE + LR-HF      Correlation:  PBE
 Using SG-1 standard quadrature grid
 SCF converges when DIIS error is below 1.0E-05
 Requested basis set is G3large
 There are 50 shells and 134 basis functions
 A cutoff of  1.0D-08 yielded   1257 shell pairs
 There are   9069 function pairs ( 10810 Cartesian)
 ---------------------------------------
  Cycle       Energy         DIIS Error
 ---------------------------------------
    1     -79.4873367507      3.43E-02
    2     -79.1003012002      2.78E-03
    3     -79.1348591068      9.50E-04
    4     -79.1405296516      4.19E-04
    5     -79.1423082635      1.31E-04
    6     -79.1427729089      5.02E-05
    7     -79.1428498777      1.97E-05
    8     -79.1428614879      6.47E-06 Convergence criterion met
 ---------------------------------------
 One-Electron    Energy =  -177.9920767187
 Total Coulomb   Energy =    74.6465745046
 Alpha Exchange  Energy =    -2.6207910231
 Beta  Exchange  Energy =    -2.3495950593
 DFT   Exchange  Energy =    -7.1684687513
 DFT Correlation Energy =    -0.5231125454
 Nuclear Repu.   Energy =    36.8646081054
 Nuclear Attr.   Energy =  -256.6390830148
 Kinetic         Energy =    78.6470062961
 <S^2> = 0.7573
 SCF time:  CPU 38.58 s  wall 44.76 s
 Final Alpha MO Eigenvalues
            1           2           3           4           5           6
    1 -10.2672956 -10.2570963  -0.9988849  -0.8230388  -0.6254590  -0.5852594
            7           8           9          10          11          12
    1  -0.5538678  -0.5136455  -0.3608747   0.0434497   0.0599912   0.0640165
           13          14
    1   0.0738724   0.0933031
 Final Beta MO Eigenvalues
            1           2           3           4           5           6
    1 -10.2582846 -10.2529454  -0.9734525  -0.7848724  -0.6181091  -0.5578112
            7           8           9          10          11          12
    1  -0.5447610  -0.5088328   0.0440690   0.0604297   0.0628983   0.0642833
           13
    1   0.0776138
 Analysis of SCF Wavefunction
 
 --------------------------------------------------------------
                    Orbital Energies (a.u.)
 --------------------------------------------------------------
 
 Alpha MOs
 -- Occupied --
-10.267 -10.257  -0.999  -0.823  -0.625  -0.585  -0.554  -0.514
 -0.361
 -- Virtual --
  0.043   0.060   0.064   0.074   0.093   0.140   0.146   0.151
  0.157   0.179   0.192   0.203   0.208   0.257   0.264   0.287
  0.319   0.362   0.403   0.528   0.548   0.560   0.597   0.619
  0.644   0.678   0.682   0.696   0.715   0.732   0.739   0.769
  0.793   0.901   0.916   0.995   1.002   1.076   1.112   1.144
  1.154   1.244   1.269   1.314   1.360   1.383   1.404   1.481
  1.494   1.531   1.580   1.585   1.602   1.630   1.693   1.748
  1.760   2.541   2.621   2.684   2.725   2.786   2.890   2.927
  3.012   3.028   3.112   3.156   3.163   3.213   3.261   3.280
  3.309   3.322   3.406   3.423   3.461   3.536   3.555   3.634
  3.639   3.745   3.757   3.878   3.913   4.034   4.044   4.166
  4.210   4.217   4.320   4.338   4.394   4.400   4.468   4.506
  4.566   4.627   4.736   4.768   4.867   5.185   5.383   5.715
  5.770   5.856   5.869  24.192  24.474  27.457  27.887  28.242
 28.255  28.296  28.548  41.069  41.134  41.151  41.270  41.299
 41.311  41.354  41.384  41.426  41.437
 
 Beta MOs
 -- Occupied --
-10.258 -10.253  -0.973  -0.785  -0.618  -0.558  -0.545  -0.509
 -- Virtual --
  0.044   0.060   0.063   0.064   0.078   0.094   0.140   0.152
  0.158   0.173   0.192   0.194   0.204   0.213   0.265   0.267
  0.297   0.323   0.364   0.413   0.530   0.555   0.566   0.601
  0.648   0.665   0.685   0.720   0.722   0.743   0.747   0.749
  0.781   0.807   0.905   0.918   1.005   1.011   1.080   1.122
  1.152   1.174   1.249   1.271   1.327   1.367   1.397   1.413
  1.488   1.507   1.538   1.584   1.591   1.605   1.635   1.703
  1.755   1.764   2.552   2.627   2.688   2.731   2.800   2.940
  2.963   3.033   3.036   3.120   3.181   3.191   3.236   3.284
  3.300   3.322   3.337   3.433   3.437   3.466   3.555   3.572
  3.668   3.676   3.762   3.766   3.881   3.920   4.038   4.050
  4.170   4.217   4.225   4.325   4.347   4.398   4.412   4.474
  4.517   4.570   4.634   4.741   4.781   4.878   5.188   5.392
  5.722   5.775   5.858   5.874  24.202  24.479  27.493  27.890
 28.241  28.257  28.303  28.553  41.087  41.136  41.163  41.273
 41.324  41.335  41.353  41.384  41.426  41.440
 --------------------------------------------------------------
 
          Ground-State Mulliken Net Atomic Charges

     Atom                 Charge (a.u.)    Spin (a.u.)
  --------------------------------------------------------
      1 C                    -0.166019      -0.100933
      2 C                    -0.185735       1.116078
      3 H                     0.063039       0.059609
      4 H                     0.067768       0.013755
      5 H                     0.067833       0.014015
      6 H                     0.076595      -0.051234
      7 H                     0.076520      -0.051291
  --------------------------------------------------------
  Sum of atomic charges =     0.000000
  Sum of spin   charges =     1.000000

 -----------------------------------------------------------------
                    Cartesian Multipole Moments
 -----------------------------------------------------------------
    Charge (ESU x 10^10)
                 0.0000
    Dipole Moment (Debye)
         X       0.1420      Y       0.0000      Z      -0.2344
       Tot       0.2741
    Quadrupole Moments (Debye-Ang)
        XX     -15.0322     XY      -0.0013     YY     -13.3270
        XZ       0.3068     YZ      -0.0002     ZZ     -14.3688
    Octapole Moments (Debye-Ang^2)
       XXX       0.3495    XXY      -0.0001    XYY      -0.6684
       YYY      -0.0002    XXZ     -12.2089    XYZ      -0.0026
       YYZ      -8.6823    XZZ       0.5168    YZZ      -0.0003
       ZZZ     -29.5841
    Hexadecapole Moments (Debye-Ang^3)
      XXXX     -23.6026   XXXY      -0.0022   XXYY      -8.9306
      XYYY      -0.0028   YYYY     -27.4917   XXXZ      -0.8091
      XXYZ      -0.0005   XYYZ       0.5365   YYYZ      -0.0007
      XXZZ     -28.4749   XYZZ      -0.0059   YYZZ     -21.8490
      XZZZ       0.8878   YZZZ      -0.0008   ZZZZ    -126.3410
 -----------------------------------------------------------------
 Total job time:  44.89s(wall), 38.71s(cpu) 
 Mon Jun  3 17:06:44 2013

        *************************************************************
        *                                                           *
        *  Thank you very much for using Q-Chem.  Have a nice day.  *
        *                                                           *
        *************************************************************


0 sent ACK to 0 
now end server 0 ... 
 
**********************************************************************
Job 3 of 3 
**********************************************************************
 
Process 0 of 1 is on cl158.stfx.acenet.ca - thread support 1
initial socket setup ...start
initial socket setup ...done 
now start server 0 ... 

cmd = /usr/bin/ssh clhead /usr/local/qchem/bin/get_hostid 188540733 > /scratch/tmp/6027845.1.medium.q/qchem1590/lic.dat
                  Welcome to Q-Chem
     A Quantum Leap Into The Future Of Chemistry

 Y. Shao, L. Fusti-Molnar, Y. Jung, J. Kussmann, C. Ochsenfeld,
 S. T. Brown, A. T. B. Gilbert, L. V. Slipchenko,S. V. Levchenko,
 D. P. O'Neill, R. A. DiStasio Jr., R. C. Lochan, T. Wang,
 G. J. O. Beran, N. A. Besley, J. M. Herbert, C. Y. Lin,
 T. Van Voorhis, S. H. Chien, A. Sodt, R. P. Steele, 
 V. A. Rassolov, P. E. Maslen, P. P. Korambath, R. D. Adamson,
 B. Austin, J. Baker, E. F. C. Byrd, H. Dachsel, R. J. Doerksen,
 A. Dreuw, B. D. Dunietz, A. D. Dutoi, T. R. Furlani,
 S. R. Gwaltney, A. Heyden, S. Hirata, C.-P. Hsu, G. Kedziora,
 R. Z. Khaliullin, P. Klunzinger, A. M. Lee, M. S. Lee, W. Liang,
 I. Lotan, N. Nair, B. Peters, E. I. Proynov, P. A. Pieniazek, 
 Y. M. Rhee, J. Ritchie, E. Rosta, C. D. Sherrill, 
 A. C. Simmonett, J. E. Subotnik, H. L. Woodcock III,
 W. Zhang, A. T. Bell, A. K. Chakraborty, D. M. Chipman,
 F. J. Keil, A. Warshel, W. J. Hehre, H. F. Schaefer III,
 J. Kong, A. I. Krylov, P. M. W. Gill, M. Head-Gordon,
 Q-Chem, Version 3.1, Q-Chem, Inc., Pittsburgh, PA (2007).

 Additional authors for Version 3.1: 
 Z. Gan, Y. Zhao, N. E. Schultz, D. Truhlar, E. Epifanovsky and M. Oana.

 Additional authors for Version 3.2: 
 R. Baer, B. R. Brooks, D. Casanova, J.-D. Chai, C.-L. Cheng, 
 C. Cramer, D. Crittenden, A. Ghysels, G. Hawkins, E. G. Hohenstein, 
 C. Kelley, W. Kurlancheek, D. Liotard, E. Livshits, P. Manohar, 
 A. Marenich, D. Neuhauser, R. Olson, M. A. Rohrdanz, K. S. Thanthiriwatte, 
 A. J. W. Thom, V. Vanovschi, C. F. Williams, Q. Wu and Z.-Q. You. 


 Intel X86 Linux Version

 Q-chem begins on Mon Jun  3 17:06:47 2013  

 Parallel job on  1  processors
Processing $rem in /usr/local/qchem/config/preferences.

theFileMan(): MAXOPENFILES=974 MAX_SUB_FILE_NUM=16
Maximum size of a physical file is 2.0 GB, maximum size of a tmp-file is 32.0 GB


--------------------------------------------------------------
User input:
--------------------------------------------------------------

$molecule
1,1
C
C,1,RCC
H,1,R1,2,A1
X,1,1.,2,X1,3,180.,0
H,1,R2,4,A2,2,90.,0
H,1,R2,4,A2,2,-90.,0
X,2,1.,1,X2,3,0.,0
H,2,R3,7,A3,1,90.,0
H,2,R3,7,A3,1,-90.,0

RCC=1.48936945
R1=1.10529134
R2=1.09701109
R3=1.08546443
A1=112.13113048
X1=129.25454486
A2=54.01302883
X2=171.53419822
A3=58.6932455

$end

$comment
positive
$end

$xc_functional
C PBE   1.00
X wPBE  1.00
$end

$rem
SYMMETRY_DECOMPOSITION	0
LRC_DFT                 true
exchange 		general
BASIS                   g3large
omega			700
mem_static              760
max_scf_cycles          200
scf_final_print         1
sym_ignore              true
$end

--------------------------------------------------------------
 Writing REM_CC_EA            7
 ----------------------------------------------------
       Standard Nuclear Orientation (Angstroms)
    I     Atom         X            Y            Z
 ----------------------------------------------------
    1      C       0.000000     0.000000     0.000000
    2      C       0.000000     0.000000     1.489369
    3      H       1.023858     0.000000    -0.416394
    4      H      -0.499145    -0.887647    -0.407885
    5      H      -0.499145     0.887647    -0.407885
    6      H       0.083036    -0.927418     2.047253
    7      H       0.083036     0.927418     2.047253
 ----------------------------------------------------
 Nuclear Repulsion Energy =    36.8646081075 hartrees
 There are        8 alpha and        8 beta electrons
 Requested basis set is G3large
 There are 50 shells and 134 basis functions

Total QAlloc Memory Limit   2000 MB
Mega-Array Size       743 MB
MEM_STATIC part       760 MB

                       Distance Matrix (Angstroms)
             C (  1)   C (  2)   H (  3)   H (  4)   H (  5)   H (  6)
   C (  2)  1.489369
   H (  3)  1.105291  2.163381
   H (  4)  1.097011  2.153285  1.762818
   H (  5)  1.097011  2.153285  1.762818  1.775294
   H (  6)  2.249054  1.085464  2.795497  2.523532  3.108230
   H (  7)  2.249054  1.085464  2.795497  3.108230  2.523532  1.854836

 
 A cutoff of  1.0D-08 yielded   1257 shell pairs
 There are   9069 function pairs ( 10810 Cartesian)
Evaluating contribution to one-electron hamiltonian from nuclear
 Smallest overlap matrix eigenvalue = 1.56E-04
 Multipole matrices computed through 2nd order

  Scale SEOQF with 1.000000e-01/1.000000e-01/1.000000e-01

 Standard Electronic Orientation quadrupole field applied
 Nucleus-field energy     =    -0.0000000021 hartrees
 Guess from superposition of atomic densities
 Warning:  Energy on first SCF cycle will be non-variational
 Long-range K will be added via erf
 Coulomb attenuation parameter = 0.7 bohr**(-1)
 A restricted Kohn-Sham SCF calculation will be
 performed using Pulay DIIS extrapolation
 Exchange:  wPBE + LR-HF      Correlation:  PBE
 Using SG-1 standard quadrature grid
 SCF converges when DIIS error is below 1.0E-05
 Requested basis set is G3large
 There are 50 shells and 134 basis functions
 A cutoff of  1.0D-08 yielded   1257 shell pairs
 There are   9069 function pairs ( 10810 Cartesian)
 Warning!  Inaccurate integrated density:
   Number of electrons =    16
   Numerical integral  =    16.999883480940
   Relative error      =     6.2492717559 %
 ---------------------------------------
  Cycle       Energy         DIIS Error
 ---------------------------------------
    1     -79.4873367507      3.43E-02
    2     -78.7371647820      4.29E-03
    3     -78.8001320480      1.89E-03
    4     -78.8111802883      6.26E-04
    5     -78.8141962764      2.55E-04
    6     -78.8149556995      1.23E-04
    7     -78.8151603293      3.42E-05
    8     -78.8151744302      8.42E-06 Convergence criterion met
 ---------------------------------------
 One-Electron    Energy =  -172.8225704724
 Total Coulomb   Energy =    69.4593165516
 Alpha Exchange  Energy =    -2.3680480423
 Beta  Exchange  Energy =    -2.3680480423
 DFT   Exchange  Energy =    -7.0879411135
 DFT Correlation Energy =    -0.4924914167
 Nuclear Repu.   Energy =    36.8646081054
 Nuclear Attr.   Energy =  -251.1043631288
 Kinetic         Energy =    78.2817926565
 SCF time:  CPU 31.64 s  wall 36.84 s
 Final Alpha MO Eigenvalues
            1           2           3           4           5           6
    1 -10.6770991 -10.5234298  -1.2940257  -1.1094346  -0.9401242  -0.8609692
            7           8           9          10          11          12
    1  -0.8277016  -0.7880325  -0.2898269  -0.1140879  -0.0845939  -0.0813590
           13
    1  -0.0699728
 Analysis of SCF Wavefunction
 
 --------------------------------------------------------------
                    Orbital Energies (a.u.)
 --------------------------------------------------------------
 
 Alpha MOs
 -- Occupied --
-10.677 -10.523  -1.294  -1.109  -0.940  -0.861  -0.828  -0.788
 -- Virtual --
 -0.290  -0.114  -0.085  -0.081  -0.070  -0.039  -0.032  -0.022
 -0.011  -0.010   0.021   0.027   0.037   0.043   0.051   0.057
  0.089   0.115   0.145   0.193   0.307   0.317   0.336   0.365
  0.378   0.405   0.428   0.430   0.446   0.485   0.487   0.489
  0.524   0.575   0.664   0.672   0.735   0.761   0.822   0.851
  0.882   0.892   0.989   1.034   1.074   1.102   1.127   1.159
  1.221   1.236   1.281   1.309   1.321   1.357   1.379   1.421
  1.505   1.505   2.264   2.355   2.389   2.467   2.484   2.551
  2.624   2.716   2.719   2.814   2.828   2.875   2.908   2.947
  2.970   3.021   3.031   3.111   3.111   3.179   3.244   3.260
  3.318   3.335   3.465   3.471   3.584   3.621   3.763   3.763
  3.884   3.908   3.917   4.019   4.039   4.088   4.096   4.195
  4.222   4.308   4.351   4.461   4.485   4.575   4.872   5.085
  5.410   5.442   5.597   5.600  23.821  24.175  27.054  27.550
 27.876  27.974  28.004  28.212  40.681  40.755  40.875  40.889
 40.902  40.963  41.022  41.091  41.116  41.163
 --------------------------------------------------------------
 
          Ground-State Mulliken Net Atomic Charges

     Atom                 Charge (a.u.)
  ----------------------------------------
      1 C                    -0.143332
      2 C                     0.347506
      3 H                     0.168966
      4 H                     0.138734
      5 H                     0.138850
      6 H                     0.174647
      7 H                     0.174628
  ----------------------------------------
  Sum of atomic charges =     1.000000

 -----------------------------------------------------------------
                    Cartesian Multipole Moments
 -----------------------------------------------------------------
    Charge (ESU x 10^10)
                 4.8032
    Dipole Moment (Debye)
         X       0.2574      Y       0.0003      Z       5.0280
       Tot       5.0346
    Quadrupole Moments (Debye-Ang)
        XX     -10.4916     XY      -0.0007     YY      -9.6756
        XZ      -0.0112     YZ      -0.0004     ZZ      -0.7668
    Octapole Moments (Debye-Ang^2)
       XXX       0.9745    XXY      -0.0001    XYY      -0.9255
       YYY       0.0005    XXZ      -8.0331    XYZ      -0.0002
       YYZ      -4.7192    XZZ       0.3823    YZZ      -0.0001
       ZZZ      -3.9455
    Hexadecapole Moments (Debye-Ang^3)
      XXXX     -14.2023   XXXY      -0.0007   XXYY      -6.1103
      XYYY      -0.0008   YYYY     -18.8266   XXXZ      -1.6744
      XXYZ      -0.0002   XYYZ       0.9786   YYYZ      -0.0007
      XXZZ     -17.0856   XYZZ      -0.0015   YYZZ     -10.5562
      XZZZ       0.3403   YZZZ      -0.0008   ZZZZ     -61.3211
 -----------------------------------------------------------------
 Total job time:  36.97s(wall), 31.76s(cpu) 
 Mon Jun  3 17:07:24 2013

        *************************************************************
        *                                                           *
        *  Thank you very much for using Q-Chem.  Have a nice day.  *
        *                                                           *
        *************************************************************


0 sent ACK to 0 
now end server 0 ... 
