Process 0 of 1 is on cl234.stfx.acenet.ca - thread support 1
initial socket setup ...start
initial socket setup ...done 
now start server 0 ... 

cmd = /usr/bin/ssh clhead /usr/local/qchem/bin/get_hostid 62509493 > /globalscratch/itamblyn/bnl/g297_b3lyp_neut_g03Large_worked/g2g71062/omega520/qchem22485/lic.dat
                  Welcome to Q-Chem
     A Quantum Leap Into The Future Of Chemistry

 Y. Shao, L. Fusti-Molnar, Y. Jung, J. Kussmann, C. Ochsenfeld,
 S. T. Brown, A. T. B. Gilbert, L. V. Slipchenko,S. V. Levchenko,
 D. P. O'Neill, R. A. DiStasio Jr., R. C. Lochan, T. Wang,
 G. J. O. Beran, N. A. Besley, J. M. Herbert, C. Y. Lin,
 T. Van Voorhis, S. H. Chien, A. Sodt, R. P. Steele, 
 V. A. Rassolov, P. E. Maslen, P. P. Korambath, R. D. Adamson,
 B. Austin, J. Baker, E. F. C. Byrd, H. Dachsel, R. J. Doerksen,
 A. Dreuw, B. D. Dunietz, A. D. Dutoi, T. R. Furlani,
 S. R. Gwaltney, A. Heyden, S. Hirata, C.-P. Hsu, G. Kedziora,
 R. Z. Khaliullin, P. Klunzinger, A. M. Lee, M. S. Lee, W. Liang,
 I. Lotan, N. Nair, B. Peters, E. I. Proynov, P. A. Pieniazek, 
 Y. M. Rhee, J. Ritchie, E. Rosta, C. D. Sherrill, 
 A. C. Simmonett, J. E. Subotnik, H. L. Woodcock III,
 W. Zhang, A. T. Bell, A. K. Chakraborty, D. M. Chipman,
 F. J. Keil, A. Warshel, W. J. Hehre, H. F. Schaefer III,
 J. Kong, A. I. Krylov, P. M. W. Gill, M. Head-Gordon,
 Q-Chem, Version 3.1, Q-Chem, Inc., Pittsburgh, PA (2007).

 Additional authors for Version 3.1: 
 Z. Gan, Y. Zhao, N. E. Schultz, D. Truhlar, E. Epifanovsky and M. Oana.

 Additional authors for Version 3.2: 
 R. Baer, B. R. Brooks, D. Casanova, J.-D. Chai, C.-L. Cheng, 
 C. Cramer, D. Crittenden, A. Ghysels, G. Hawkins, E. G. Hohenstein, 
 C. Kelley, W. Kurlancheek, D. Liotard, E. Livshits, P. Manohar, 
 A. Marenich, D. Neuhauser, R. Olson, M. A. Rohrdanz, K. S. Thanthiriwatte, 
 A. J. W. Thom, V. Vanovschi, C. F. Williams, Q. Wu and Z.-Q. You. 


 Intel X86 Linux Version

 Q-chem begins on Fri Apr 15 15:35:49 2011  

 Parallel job on  1  processors
Processing $rem in /usr/local/qchem/config/preferences.

theFileMan(): MAXOPENFILES=974 MAX_SUB_FILE_NUM=16
Maximum size of a physical file is 2.0 GB, maximum size of a tmp-file is 32.0 GB


--------------------------------------------------------------
User input:
--------------------------------------------------------------

$molecule
-1,2
O
C,1,CO
F,2,CF,1,FCO
F,2,CF,1,FCO,3,180.,0

 CO=1.18026296
 CF=1.32239607
 FCO=126.07788494

$end

$comment
negative
$end

$xc_functional
   X HF 1.0
   X BNL 1.0
   C LYP 1.0
$end

$rem
SYMMETRY_DECOMPOSITION	0
exchange 		general
BASIS                   g3large
omega			520
separate_jk		true
mem_static              760
max_scf_cycles          200
scf_final_print         1
sym_ignore              true
$end

--------------------------------------------------------------
 Writing REM_CC_EA            4
 ----------------------------------------------------
       Standard Nuclear Orientation (Angstroms)
    I     Atom         X            Y            Z
 ----------------------------------------------------
    1      O       0.000000     0.000000     0.000000
    2      C       0.000000     0.000000     1.180263
    3      F       1.068783     0.000000     1.959001
    4      F      -1.068783     0.000000     1.959001
 ----------------------------------------------------
 Nuclear Repulsion Energy =   118.9381014049 hartrees
 There are       17 alpha and       16 beta electrons
 Requested basis set is G3large
 There are 40 shells and 168 basis functions

Total QAlloc Memory Limit   2000 MB
Mega-Array Size       743 MB
MEM_STATIC part       760 MB

                       Distance Matrix (Angstroms)
             O (  1)   C (  2)   F (  3)
   C (  2)  1.180263
   F (  3)  2.231588  1.322396
   F (  4)  2.231588  1.322396  2.137567
 
 A cutoff of  1.0D-08 yielded    717 shell pairs
 There are  13072 function pairs ( 17127 Cartesian)
Evaluating contribution to one-electron hamiltonian from nuclear
 Smallest overlap matrix eigenvalue = 8.08E-04
 Multipole matrices computed through 2nd order

  Scale SEOQF with 1.000000e-01/1.000000e-01/1.000000e-01

 Standard Electronic Orientation quadrupole field applied
 Nucleus-field energy     =    -0.0000000076 hartrees
 Guess from superposition of atomic densities
 Warning:  Energy on first SCF cycle will be non-variational
 An unrestricted hybrid HF-DFT SCF calculation will be
 performed using Pulay DIIS extrapolation
 Exchange:     1.0000 Hartree-Fock + 1.0000 BNL
 Correlation:  1.0000 LYP
 Using SG-1 standard quadrature grid
 SCF converges when DIIS error is below 1.0E-05
 Warning!  Inaccurate integrated density:
   Number of electrons =    33
   Numerical integral  =    31.999945437132
   Relative error      =    -3.0304683723 %
 ---------------------------------------
  Cycle       Energy         DIIS Error
 ---------------------------------------
    1    -311.3632850160      3.75E-02
    2    -310.4054946835      7.10E-03
    3    -310.4299233230      7.20E-03
    4    -310.5424328819      6.07E-04
    5    -310.5438138595      4.27E-04
    6    -310.5444901429      1.08E-04
    7    -310.5447718192      4.50E-05
    8    -310.5449677853      2.73E-05
    9    -310.5450879835      1.83E-05
   10    -310.5451601581      1.48E-05
   11    -310.5451986716      1.18E-05
   12    -310.5452188748      1.10E-05
   13    -310.5452385698      1.18E-05
   14    -310.5452049035      1.20E-05
   15    -310.5451473357      1.15E-05
   16    -310.5451204729      8.82E-06 Convergence criterion met
 ---------------------------------------
 One-Electron    Energy =  -677.9868905350
 Total Coulomb   Energy =   281.1801383138
 Alpha Exchange  Energy =    -4.3787459684
 Beta  Exchange  Energy =    -4.1263361188
 DFT   Exchange  Energy =   -22.9511757105
 DFT Correlation Energy =    -1.2202118513
 Nuclear Repu.   Energy =   118.9381013973
 Nuclear Attr.   Energy =  -988.1335082035
 Kinetic         Energy =   310.1466176685
 <S^2> = 0.7539
 SCF time:  CPU 105.22 s  wall 142.25 s
 Final Alpha MO Eigenvalues
            1           2           3           4           5           6
    1 -24.1185107 -24.1184988 -18.5538605  -9.9135876  -1.2140328  -1.1410357
            7           8           9          10          11          12
    1  -0.9557682  -0.5797396  -0.5021542  -0.4676581  -0.4268941  -0.3767836
           13          14          15          16          17          18
    1  -0.3461478  -0.3351587  -0.2741117  -0.2035261   0.0494320   0.2252866
           19          20          21          22
    1   0.2453958   0.2465601   0.2507029   0.4279303
 Final Beta MO Eigenvalues
            1           2           3           4           5           6
    1 -24.1164619 -24.1164483 -18.5464610  -9.8978393  -1.2062041  -1.1367376
            7           8           9          10          11          12
    1  -0.9419221  -0.5641539  -0.4970233  -0.4384763  -0.4201308  -0.3596118
           13          14          15          16          17          18
    1  -0.3446762  -0.3233401  -0.2173478  -0.1967954   0.2251385   0.2442278
           19          20          21
    1   0.2459756   0.2469428   0.4273118
 Analysis of SCF Wavefunction
 
 --------------------------------------------------------------
                    Orbital Energies (a.u.)
 --------------------------------------------------------------
 
 Alpha MOs
 -- Occupied --
-24.119 -24.118 -18.554  -9.914  -1.214  -1.141  -0.956  -0.580
 -0.502  -0.468  -0.427  -0.377  -0.346  -0.335  -0.274  -0.204
  0.049
 -- Virtual --
  0.225   0.245   0.247   0.251   0.428   0.431   0.471   0.471
  0.497   0.498   0.532   0.546   0.549   0.566   0.600   0.618
  0.639   0.731   0.889   0.901   0.998   1.024   1.106   1.110
  1.186   1.346   1.386   1.417   1.438   1.555   1.613   1.634
  1.640   1.687   1.739   1.752   1.804   1.968   1.987   2.088
  2.161   2.174   2.294   2.311   2.345   2.452   2.512   2.561
  2.749   2.814   2.850   2.927   3.096   3.115   3.162   3.342
  3.368   3.500   3.508   3.587   3.829   3.835   3.872   3.906
  3.963   3.989   4.122   4.281   4.573   4.575   5.379   5.487
  5.505   5.507   5.743   5.854   5.941   6.479   6.519   6.534
  6.549   6.626   6.764   6.875   6.984   6.987   7.000   7.001
  7.006   7.093   7.101   7.154   7.246   7.289   7.382   7.391
  7.441   7.534   7.618   7.620   7.765   7.893   7.957   8.097
  8.618   9.417   9.484   9.488   9.507   9.837   9.858   9.929
 10.157  10.222  10.438  25.279  27.662  28.337  28.629  41.172
 41.333  41.420  41.505  41.688  44.039  44.106  44.207  44.287
 44.296  46.186  46.324  47.039  50.344  50.356  50.374  50.399
 50.471  50.531  50.542  50.585  50.625  50.728  50.783  56.000
 56.005  56.020  56.109  56.446  56.578  67.204  67.254
 
 Beta MOs
 -- Occupied --
-24.116 -24.116 -18.546  -9.898  -1.206  -1.137  -0.942  -0.564
 -0.497  -0.438  -0.420  -0.360  -0.345  -0.323  -0.217  -0.197
 -- Virtual --
  0.225   0.244   0.246   0.247   0.427   0.428   0.432   0.471
  0.487   0.498   0.510   0.531   0.547   0.549   0.566   0.616
  0.631   0.641   0.744   0.896   0.935   1.011   1.028   1.123
  1.124   1.212   1.354   1.390   1.421   1.454   1.556   1.615
  1.639   1.644   1.691   1.741   1.758   1.810   1.977   2.001
  2.100   2.163   2.187   2.297   2.315   2.350   2.474   2.515
  2.570   2.758   2.822   2.861   2.934   3.135   3.149   3.168
  3.369   3.397   3.509   3.548   3.630   3.844   3.858   3.899
  3.923   3.986   4.017   4.140   4.288   4.582   4.588   5.404
  5.495   5.521   5.525   5.755   5.867   5.953   6.482   6.527
  6.537   6.557   6.645   6.767   6.879   6.988   6.991   7.005
  7.005   7.010   7.098   7.105   7.157   7.269   7.309   7.390
  7.401   7.449   7.537   7.628   7.639   7.772   7.900   7.962
  8.108   8.622   9.424   9.492   9.495   9.514   9.844   9.865
  9.931  10.159  10.225  10.441  25.300  27.691  28.347  28.639
 41.201  41.345  41.446  41.531  41.698  44.058  44.126  44.225
 44.293  44.306  46.201  46.329  47.044  50.351  50.363  50.381
 50.405  50.472  50.537  50.547  50.589  50.627  50.730  50.788
 56.005  56.010  56.021  56.111  56.447  56.579  67.206  67.257
 --------------------------------------------------------------
 
          Ground-State Mulliken Net Atomic Charges

     Atom                 Charge (a.u.)    Spin (a.u.)
  --------------------------------------------------------
      1 O                    -0.689512       0.238058
      2 C                     0.278840       0.758289
      3 F                    -0.294660       0.001838
      4 F                    -0.294668       0.001814
  --------------------------------------------------------
  Sum of atomic charges =    -1.000000
  Sum of spin   charges =     1.000000

 -----------------------------------------------------------------
                    Cartesian Multipole Moments
 -----------------------------------------------------------------
    Charge (ESU x 10^10)
                -4.8032
    Dipole Moment (Debye)
         X       0.0006      Y      -0.0142      Z      -3.5415
       Tot       3.5415
    Quadrupole Moments (Debye-Ang)
        XX     -26.5967     XY       0.0000     YY     -22.9710
        XZ       0.0007     YZ      -0.0385     ZZ     -32.6357
    Octapole Moments (Debye-Ang^2)
       XXX       0.0034    XXY       0.0031    XYY       0.0012
       YYY      -0.0987    XXZ     -34.6947    XYZ       0.0017
       YYZ     -27.0061    XZZ       0.0021    YZZ      -0.0471
       ZZZ    -103.4766
    Hexadecapole Moments (Debye-Ang^3)
      XXXX     -99.3802   XXXY       0.0041   XXYY     -19.7150
      XYYY       0.0175   YYYY     -23.4646   XXXZ       0.0044
      XXYZ      -0.0049   XYYZ       0.0016   YYYZ      -0.2129
      XXZZ     -83.4515   XYZZ       0.0009   YYZZ     -56.4232
      XZZZ       0.0057   YZZZ      -0.1319   ZZZZ    -359.7695
 -----------------------------------------------------------------
 Total job time:  144.36s(wall), 105.41s(cpu) 
 Fri Apr 15 15:38:13 2011

        *************************************************************
        *                                                           *
        *  Thank you very much for using Q-Chem.  Have a nice day.  *
        *                                                           *
        *************************************************************


0 sent ACK to 0 
now end server 0 ... 
 
**********************************************************************
Job 2 of 3 
**********************************************************************
 
Process 0 of 1 is on cl234.stfx.acenet.ca - thread support 1
initial socket setup ...start
initial socket setup ...done 
now start server 0 ... 

cmd = /usr/bin/ssh clhead /usr/local/qchem/bin/get_hostid 143523623 > /globalscratch/itamblyn/bnl/g297_b3lyp_neut_g03Large_worked/g2g71062/omega520/qchem22485/lic.dat
                  Welcome to Q-Chem
     A Quantum Leap Into The Future Of Chemistry

 Y. Shao, L. Fusti-Molnar, Y. Jung, J. Kussmann, C. Ochsenfeld,
 S. T. Brown, A. T. B. Gilbert, L. V. Slipchenko,S. V. Levchenko,
 D. P. O'Neill, R. A. DiStasio Jr., R. C. Lochan, T. Wang,
 G. J. O. Beran, N. A. Besley, J. M. Herbert, C. Y. Lin,
 T. Van Voorhis, S. H. Chien, A. Sodt, R. P. Steele, 
 V. A. Rassolov, P. E. Maslen, P. P. Korambath, R. D. Adamson,
 B. Austin, J. Baker, E. F. C. Byrd, H. Dachsel, R. J. Doerksen,
 A. Dreuw, B. D. Dunietz, A. D. Dutoi, T. R. Furlani,
 S. R. Gwaltney, A. Heyden, S. Hirata, C.-P. Hsu, G. Kedziora,
 R. Z. Khaliullin, P. Klunzinger, A. M. Lee, M. S. Lee, W. Liang,
 I. Lotan, N. Nair, B. Peters, E. I. Proynov, P. A. Pieniazek, 
 Y. M. Rhee, J. Ritchie, E. Rosta, C. D. Sherrill, 
 A. C. Simmonett, J. E. Subotnik, H. L. Woodcock III,
 W. Zhang, A. T. Bell, A. K. Chakraborty, D. M. Chipman,
 F. J. Keil, A. Warshel, W. J. Hehre, H. F. Schaefer III,
 J. Kong, A. I. Krylov, P. M. W. Gill, M. Head-Gordon,
 Q-Chem, Version 3.1, Q-Chem, Inc., Pittsburgh, PA (2007).

 Additional authors for Version 3.1: 
 Z. Gan, Y. Zhao, N. E. Schultz, D. Truhlar, E. Epifanovsky and M. Oana.

 Additional authors for Version 3.2: 
 R. Baer, B. R. Brooks, D. Casanova, J.-D. Chai, C.-L. Cheng, 
 C. Cramer, D. Crittenden, A. Ghysels, G. Hawkins, E. G. Hohenstein, 
 C. Kelley, W. Kurlancheek, D. Liotard, E. Livshits, P. Manohar, 
 A. Marenich, D. Neuhauser, R. Olson, M. A. Rohrdanz, K. S. Thanthiriwatte, 
 A. J. W. Thom, V. Vanovschi, C. F. Williams, Q. Wu and Z.-Q. You. 


 Intel X86 Linux Version

 Q-chem begins on Fri Apr 15 15:38:16 2011  

 Parallel job on  1  processors
Processing $rem in /usr/local/qchem/config/preferences.

theFileMan(): MAXOPENFILES=974 MAX_SUB_FILE_NUM=16
Maximum size of a physical file is 2.0 GB, maximum size of a tmp-file is 32.0 GB


--------------------------------------------------------------
User input:
--------------------------------------------------------------

$molecule
0,1
O
C,1,CO
F,2,CF,1,FCO
F,2,CF,1,FCO,3,180.,0

 CO=1.18026296
 CF=1.32239607
 FCO=126.07788494

$end

$comment
neutral
$end

$xc_functional
   X HF 1.0
   X BNL 1.0
   C LYP 1.0
$end

$rem
SYMMETRY_DECOMPOSITION	0
exchange 		general
BASIS                   g3large
omega			520
separate_jk		true
mem_static              760
max_scf_cycles          200
scf_final_print         1
sym_ignore              true
$end

--------------------------------------------------------------
 Writing REM_CC_EA            4
 ----------------------------------------------------
       Standard Nuclear Orientation (Angstroms)
    I     Atom         X            Y            Z
 ----------------------------------------------------
    1      O       0.000000     0.000000     0.000000
    2      C       0.000000     0.000000     1.180263
    3      F       1.068783     0.000000     1.959001
    4      F      -1.068783     0.000000     1.959001
 ----------------------------------------------------
 Nuclear Repulsion Energy =   118.9381014049 hartrees
 There are       16 alpha and       16 beta electrons
 Requested basis set is G3large
 There are 40 shells and 168 basis functions

Total QAlloc Memory Limit   2000 MB
Mega-Array Size       743 MB
MEM_STATIC part       760 MB

                       Distance Matrix (Angstroms)
             O (  1)   C (  2)   F (  3)
   C (  2)  1.180263
   F (  3)  2.231588  1.322396
   F (  4)  2.231588  1.322396  2.137567
 
 A cutoff of  1.0D-08 yielded    717 shell pairs
 There are  13072 function pairs ( 17127 Cartesian)
Evaluating contribution to one-electron hamiltonian from nuclear
 Smallest overlap matrix eigenvalue = 8.08E-04
 Multipole matrices computed through 2nd order

  Scale SEOQF with 1.000000e-01/1.000000e-01/1.000000e-01

 Standard Electronic Orientation quadrupole field applied
 Nucleus-field energy     =    -0.0000000076 hartrees
 Guess from superposition of atomic densities
 Warning:  Energy on first SCF cycle will be non-variational
 A restricted hybrid HF-DFT SCF calculation will be
 performed using Pulay DIIS extrapolation
 Exchange:     1.0000 Hartree-Fock + 1.0000 BNL
 Correlation:  1.0000 LYP
 Using SG-1 standard quadrature grid
 SCF converges when DIIS error is below 1.0E-05
 ---------------------------------------
  Cycle       Energy         DIIS Error
 ---------------------------------------
    1    -311.3632850160      3.75E-02
    2    -310.4364728990      7.96E-03
    3    -310.4264613411      9.11E-03
    4    -310.6035724416      8.88E-04
    5    -310.6052025364      4.92E-04
    6    -310.6057682078      1.27E-04
    7    -310.6058233942      3.59E-05
    8    -310.6058353312      8.68E-06 Convergence criterion met
 ---------------------------------------
 One-Electron    Energy =  -667.8948881966
 Total Coulomb   Energy =   270.6067070472
 Alpha Exchange  Energy =    -4.1444717766
 Beta  Exchange  Energy =    -4.1444717766
 DFT   Exchange  Energy =   -22.7768673086
 DFT Correlation Energy =    -1.1899447171
 Nuclear Repu.   Energy =   118.9381013973
 Nuclear Attr.   Energy =  -977.2808557911
 Kinetic         Energy =   309.3859675945
 SCF time:  CPU 42.94 s  wall 59.85 s
 Final Alpha MO Eigenvalues
            1           2           3           4           5           6
    1 -24.4240944 -24.4240261 -18.9132417 -10.3378529  -1.5227754  -1.4424711
            7           8           9          10          11          12
    1  -1.2986264  -0.8746873  -0.8052262  -0.7638711  -0.7271492  -0.6560428
           13          14          15          16          17          18
    1  -0.6473798  -0.6348681  -0.5640270  -0.5237389   0.0456674   0.0707611
           19          20          21
    1   0.0863050   0.0911377   0.0913765
 Analysis of SCF Wavefunction
 
 --------------------------------------------------------------
                    Orbital Energies (a.u.)
 --------------------------------------------------------------
 
 Alpha MOs
 -- Occupied --
-24.424 -24.424 -18.913 -10.338  -1.523  -1.442  -1.299  -0.875
 -0.805  -0.764  -0.727  -0.656  -0.647  -0.635  -0.564  -0.524
 -- Virtual --
  0.046   0.071   0.086   0.091   0.091   0.219   0.234   0.253
  0.264   0.277   0.295   0.343   0.343   0.346   0.361   0.366
  0.388   0.405   0.460   0.594   0.634   0.716   0.762   0.806
  0.813   0.895   1.061   1.121   1.143   1.154   1.288   1.353
  1.374   1.375   1.431   1.474   1.480   1.527   1.674   1.681
  1.784   1.869   1.884   2.012   2.017   2.060   2.145   2.222
  2.276   2.451   2.522   2.541   2.616   2.750   2.801   2.860
  3.008   3.041   3.169   3.205   3.241   3.495   3.510   3.540
  3.573   3.643   3.659   3.796   3.961   4.240   4.263   5.045
  5.163   5.176   5.176   5.410   5.525   5.611   6.172   6.226
  6.245   6.256   6.292   6.467   6.572   6.691   6.698   6.709
  6.712   6.718   6.792   6.804   6.853   6.914   6.955   7.068
  7.077   7.134   7.230   7.287   7.313   7.436   7.575   7.643
  7.770   8.305   9.124   9.191   9.195   9.214   9.540   9.561
  9.634   9.862   9.925  10.142  24.869  27.241  27.919  28.211
 40.749  40.913  40.998  41.083  41.268  43.685  43.753  43.851
 43.933  43.940  45.827  45.968  46.681  50.042  50.055  50.073
 50.097  50.167  50.227  50.237  50.257  50.317  50.423  50.454
 55.695  55.701  55.716  55.806  56.139  56.271  66.899  66.950
 --------------------------------------------------------------
 
          Ground-State Mulliken Net Atomic Charges

     Atom                 Charge (a.u.)
  ----------------------------------------
      1 O                    -0.292774
      2 C                     0.563039
      3 F                    -0.135140
      4 F                    -0.135125
  ----------------------------------------
  Sum of atomic charges =     0.000000

 -----------------------------------------------------------------
                    Cartesian Multipole Moments
 -----------------------------------------------------------------
    Charge (ESU x 10^10)
                 0.0000
    Dipole Moment (Debye)
         X      -0.0001      Y      -0.0001      Z       1.0730
       Tot       1.0730
    Quadrupole Moments (Debye-Ang)
        XX     -21.7060     XY       0.0004     YY     -19.1394
        XZ      -0.0001     YZ       0.0000     ZZ     -20.9134
    Octapole Moments (Debye-Ang^2)
       XXX       0.0001    XXY       0.0000    XYY       0.0001
       YYY       0.0000    XXZ     -27.3339    XYZ       0.0003
       YYZ     -23.6678    XZZ      -0.0001    YZZ       0.0000
       ZZZ     -79.6166
    Hexadecapole Moments (Debye-Ang^3)
      XXXX     -83.1596   XXXY       0.0007   XXYY     -16.1865
      XYYY       0.0003   YYYY     -13.9054   XXXZ       0.0004
      XXYZ       0.0000   XYYZ       0.0002   YYYZ       0.0000
      XXZZ     -64.9606   XYZZ       0.0010   YYZZ     -47.7779
      XZZZ       0.0002   YZZZ       0.0002   ZZZZ    -295.2280
 -----------------------------------------------------------------
 Total job time:  65.38s(wall), 43.14s(cpu) 
 Fri Apr 15 15:39:22 2011

        *************************************************************
        *                                                           *
        *  Thank you very much for using Q-Chem.  Have a nice day.  *
        *                                                           *
        *************************************************************


0 sent ACK to 0 
now end server 0 ... 
 
**********************************************************************
Job 3 of 3 
**********************************************************************
 
Process 0 of 1 is on cl234.stfx.acenet.ca - thread support 1
initial socket setup ...start
initial socket setup ...done 
now start server 0 ... 

cmd = /usr/bin/ssh clhead /usr/local/qchem/bin/get_hostid 639283491 > /globalscratch/itamblyn/bnl/g297_b3lyp_neut_g03Large_worked/g2g71062/omega520/qchem22485/lic.dat
                  Welcome to Q-Chem
     A Quantum Leap Into The Future Of Chemistry

 Y. Shao, L. Fusti-Molnar, Y. Jung, J. Kussmann, C. Ochsenfeld,
 S. T. Brown, A. T. B. Gilbert, L. V. Slipchenko,S. V. Levchenko,
 D. P. O'Neill, R. A. DiStasio Jr., R. C. Lochan, T. Wang,
 G. J. O. Beran, N. A. Besley, J. M. Herbert, C. Y. Lin,
 T. Van Voorhis, S. H. Chien, A. Sodt, R. P. Steele, 
 V. A. Rassolov, P. E. Maslen, P. P. Korambath, R. D. Adamson,
 B. Austin, J. Baker, E. F. C. Byrd, H. Dachsel, R. J. Doerksen,
 A. Dreuw, B. D. Dunietz, A. D. Dutoi, T. R. Furlani,
 S. R. Gwaltney, A. Heyden, S. Hirata, C.-P. Hsu, G. Kedziora,
 R. Z. Khaliullin, P. Klunzinger, A. M. Lee, M. S. Lee, W. Liang,
 I. Lotan, N. Nair, B. Peters, E. I. Proynov, P. A. Pieniazek, 
 Y. M. Rhee, J. Ritchie, E. Rosta, C. D. Sherrill, 
 A. C. Simmonett, J. E. Subotnik, H. L. Woodcock III,
 W. Zhang, A. T. Bell, A. K. Chakraborty, D. M. Chipman,
 F. J. Keil, A. Warshel, W. J. Hehre, H. F. Schaefer III,
 J. Kong, A. I. Krylov, P. M. W. Gill, M. Head-Gordon,
 Q-Chem, Version 3.1, Q-Chem, Inc., Pittsburgh, PA (2007).

 Additional authors for Version 3.1: 
 Z. Gan, Y. Zhao, N. E. Schultz, D. Truhlar, E. Epifanovsky and M. Oana.

 Additional authors for Version 3.2: 
 R. Baer, B. R. Brooks, D. Casanova, J.-D. Chai, C.-L. Cheng, 
 C. Cramer, D. Crittenden, A. Ghysels, G. Hawkins, E. G. Hohenstein, 
 C. Kelley, W. Kurlancheek, D. Liotard, E. Livshits, P. Manohar, 
 A. Marenich, D. Neuhauser, R. Olson, M. A. Rohrdanz, K. S. Thanthiriwatte, 
 A. J. W. Thom, V. Vanovschi, C. F. Williams, Q. Wu and Z.-Q. You. 


 Intel X86 Linux Version

 Q-chem begins on Fri Apr 15 15:39:26 2011  

 Parallel job on  1  processors
Processing $rem in /usr/local/qchem/config/preferences.

theFileMan(): MAXOPENFILES=974 MAX_SUB_FILE_NUM=16
Maximum size of a physical file is 2.0 GB, maximum size of a tmp-file is 32.0 GB


--------------------------------------------------------------
User input:
--------------------------------------------------------------

$molecule
1,2
O
C,1,CO
F,2,CF,1,FCO
F,2,CF,1,FCO,3,180.,0

 CO=1.18026296
 CF=1.32239607
 FCO=126.07788494

$end

$comment
positive
$end

$xc_functional
   X HF 1.0
   X BNL 1.0
   C LYP 1.0
$end

$rem
SYMMETRY_DECOMPOSITION	0
exchange 		general
BASIS                   g3large
omega			520
separate_jk		true
mem_static              760
max_scf_cycles          200
scf_final_print         1
sym_ignore              true
$end

--------------------------------------------------------------
 Writing REM_CC_EA            4
 ----------------------------------------------------
       Standard Nuclear Orientation (Angstroms)
    I     Atom         X            Y            Z
 ----------------------------------------------------
    1      O       0.000000     0.000000     0.000000
    2      C       0.000000     0.000000     1.180263
    3      F       1.068783     0.000000     1.959001
    4      F      -1.068783     0.000000     1.959001
 ----------------------------------------------------
 Nuclear Repulsion Energy =   118.9381014049 hartrees
 There are       16 alpha and       15 beta electrons
 Requested basis set is G3large
 There are 40 shells and 168 basis functions

Total QAlloc Memory Limit   2000 MB
Mega-Array Size       743 MB
MEM_STATIC part       760 MB

                       Distance Matrix (Angstroms)
             O (  1)   C (  2)   F (  3)
   C (  2)  1.180263
   F (  3)  2.231588  1.322396
   F (  4)  2.231588  1.322396  2.137567
 
 A cutoff of  1.0D-08 yielded    717 shell pairs
 There are  13072 function pairs ( 17127 Cartesian)
Evaluating contribution to one-electron hamiltonian from nuclear
 Smallest overlap matrix eigenvalue = 8.08E-04
 Multipole matrices computed through 2nd order

  Scale SEOQF with 1.000000e-01/1.000000e-01/1.000000e-01

 Standard Electronic Orientation quadrupole field applied
 Nucleus-field energy     =    -0.0000000076 hartrees
 Guess from superposition of atomic densities
 Warning:  Energy on first SCF cycle will be non-variational
 An unrestricted hybrid HF-DFT SCF calculation will be
 performed using Pulay DIIS extrapolation
 Exchange:     1.0000 Hartree-Fock + 1.0000 BNL
 Correlation:  1.0000 LYP
 Using SG-1 standard quadrature grid
 SCF converges when DIIS error is below 1.0E-05
 Warning!  Inaccurate integrated density:
   Number of electrons =    31
   Numerical integral  =    31.999945437132
   Relative error      =     3.2256304424 %
 ---------------------------------------
  Cycle       Energy         DIIS Error
 ---------------------------------------
    1    -311.3632850160      3.75E-02
    2    -309.8995988290      7.46E-03
    3    -309.9968747307      6.26E-03
    4    -310.0795416026      1.53E-03
    5    -310.0853218119      3.26E-04
    6    -310.0874978527      2.28E-04
    7    -310.0884345632      1.36E-04
    8    -310.0897072243      7.57E-05
    9    -310.0902475437      4.17E-05
   10    -310.0903733660      3.56E-05
   11    -310.0904551980      2.68E-05
   12    -310.0905733537      1.85E-05
   13    -310.0906513751      7.94E-06 Convergence criterion met
 ---------------------------------------
 One-Electron    Energy =  -656.9269424567
 Total Coulomb   Energy =   259.7174180548
 Alpha Exchange  Energy =    -4.1729601649
 Beta  Exchange  Energy =    -3.8951559312
 DFT   Exchange  Energy =   -22.6033515118
 DFT Correlation Energy =    -1.1477607625
 Nuclear Repu.   Energy =   118.9381013973
 Nuclear Attr.   Energy =  -965.8387348122
 Kinetic         Energy =   308.9117923555
 <S^2> = 0.7556
 SCF time:  CPU 85.19 s  wall 115.21 s
 Final Alpha MO Eigenvalues
            1           2           3           4           5           6
    1 -24.7399999 -24.7398205 -19.4019555 -10.6988533  -1.8420262  -1.7468252
            7           8           9          10          11          12
    1  -1.7339212  -1.1805073  -1.1439746  -1.1067162  -1.0923651  -0.9862886
           13          14          15          16          17          18
    1  -0.9781654  -0.9444435  -0.9434741  -0.9198682  -0.2691776  -0.1699637
           19          20          21
    1  -0.0864680  -0.0815165  -0.0777299
 Final Beta MO Eigenvalues
            1           2           3           4           5           6
    1 -24.7372696 -24.7371386 -19.3756801 -10.7009651  -1.8312973  -1.7409750
            7           8           9          10          11          12
    1  -1.6842157  -1.1672690  -1.0897575  -1.0837766  -1.0790259  -0.9588474
           13          14          15          16          17          18
    1  -0.9417870  -0.9227181  -0.9206872  -0.5086951  -0.2650888  -0.1664254
           19          20
    1  -0.0861130  -0.0769085
 Analysis of SCF Wavefunction
 
 --------------------------------------------------------------
                    Orbital Energies (a.u.)
 --------------------------------------------------------------
 
 Alpha MOs
 -- Occupied --
-24.740 -24.740 -19.402 -10.699  -1.842  -1.747  -1.734  -1.181
 -1.144  -1.107  -1.092  -0.986  -0.978  -0.944  -0.943  -0.920
 -- Virtual --
 -0.269  -0.170  -0.086  -0.082  -0.078  -0.037  -0.013   0.030
  0.047   0.058   0.079   0.093   0.111   0.154   0.154   0.173
  0.187   0.192   0.244   0.260   0.374   0.442   0.492   0.493
  0.516   0.592   0.755   0.811   0.823   0.828   1.001   1.046
  1.097   1.111   1.179   1.193   1.209   1.262   1.300   1.336
  1.405   1.532   1.581   1.687   1.745   1.779   1.829   1.936
  1.978   2.141   2.185   2.229   2.298   2.423   2.495   2.515
  2.675   2.712   2.842   2.891   2.900   3.156   3.170   3.192
  3.228   3.319   3.320   3.456   3.603   3.880   3.956   4.612
  4.664   4.725   4.732   4.999   5.100   5.175   5.805   5.891
  5.941   5.948   5.958   6.146   6.238   6.356   6.408   6.415
  6.420   6.422   6.458   6.472   6.498   6.498   6.534   6.702
  6.755   6.800   6.906   6.911   6.970   7.005   7.216   7.318
  7.376   7.974   8.824   8.889   8.893   8.914   9.236   9.260
  9.325   9.556   9.622   9.839  24.512  26.881  27.560  27.849
 40.389  40.551  40.637  40.721  40.907  43.173  43.242  43.376
 43.419  43.452  45.353  45.456  46.204  49.723  49.742  49.760
 49.782  49.820  49.849  49.911  49.923  49.998  50.095  50.106
 55.382  55.388  55.403  55.491  55.822  55.955  66.585  66.635
 
 Beta MOs
 -- Occupied --
-24.737 -24.737 -19.376 -10.701  -1.831  -1.741  -1.684  -1.167
 -1.090  -1.084  -1.079  -0.959  -0.942  -0.923  -0.921
 -- Virtual --
 -0.509  -0.265  -0.166  -0.086  -0.077  -0.076  -0.032  -0.001
  0.032   0.049   0.080   0.082   0.094   0.113   0.154   0.156
  0.175   0.187   0.193   0.244   0.271   0.373   0.448   0.497
  0.497   0.518   0.594   0.765   0.835   0.835   0.837   1.008
  1.067   1.104   1.117   1.180   1.201   1.217   1.264   1.339
  1.351   1.440   1.540   1.596   1.701   1.749   1.780   1.833
  1.938   1.984   2.149   2.199   2.231   2.301   2.420   2.496
  2.534   2.676   2.713   2.840   2.888   2.906   3.161   3.173
  3.196   3.233   3.323   3.323   3.463   3.619   3.891   3.960
  4.650   4.757   4.782   4.786   5.026   5.140   5.222   5.832
  5.905   5.945   5.954   5.962   6.159   6.252   6.390   6.411
  6.418   6.424   6.429   6.483   6.508   6.528   6.544   6.562
  6.719   6.765   6.812   6.920   6.920   7.011   7.041   7.235
  7.327   7.400   7.986   8.829   8.895   8.899   8.919   9.243
  9.265   9.335   9.565   9.629   9.846  24.509  26.879  27.558
 27.848  40.386  40.549  40.635  40.719  40.905  43.242  43.309
 43.402  43.485  43.491  45.372  45.508  46.223  49.730  49.746
 49.764  49.788  49.846  49.858  49.917  49.927  50.005  50.106
 50.114  55.384  55.390  55.406  55.495  55.826  55.959  66.588
 66.639
 --------------------------------------------------------------
 
          Ground-State Mulliken Net Atomic Charges

     Atom                 Charge (a.u.)    Spin (a.u.)
  --------------------------------------------------------
      1 O                     0.256186       0.918061
      2 C                     0.629379      -0.072979
      3 F                     0.057145       0.077080
      4 F                     0.057290       0.077838
  --------------------------------------------------------
  Sum of atomic charges =     1.000000
  Sum of spin   charges =     1.000000

 -----------------------------------------------------------------
                    Cartesian Multipole Moments
 -----------------------------------------------------------------
    Charge (ESU x 10^10)
                 4.8032
    Dipole Moment (Debye)
         X      -0.0001      Y       0.0001      Z       4.7278
       Tot       4.7278
    Quadrupole Moments (Debye-Ang)
        XX     -16.7541     XY      -0.0019     YY     -17.2986
        XZ      -0.0021     YZ       0.0002     ZZ     -11.4651
    Octapole Moments (Debye-Ang^2)
       XXX      -0.0007    XXY       0.0002    XYY      -0.0001
       YYY       0.0001    XXZ     -20.8618    XYZ       0.0011
       YYZ     -22.0406    XZZ      -0.0039    YZZ       0.0006
       ZZZ     -58.5756
    Hexadecapole Moments (Debye-Ang^3)
      XXXX     -71.2139   XXXY      -0.0002   XXYY     -14.1942
      XYYY      -0.0009   YYYY     -11.0864   XXXZ      -0.0028
      XXYZ       0.0004   XYYZ      -0.0006   YYYZ       0.0002
      XXZZ     -49.2583   XYZZ       0.0029   YYZZ     -43.7324
      XZZZ      -0.0109   YZZZ       0.0016   ZZZZ    -238.5090
 -----------------------------------------------------------------
 Total job time:  119.27s(wall), 85.39s(cpu) 
 Fri Apr 15 15:41:25 2011

        *************************************************************
        *                                                           *
        *  Thank you very much for using Q-Chem.  Have a nice day.  *
        *                                                           *
        *************************************************************


0 sent ACK to 0 
now end server 0 ... 
