Process 0 of 1 is on cl139.stfx.acenet.ca - thread support 1
initial socket setup ...start
initial socket setup ...done 
now start server 0 ... 

cmd = /usr/bin/ssh clhead /usr/local/qchem/bin/get_hostid 26951594 > /globalscratch/itamblyn/bnl/g297_b3lyp_neut_g03Large_worked/g2g71134/omega800/qchem18645/lic.dat
                  Welcome to Q-Chem
     A Quantum Leap Into The Future Of Chemistry

 Y. Shao, L. Fusti-Molnar, Y. Jung, J. Kussmann, C. Ochsenfeld,
 S. T. Brown, A. T. B. Gilbert, L. V. Slipchenko,S. V. Levchenko,
 D. P. O'Neill, R. A. DiStasio Jr., R. C. Lochan, T. Wang,
 G. J. O. Beran, N. A. Besley, J. M. Herbert, C. Y. Lin,
 T. Van Voorhis, S. H. Chien, A. Sodt, R. P. Steele, 
 V. A. Rassolov, P. E. Maslen, P. P. Korambath, R. D. Adamson,
 B. Austin, J. Baker, E. F. C. Byrd, H. Dachsel, R. J. Doerksen,
 A. Dreuw, B. D. Dunietz, A. D. Dutoi, T. R. Furlani,
 S. R. Gwaltney, A. Heyden, S. Hirata, C.-P. Hsu, G. Kedziora,
 R. Z. Khaliullin, P. Klunzinger, A. M. Lee, M. S. Lee, W. Liang,
 I. Lotan, N. Nair, B. Peters, E. I. Proynov, P. A. Pieniazek, 
 Y. M. Rhee, J. Ritchie, E. Rosta, C. D. Sherrill, 
 A. C. Simmonett, J. E. Subotnik, H. L. Woodcock III,
 W. Zhang, A. T. Bell, A. K. Chakraborty, D. M. Chipman,
 F. J. Keil, A. Warshel, W. J. Hehre, H. F. Schaefer III,
 J. Kong, A. I. Krylov, P. M. W. Gill, M. Head-Gordon,
 Q-Chem, Version 3.1, Q-Chem, Inc., Pittsburgh, PA (2007).

 Additional authors for Version 3.1: 
 Z. Gan, Y. Zhao, N. E. Schultz, D. Truhlar, E. Epifanovsky and M. Oana.

 Additional authors for Version 3.2: 
 R. Baer, B. R. Brooks, D. Casanova, J.-D. Chai, C.-L. Cheng, 
 C. Cramer, D. Crittenden, A. Ghysels, G. Hawkins, E. G. Hohenstein, 
 C. Kelley, W. Kurlancheek, D. Liotard, E. Livshits, P. Manohar, 
 A. Marenich, D. Neuhauser, R. Olson, M. A. Rohrdanz, K. S. Thanthiriwatte, 
 A. J. W. Thom, V. Vanovschi, C. F. Williams, Q. Wu and Z.-Q. You. 


 Intel X86 Linux Version

 Q-chem begins on Tue Apr 12 22:44:14 2011  

 Parallel job on  1  processors
Processing $rem in /usr/local/qchem/config/preferences.

theFileMan(): MAXOPENFILES=974 MAX_SUB_FILE_NUM=16
Maximum size of a physical file is 2.0 GB, maximum size of a tmp-file is 32.0 GB


--------------------------------------------------------------
User input:
--------------------------------------------------------------

$molecule
-1,2
H
H,1,r

r=0.74264369

$end

$comment
negative
$end

$xc_functional
   X HF 1.0
   X BNL 1.0
   C LYP 1.0
$end

$rem
SYMMETRY_DECOMPOSITION	0
exchange 		general
BASIS                   g3large
omega			800
separate_jk		true
mem_static              760
max_scf_cycles          200
scf_final_print         1
sym_ignore              true
$end

--------------------------------------------------------------
 Writing REM_CC_EA            2
 ----------------------------------------------------
       Standard Nuclear Orientation (Angstroms)
    I     Atom         X            Y            Z
 ----------------------------------------------------
    1      H       0.000000     0.000000     0.000000
    2      H       0.000000     0.000000     0.742644
 ----------------------------------------------------
 Nuclear Repulsion Energy =     0.7125586845 hartrees
 There are        2 alpha and        1 beta electrons
 Requested basis set is G3large
 There are 12 shells and 20 basis functions

Total QAlloc Memory Limit   2000 MB
Mega-Array Size       743 MB
MEM_STATIC part       760 MB

                       Distance Matrix (Angstroms)
             H (  1)
   H (  2)  0.742644
 
 A cutoff of  1.0D-08 yielded     78 shell pairs
 There are    222 function pairs
Evaluating contribution to one-electron hamiltonian from nuclear
 Smallest overlap matrix eigenvalue = 3.03E-03
 Multipole matrices computed through 2nd order

  Scale SEOQF with 1.000000e+00/1.000000e+00/1.000000e+00

 Standard Electronic Orientation quadrupole field applied
 Nucleus-field energy     =    -0.0000000006 hartrees
 Guess from superposition of atomic densities
 Warning:  Energy on first SCF cycle will be non-variational
 An unrestricted hybrid HF-DFT SCF calculation will be
 performed using Pulay DIIS extrapolation
 Exchange:     1.0000 Hartree-Fock + 1.0000 BNL
 Correlation:  1.0000 LYP
 Using SG-1 standard quadrature grid
 SCF converges when DIIS error is below 1.0E-05
 Warning!  Inaccurate integrated density:
   Number of electrons =     3
   Numerical integral  =     2.000000900694
   Relative error      =   -33.3333033102 %
 ---------------------------------------
  Cycle       Energy         DIIS Error
 ---------------------------------------
    1      -0.8901099549      2.33E-02
    2      -1.0930171954      2.80E-03
    3      -1.0972876259      1.20E-03
    4      -1.0982451140      4.62E-04
    5      -1.0984281725      6.54E-05
    6      -1.0984322421      5.30E-06 Convergence criterion met
 ---------------------------------------
 One-Electron    Energy =    -2.8128414080
 Total Coulomb   Energy =     1.7787803583
 Alpha Exchange  Energy =    -0.3458823825
 Beta  Exchange  Energy =    -0.2581016947
 DFT   Exchange  Energy =    -0.1310923377
 DFT Correlation Energy =    -0.0418534614
 Nuclear Repu.   Energy =     0.7125586839
 Nuclear Attr.   Energy =    -3.9994974330
 Kinetic         Energy =     1.1866560250
 <S^2> = 0.7502
 SCF time:  CPU 0.32 s  wall 5.50 s
 Final Alpha MO Eigenvalues
            1           2           3           4           5           6
    1  -0.4128882   0.0674836   0.1919442   0.3827015   0.6087912   0.8298208
            7
    1   0.8298227
 Final Beta MO Eigenvalues
            1           2           3           4           5           6
    1  -0.4087797   0.1998694   0.2001738   0.3913148   0.5996064   0.8299961
 Analysis of SCF Wavefunction
 
 --------------------------------------------------------------
                    Orbital Energies (a.u.)
 --------------------------------------------------------------
 
 Alpha MOs
 -- Occupied --
 -0.413   0.067
 -- Virtual --
  0.192   0.383   0.609   0.830   0.830   0.891   1.256   1.265
  1.265   1.760   2.670   2.861   3.805   3.805   4.143   4.619
  4.619   6.032
 
 Beta MOs
 -- Occupied --
 -0.409
 -- Virtual --
  0.200   0.200   0.391   0.600   0.830   0.830   0.886   1.259
  1.266   1.266   1.755   2.668   2.859   3.805   3.805   4.143
  4.620   4.620   6.033
 --------------------------------------------------------------
 
          Ground-State Mulliken Net Atomic Charges

     Atom                 Charge (a.u.)    Spin (a.u.)
  --------------------------------------------------------
      1 H                    -0.499996       0.500000
      2 H                    -0.500004       0.500000
  --------------------------------------------------------
  Sum of atomic charges =    -1.000000
  Sum of spin   charges =     1.000000

 -----------------------------------------------------------------
                    Cartesian Multipole Moments
 -----------------------------------------------------------------
    Charge (ESU x 10^10)
                -4.8032
    Dipole Moment (Debye)
         X       0.0000      Y       0.0000      Z      -1.7835
       Tot       1.7835
    Quadrupole Moments (Debye-Ang)
        XX     -12.1000     XY       0.0000     YY     -12.1000
        XZ       0.0000     YZ       0.0000     ZZ     -32.2516
    Octapole Moments (Debye-Ang^2)
       XXX       0.0000    XXY       0.0000    XYY       0.0000
       YYY       0.0000    XXZ      -4.4929    XYZ       0.0000
       YYZ      -4.4929    XZZ       0.0000    YZZ       0.0000
       ZZZ     -35.4350
    Hexadecapole Moments (Debye-Ang^3)
      XXXX     -63.0239   XXXY       0.0000   XXYY     -21.0080
      XYYY       0.0000   YYYY     -63.0239   XXXZ       0.0000
      XXYZ       0.0000   XYYZ       0.0000   YYYZ       0.0000
      XXZZ     -63.8783   XYZZ       0.0000   YYZZ     -63.8783
      XZZZ       0.0000   YZZZ       0.0000   ZZZZ    -339.1100
 -----------------------------------------------------------------
 Total job time:  16.51s(wall), 0.37s(cpu) 
 Tue Apr 12 22:44:31 2011

        *************************************************************
        *                                                           *
        *  Thank you very much for using Q-Chem.  Have a nice day.  *
        *                                                           *
        *************************************************************


0 sent ACK to 0 
now end server 0 ... 
 
**********************************************************************
Job 2 of 3 
**********************************************************************
 
Process 0 of 1 is on cl139.stfx.acenet.ca - thread support 1
initial socket setup ...start
initial socket setup ...done 
now start server 0 ... 

cmd = /usr/bin/ssh clhead /usr/local/qchem/bin/get_hostid 99206359 > /globalscratch/itamblyn/bnl/g297_b3lyp_neut_g03Large_worked/g2g71134/omega800/qchem18645/lic.dat
                  Welcome to Q-Chem
     A Quantum Leap Into The Future Of Chemistry

 Y. Shao, L. Fusti-Molnar, Y. Jung, J. Kussmann, C. Ochsenfeld,
 S. T. Brown, A. T. B. Gilbert, L. V. Slipchenko,S. V. Levchenko,
 D. P. O'Neill, R. A. DiStasio Jr., R. C. Lochan, T. Wang,
 G. J. O. Beran, N. A. Besley, J. M. Herbert, C. Y. Lin,
 T. Van Voorhis, S. H. Chien, A. Sodt, R. P. Steele, 
 V. A. Rassolov, P. E. Maslen, P. P. Korambath, R. D. Adamson,
 B. Austin, J. Baker, E. F. C. Byrd, H. Dachsel, R. J. Doerksen,
 A. Dreuw, B. D. Dunietz, A. D. Dutoi, T. R. Furlani,
 S. R. Gwaltney, A. Heyden, S. Hirata, C.-P. Hsu, G. Kedziora,
 R. Z. Khaliullin, P. Klunzinger, A. M. Lee, M. S. Lee, W. Liang,
 I. Lotan, N. Nair, B. Peters, E. I. Proynov, P. A. Pieniazek, 
 Y. M. Rhee, J. Ritchie, E. Rosta, C. D. Sherrill, 
 A. C. Simmonett, J. E. Subotnik, H. L. Woodcock III,
 W. Zhang, A. T. Bell, A. K. Chakraborty, D. M. Chipman,
 F. J. Keil, A. Warshel, W. J. Hehre, H. F. Schaefer III,
 J. Kong, A. I. Krylov, P. M. W. Gill, M. Head-Gordon,
 Q-Chem, Version 3.1, Q-Chem, Inc., Pittsburgh, PA (2007).

 Additional authors for Version 3.1: 
 Z. Gan, Y. Zhao, N. E. Schultz, D. Truhlar, E. Epifanovsky and M. Oana.

 Additional authors for Version 3.2: 
 R. Baer, B. R. Brooks, D. Casanova, J.-D. Chai, C.-L. Cheng, 
 C. Cramer, D. Crittenden, A. Ghysels, G. Hawkins, E. G. Hohenstein, 
 C. Kelley, W. Kurlancheek, D. Liotard, E. Livshits, P. Manohar, 
 A. Marenich, D. Neuhauser, R. Olson, M. A. Rohrdanz, K. S. Thanthiriwatte, 
 A. J. W. Thom, V. Vanovschi, C. F. Williams, Q. Wu and Z.-Q. You. 


 Intel X86 Linux Version

 Q-chem begins on Tue Apr 12 22:44:36 2011  

 Parallel job on  1  processors
Processing $rem in /usr/local/qchem/config/preferences.

theFileMan(): MAXOPENFILES=974 MAX_SUB_FILE_NUM=16
Maximum size of a physical file is 2.0 GB, maximum size of a tmp-file is 32.0 GB


--------------------------------------------------------------
User input:
--------------------------------------------------------------

$molecule
0,1
H
H,1,r

r=0.74264369

$end

$comment
neutral
$end

$xc_functional
   X HF 1.0
   X BNL 1.0
   C LYP 1.0
$end

$rem
SYMMETRY_DECOMPOSITION	0
exchange 		general
BASIS                   g3large
omega			800
separate_jk		true
mem_static              760
max_scf_cycles          200
scf_final_print         1
sym_ignore              true
$end

--------------------------------------------------------------
 Writing REM_CC_EA            2
 ----------------------------------------------------
       Standard Nuclear Orientation (Angstroms)
    I     Atom         X            Y            Z
 ----------------------------------------------------
    1      H       0.000000     0.000000     0.000000
    2      H       0.000000     0.000000     0.742644
 ----------------------------------------------------
 Nuclear Repulsion Energy =     0.7125586845 hartrees
 There are        1 alpha and        1 beta electrons
 Requested basis set is G3large
 There are 12 shells and 20 basis functions

Total QAlloc Memory Limit   2000 MB
Mega-Array Size       743 MB
MEM_STATIC part       760 MB

                       Distance Matrix (Angstroms)
             H (  1)
   H (  2)  0.742644
 
 A cutoff of  1.0D-08 yielded     78 shell pairs
 There are    222 function pairs
Evaluating contribution to one-electron hamiltonian from nuclear
 Smallest overlap matrix eigenvalue = 3.03E-03
 Multipole matrices computed through 2nd order

  Scale SEOQF with 1.000000e+00/1.000000e+00/1.000000e+00

 Standard Electronic Orientation quadrupole field applied
 Nucleus-field energy     =    -0.0000000006 hartrees
 Guess from superposition of atomic densities
 Warning:  Energy on first SCF cycle will be non-variational
 A restricted hybrid HF-DFT SCF calculation will be
 performed using Pulay DIIS extrapolation
 Exchange:     1.0000 Hartree-Fock + 1.0000 BNL
 Correlation:  1.0000 LYP
 Using SG-1 standard quadrature grid
 SCF converges when DIIS error is below 1.0E-05
 ---------------------------------------
  Cycle       Energy         DIIS Error
 ---------------------------------------
    1      -0.8901099549      2.33E-02
    2      -1.1649218569      2.34E-03
    3      -1.1655162423      2.81E-04
    4      -1.1655248162      3.24E-05
    5      -1.1655249933      2.83E-06 Convergence criterion met
 ---------------------------------------
 One-Electron    Energy =    -2.4998200073
 Total Coulomb   Energy =     1.3087613913
 Alpha Exchange  Energy =    -0.2597767256
 Beta  Exchange  Energy =    -0.2597767256
 DFT   Exchange  Energy =    -0.1292227676
 DFT Correlation Energy =    -0.0382488424
 Nuclear Repu.   Energy =     0.7125586839
 Nuclear Attr.   Energy =    -3.6153541247
 Kinetic         Energy =     1.1155341174
 SCF time:  CPU 0.28 s  wall 11.72 s
 Final Alpha MO Eigenvalues
            1           2           3           4           5           6
    1  -0.6019750   0.0641270   0.0670648   0.2225601   0.4338268   0.6413988
 Analysis of SCF Wavefunction
 
 --------------------------------------------------------------
                    Orbital Energies (a.u.)
 --------------------------------------------------------------
 
 Alpha MOs
 -- Occupied --
 -0.602
 -- Virtual --
  0.064   0.067   0.223   0.434   0.641   0.641   0.704   1.065
  1.076   1.076   1.563   2.481   2.668   3.613   3.613   3.948
  4.426   4.426   5.837
 --------------------------------------------------------------
 
          Ground-State Mulliken Net Atomic Charges

     Atom                 Charge (a.u.)
  ----------------------------------------
      1 H                     0.000002
      2 H                    -0.000002
  ----------------------------------------
  Sum of atomic charges =     0.000000

 -----------------------------------------------------------------
                    Cartesian Multipole Moments
 -----------------------------------------------------------------
    Charge (ESU x 10^10)
                 0.0000
    Dipole Moment (Debye)
         X       0.0000      Y       0.0000      Z       0.0000
       Tot       0.0000
    Quadrupole Moments (Debye-Ang)
        XX      -2.1191     XY       0.0000     YY      -2.1191
        XZ       0.0000     YZ       0.0000     ZZ      -1.4969
    Octapole Moments (Debye-Ang^2)
       XXX       0.0000    XXY       0.0000    XYY       0.0000
       YYY       0.0000    XXZ      -0.7869    XYZ       0.0000
       YYZ      -0.7869    XZZ       0.0000    YZZ       0.0000
       ZZZ      -1.6675
    Hexadecapole Moments (Debye-Ang^3)
      XXXX      -2.1404   XXXY       0.0000   XXYY      -0.7135
      XYYY       0.0000   YYYY      -2.1404   XXXZ       0.0000
      XXYZ       0.0000   XYYZ       0.0000   YYYZ       0.0000
      XXZZ      -1.1522   XYZZ       0.0000   YYZZ      -1.1522
      XZZZ       0.0000   YZZZ       0.0000   ZZZZ      -4.1456
 -----------------------------------------------------------------
 Total job time:  15.72s(wall), 0.32s(cpu) 
 Tue Apr 12 22:44:51 2011

        *************************************************************
        *                                                           *
        *  Thank you very much for using Q-Chem.  Have a nice day.  *
        *                                                           *
        *************************************************************


0 sent ACK to 0 
now end server 0 ... 
 
**********************************************************************
Job 3 of 3 
**********************************************************************
 
Process 0 of 1 is on cl139.stfx.acenet.ca - thread support 1
initial socket setup ...start
initial socket setup ...done 
now start server 0 ... 

cmd = /usr/bin/ssh clhead /usr/local/qchem/bin/get_hostid 1989631611 > /globalscratch/itamblyn/bnl/g297_b3lyp_neut_g03Large_worked/g2g71134/omega800/qchem18645/lic.dat
                  Welcome to Q-Chem
     A Quantum Leap Into The Future Of Chemistry

 Y. Shao, L. Fusti-Molnar, Y. Jung, J. Kussmann, C. Ochsenfeld,
 S. T. Brown, A. T. B. Gilbert, L. V. Slipchenko,S. V. Levchenko,
 D. P. O'Neill, R. A. DiStasio Jr., R. C. Lochan, T. Wang,
 G. J. O. Beran, N. A. Besley, J. M. Herbert, C. Y. Lin,
 T. Van Voorhis, S. H. Chien, A. Sodt, R. P. Steele, 
 V. A. Rassolov, P. E. Maslen, P. P. Korambath, R. D. Adamson,
 B. Austin, J. Baker, E. F. C. Byrd, H. Dachsel, R. J. Doerksen,
 A. Dreuw, B. D. Dunietz, A. D. Dutoi, T. R. Furlani,
 S. R. Gwaltney, A. Heyden, S. Hirata, C.-P. Hsu, G. Kedziora,
 R. Z. Khaliullin, P. Klunzinger, A. M. Lee, M. S. Lee, W. Liang,
 I. Lotan, N. Nair, B. Peters, E. I. Proynov, P. A. Pieniazek, 
 Y. M. Rhee, J. Ritchie, E. Rosta, C. D. Sherrill, 
 A. C. Simmonett, J. E. Subotnik, H. L. Woodcock III,
 W. Zhang, A. T. Bell, A. K. Chakraborty, D. M. Chipman,
 F. J. Keil, A. Warshel, W. J. Hehre, H. F. Schaefer III,
 J. Kong, A. I. Krylov, P. M. W. Gill, M. Head-Gordon,
 Q-Chem, Version 3.1, Q-Chem, Inc., Pittsburgh, PA (2007).

 Additional authors for Version 3.1: 
 Z. Gan, Y. Zhao, N. E. Schultz, D. Truhlar, E. Epifanovsky and M. Oana.

 Additional authors for Version 3.2: 
 R. Baer, B. R. Brooks, D. Casanova, J.-D. Chai, C.-L. Cheng, 
 C. Cramer, D. Crittenden, A. Ghysels, G. Hawkins, E. G. Hohenstein, 
 C. Kelley, W. Kurlancheek, D. Liotard, E. Livshits, P. Manohar, 
 A. Marenich, D. Neuhauser, R. Olson, M. A. Rohrdanz, K. S. Thanthiriwatte, 
 A. J. W. Thom, V. Vanovschi, C. F. Williams, Q. Wu and Z.-Q. You. 


 Intel X86 Linux Version

 Q-chem begins on Tue Apr 12 22:44:57 2011  

 Parallel job on  1  processors
Processing $rem in /usr/local/qchem/config/preferences.

theFileMan(): MAXOPENFILES=974 MAX_SUB_FILE_NUM=16
Maximum size of a physical file is 2.0 GB, maximum size of a tmp-file is 32.0 GB


--------------------------------------------------------------
User input:
--------------------------------------------------------------

$molecule
1,2
H
H,1,r

r=0.74264369

$end

$comment
positive
$end

$xc_functional
   X HF 1.0
   X BNL 1.0
   C LYP 1.0
$end

$rem
SYMMETRY_DECOMPOSITION	0
exchange 		general
BASIS                   g3large
omega			800
separate_jk		true
mem_static              760
max_scf_cycles          200
scf_final_print         1
sym_ignore              true
$end

--------------------------------------------------------------
 Writing REM_CC_EA            2
 ----------------------------------------------------
       Standard Nuclear Orientation (Angstroms)
    I     Atom         X            Y            Z
 ----------------------------------------------------
    1      H       0.000000     0.000000     0.000000
    2      H       0.000000     0.000000     0.742644
 ----------------------------------------------------
 Nuclear Repulsion Energy =     0.7125586845 hartrees
 There are        1 alpha and        0 beta electrons
 Requested basis set is G3large
 There are 12 shells and 20 basis functions

Total QAlloc Memory Limit   2000 MB
Mega-Array Size       743 MB
MEM_STATIC part       760 MB

                       Distance Matrix (Angstroms)
             H (  1)
   H (  2)  0.742644
 
 A cutoff of  1.0D-08 yielded     78 shell pairs
 There are    222 function pairs
Evaluating contribution to one-electron hamiltonian from nuclear
 Smallest overlap matrix eigenvalue = 3.03E-03
 Multipole matrices computed through 2nd order

  Scale SEOQF with 1.000000e+00/1.000000e+00/1.000000e+00

 Standard Electronic Orientation quadrupole field applied
 Nucleus-field energy     =    -0.0000000006 hartrees
 Guess from superposition of atomic densities
 Warning:  Energy on first SCF cycle will be non-variational
 An unrestricted hybrid HF-DFT SCF calculation will be
 performed using Pulay DIIS extrapolation
 Exchange:     1.0000 Hartree-Fock + 1.0000 BNL
 Correlation:  1.0000 LYP
 Using SG-1 standard quadrature grid
 SCF converges when DIIS error is below 1.0E-05
 Warning!  Inaccurate integrated density:
   Number of electrons =     1
   Numerical integral  =     2.000000900694
   Relative error      =   100.0000900694 %
 ---------------------------------------
  Cycle       Energy         DIIS Error
 ---------------------------------------
    1      -0.8901099549      2.33E-02
    2      -0.5282823508      1.35E-02
    3      -0.5637239394      1.16E-03
    4      -0.5638222358      4.98E-04
    5      -0.5638708357      1.00E-05
    6      -0.5638708530      5.56E-07 Convergence criterion met
 ---------------------------------------
 One-Electron    Energy =    -1.2821741964
 Total Coulomb   Energy =     0.3855187445
 Alpha Exchange  Energy =    -0.2889841335
 Beta  Exchange  Energy =     0.0000000000
 DFT   Exchange  Energy =    -0.0907899515
 DFT Correlation Energy =     0.0000000000
 Nuclear Repu.   Energy =     0.7125586839
 Nuclear Attr.   Energy =    -2.0440085198
 Kinetic         Energy =     0.7618343234
 <S^2> = 0.7500
 SCF time:  CPU 0.35 s  wall 12.06 s
 Final Alpha MO Eigenvalues
            1           2           3           4           5           6
    1  -1.2454618  -0.2083603  -0.1387956  -0.0453421   0.1179054   0.1700824
 Final Beta MO Eigenvalues
            1           2           3           4           5
    1  -0.6326658  -0.1890480  -0.1339385  -0.0346213   0.1324893
 Analysis of SCF Wavefunction
 
 --------------------------------------------------------------
                    Orbital Energies (a.u.)
 --------------------------------------------------------------
 
 Alpha MOs
 -- Occupied --
 -1.245
 -- Virtual --
 -0.208  -0.139  -0.045   0.118   0.170   0.170   0.302   0.639
  0.657   0.657   1.168   1.892   2.085   2.986   2.986   3.311
  3.803   3.803   5.195
 --------------------------------------------------------------
 
          Ground-State Mulliken Net Atomic Charges

     Atom                 Charge (a.u.)    Spin (a.u.)
  --------------------------------------------------------
      1 H                     0.499999       0.500001
      2 H                     0.500001       0.499999
  --------------------------------------------------------
  Sum of atomic charges =     1.000000
  Sum of spin   charges =     1.000000

 -----------------------------------------------------------------
                    Cartesian Multipole Moments
 -----------------------------------------------------------------
    Charge (ESU x 10^10)
                 4.8032
    Dipole Moment (Debye)
         X       0.0000      Y       0.0000      Z       1.7835
       Tot       1.7835
    Quadrupole Moments (Debye-Ang)
        XX      -0.7089     XY       0.0000     YY      -0.7089
        XZ       0.0000     YZ       0.0000     ZZ       0.9978
    Octapole Moments (Debye-Ang^2)
       XXX       0.0000    XXY       0.0000    XYY       0.0000
       YYY       0.0000    XXZ      -0.2632    XYZ       0.0000
       YYZ      -0.2632    XZZ       0.0000    YZZ       0.0000
       ZZZ       0.6197
    Hexadecapole Moments (Debye-Ang^3)
      XXXX      -0.4314   XXXY       0.0000   XXYY      -0.1438
      XYYY       0.0000   YYYY      -0.4314   XXXZ       0.0000
      XXYZ       0.0000   XYYZ       0.0000   YYYZ       0.0000
      XXZZ      -0.2774   XYZZ       0.0000   YYZZ      -0.2774
      XZZZ       0.0000   YZZZ       0.0000   ZZZZ      -0.1150
 -----------------------------------------------------------------
 Total job time:  17.33s(wall), 0.41s(cpu) 
 Tue Apr 12 22:45:14 2011

        *************************************************************
        *                                                           *
        *  Thank you very much for using Q-Chem.  Have a nice day.  *
        *                                                           *
        *************************************************************


0 sent ACK to 0 
now end server 0 ... 
