Process 0 of 1 is on cl044.stfx.acenet.ca - thread support 1
initial socket setup ...start
initial socket setup ...done 
now start server 0 ... 

cmd = /usr/bin/ssh clhead /usr/local/qchem/bin/get_hostid 2026148510 > /scratch/tmp/6022819.1.short.q/qchem18426/lic.dat
                  Welcome to Q-Chem
     A Quantum Leap Into The Future Of Chemistry

 Y. Shao, L. Fusti-Molnar, Y. Jung, J. Kussmann, C. Ochsenfeld,
 S. T. Brown, A. T. B. Gilbert, L. V. Slipchenko,S. V. Levchenko,
 D. P. O'Neill, R. A. DiStasio Jr., R. C. Lochan, T. Wang,
 G. J. O. Beran, N. A. Besley, J. M. Herbert, C. Y. Lin,
 T. Van Voorhis, S. H. Chien, A. Sodt, R. P. Steele, 
 V. A. Rassolov, P. E. Maslen, P. P. Korambath, R. D. Adamson,
 B. Austin, J. Baker, E. F. C. Byrd, H. Dachsel, R. J. Doerksen,
 A. Dreuw, B. D. Dunietz, A. D. Dutoi, T. R. Furlani,
 S. R. Gwaltney, A. Heyden, S. Hirata, C.-P. Hsu, G. Kedziora,
 R. Z. Khaliullin, P. Klunzinger, A. M. Lee, M. S. Lee, W. Liang,
 I. Lotan, N. Nair, B. Peters, E. I. Proynov, P. A. Pieniazek, 
 Y. M. Rhee, J. Ritchie, E. Rosta, C. D. Sherrill, 
 A. C. Simmonett, J. E. Subotnik, H. L. Woodcock III,
 W. Zhang, A. T. Bell, A. K. Chakraborty, D. M. Chipman,
 F. J. Keil, A. Warshel, W. J. Hehre, H. F. Schaefer III,
 J. Kong, A. I. Krylov, P. M. W. Gill, M. Head-Gordon,
 Q-Chem, Version 3.1, Q-Chem, Inc., Pittsburgh, PA (2007).

 Additional authors for Version 3.1: 
 Z. Gan, Y. Zhao, N. E. Schultz, D. Truhlar, E. Epifanovsky and M. Oana.

 Additional authors for Version 3.2: 
 R. Baer, B. R. Brooks, D. Casanova, J.-D. Chai, C.-L. Cheng, 
 C. Cramer, D. Crittenden, A. Ghysels, G. Hawkins, E. G. Hohenstein, 
 C. Kelley, W. Kurlancheek, D. Liotard, E. Livshits, P. Manohar, 
 A. Marenich, D. Neuhauser, R. Olson, M. A. Rohrdanz, K. S. Thanthiriwatte, 
 A. J. W. Thom, V. Vanovschi, C. F. Williams, Q. Wu and Z.-Q. You. 


 Intel X86 Linux Version

 Q-chem begins on Wed May 29 17:29:20 2013  

 Parallel job on  1  processors
Processing $rem in /usr/local/qchem/config/preferences.

theFileMan(): MAXOPENFILES=974 MAX_SUB_FILE_NUM=16
Maximum size of a physical file is 2.0 GB, maximum size of a tmp-file is 32.0 GB


--------------------------------------------------------------
User input:
--------------------------------------------------------------

$molecule
-1,2
C          0.00543        0.00000        0.00109
C          0.00074        0.00000        1.31834
Cl         1.44660        0.00000       -0.93685
H         -0.89497        0.00000       -0.60160
H          0.91877        0.00000        1.89436
H         -0.94360        0.00000        1.85059
$end

$comment
negative
$end

$xc_functional
C PBE   1.00
X wPBE  1.00
$end

$rem
SYMMETRY_DECOMPOSITION	0
exchange 		general
LRC_DFT                 true
BASIS                   g3large
omega			420
mem_static              760
max_scf_cycles          200
scf_final_print         1
sym_ignore              true
$end

--------------------------------------------------------------
 Writing REM_CC_EA            6
 ----------------------------------------------------
       Standard Nuclear Orientation (Angstroms)
    I     Atom         X            Y            Z
 ----------------------------------------------------
    1      C       0.005430     0.000000     0.001090
    2      C       0.000740     0.000000     1.318340
    3      Cl      1.446600     0.000000    -0.936850
    4      H      -0.894970     0.000000    -0.601600
    5      H       0.918770     0.000000     1.894360
    6      H      -0.943600     0.000000     1.850590
 ----------------------------------------------------
 Nuclear Repulsion Energy =    89.3748630433 hartrees
 There are       17 alpha and       16 beta electrons
 Requested basis set is G3large
 There are 57 shells and 180 basis functions

Total QAlloc Memory Limit   2000 MB
Mega-Array Size       743 MB
MEM_STATIC part       760 MB

                       Distance Matrix (Angstroms)
             C (  1)   C (  2)   Cl(  3)   H (  4)   H (  5)
   C (  2)  1.317258
   Cl(  3)  1.719506  2.678879
   H (  4)  1.083492  2.118600  2.365448
   H (  5)  2.102061  1.083780  2.879992  3.085364
   H (  6)  2.078776  1.084006  3.671904  2.452672  1.862884
 
 A cutoff of  1.0D-08 yielded   1525 shell pairs
 There are  15393 function pairs ( 20035 Cartesian)
Evaluating contribution to one-electron hamiltonian from nuclear
 Smallest overlap matrix eigenvalue = 7.82E-05

 Q-Chem warning in module mkSTV.C, line 194:

 Overlap eigenvalue is smaller than square root of threshold

 Multipole matrices computed through 2nd order

  Scale SEOQF with 1.000000e-01/1.000000e-01/1.000000e-01

 Standard Electronic Orientation quadrupole field applied
 Nucleus-field energy     =    -0.0000000021 hartrees
 Guess from superposition of atomic densities
 Warning:  Energy on first SCF cycle will be non-variational
 Long-range K will be added via erf
 Coulomb attenuation parameter = 0.42 bohr**(-1)
 An unrestricted Kohn-Sham SCF calculation will be
 performed using Pulay DIIS extrapolation
 Exchange:  wPBE + LR-HF      Correlation:  PBE
 Using SG-1 standard quadrature grid
 SCF converges when DIIS error is below 1.0E-05
 Requested basis set is G3large
 There are 57 shells and 180 basis functions
 A cutoff of  1.0D-08 yielded   1525 shell pairs
 There are  15393 function pairs ( 20035 Cartesian)
 Warning!  Inaccurate integrated density:
   Number of electrons =    33
   Numerical integral  =    31.999934000846
   Relative error      =    -3.0305030277 %
 ---------------------------------------
  Cycle       Energy         DIIS Error
 ---------------------------------------
    1    -538.6499418686      2.97E-02
    2    -537.8690373649      4.18E-03
    3    -537.9219357841      3.31E-03
    4    -537.9666609560      4.22E-04
    5    -537.9684163960      2.30E-04
    6    -537.9691104190      8.70E-05
    7    -537.9694164741      4.91E-05
    8    -537.9695940281      3.21E-05
    9    -537.9697042041      1.71E-05
   10    -537.9697565537      7.30E-06 Convergence criterion met
 ---------------------------------------
 One-Electron    Energy =  -923.9372265248
 Total Coulomb   Energy =   336.8231115112
 Alpha Exchange  Energy =    -3.5398332627
 Beta  Exchange  Energy =    -3.3736660579
 DFT   Exchange  Energy =   -32.1478471340
 DFT Correlation Energy =    -1.1691581267
 Nuclear Repu.   Energy =    89.3748630411
 Nuclear Attr.   Energy = -1461.2086838160
 Kinetic         Energy =   537.2714572911
 <S^2> = 0.7543
 SCF time:  CPU 118.51 s  wall 119.13 s
 Final Alpha MO Eigenvalues
            1           2           3           4           5           6
    1-100.6901566  -9.9152032  -9.8736841  -9.2124959  -7.0291153  -7.0206988
            7           8           9          10          11          12
    1  -7.0205369  -0.8225556  -0.6742392  -0.5044051  -0.3985012  -0.3495951
           13          14          15          16          17          18
    1  -0.3028050  -0.2807157  -0.2357639  -0.1778076   0.0404642   0.1659474
           19          20          21          22
    1   0.1785884   0.1826104   0.2222215   0.2722882
 Final Beta MO Eigenvalues
            1           2           3           4           5           6
    1-100.6902265  -9.9089134  -9.8703133  -9.2124954  -7.0293205  -7.0206022
            7           8           9          10          11          12
    1  -7.0205104  -0.8173579  -0.6655532  -0.4857430  -0.3949528  -0.3440588
           13          14          15          16          17          18
    1  -0.2843524  -0.2776556  -0.2349414  -0.1369494   0.1672638   0.1803242
           19          20          21
    1   0.1842086   0.2232971   0.2587012
 Analysis of SCF Wavefunction
 
 --------------------------------------------------------------
                    Orbital Energies (a.u.)
 --------------------------------------------------------------
 
 Alpha MOs
 -- Occupied --
*******  -9.915  -9.874  -9.212  -7.029  -7.021  -7.021  -0.823
 -0.674  -0.504  -0.399  -0.350  -0.303  -0.281  -0.236  -0.178
  0.040
 -- Virtual --
  0.166   0.179   0.183   0.222   0.272   0.274   0.292   0.295
  0.309   0.316   0.321   0.337   0.349   0.352   0.382   0.399
  0.450   0.454   0.563   0.565   0.582   0.609   0.618   0.669
  0.685   0.709   0.770   0.777   0.801   0.806   0.826   0.861
  0.880   0.904   0.926   0.951   0.975   0.984   1.007   1.031
  1.115   1.160   1.202   1.205   1.296   1.298   1.318   1.366
  1.378   1.384   1.391   1.406   1.429   1.453   1.486   1.515
  1.566   1.644   1.656   1.670   1.712   1.737   1.741   1.788
  1.836   1.875   1.886   1.908   2.004   2.036   2.225   2.481
  2.571   2.702   2.815   2.907   3.010   3.042   3.067   3.091
  3.124   3.170   3.257   3.303   3.337   3.436   3.454   3.518
  3.528   3.564   3.591   3.629   3.659   3.671   3.721   3.767
  3.931   3.996   4.017   4.039   4.071   4.139   4.341   4.435
  4.487   4.548   4.568   4.663   4.678   4.699   4.705   4.709
  4.771   4.801   4.830   4.964   5.022   5.055   5.336   5.352
  5.457   5.488   5.492   5.581   5.805   5.905   6.137   6.339
 10.125  20.800  20.855  21.083  24.098  24.960  27.332  27.387
 27.404  27.415  27.492  27.504  27.678  28.396  28.468  28.502
 28.613  37.033  37.035  37.036  37.037  37.045  37.050  37.068
 41.084  41.159  41.230  41.365  41.370  41.416  41.481  41.495
 41.551  41.593 216.000
 
 Beta MOs
 -- Occupied --
*******  -9.909  -9.870  -9.212  -7.029  -7.021  -7.021  -0.817
 -0.666  -0.486  -0.395  -0.344  -0.284  -0.278  -0.235  -0.137
 -- Virtual --
  0.167   0.180   0.184   0.223   0.259   0.276   0.279   0.296
  0.297   0.310   0.323   0.341   0.352   0.361   0.378   0.386
  0.404   0.455   0.458   0.567   0.567   0.585   0.611   0.633
  0.673   0.686   0.711   0.774   0.779   0.806   0.819   0.843
  0.866   0.903   0.927   0.937   0.961   0.981   1.006   1.012
  1.040   1.120   1.166   1.211   1.217   1.303   1.308   1.321
  1.368   1.384   1.389   1.395   1.408   1.433   1.454   1.488
  1.524   1.570   1.647   1.666   1.672   1.719   1.743   1.752
  1.793   1.840   1.883   1.891   1.915   2.011   2.042   2.230
  2.484   2.572   2.705   2.822   2.912   3.038   3.058   3.077
  3.099   3.143   3.188   3.275   3.319   3.340   3.452   3.464
  3.537   3.547   3.576   3.597   3.650   3.666   3.695   3.730
  3.778   3.938   4.020   4.026   4.060   4.075   4.154   4.343
  4.441   4.490   4.554   4.571   4.666   4.679   4.702   4.707
  4.710   4.771   4.805   4.834   4.965   5.042   5.056   5.336
  5.353   5.464   5.490   5.493   5.585   5.806   5.906   6.139
  6.342  10.125  20.800  20.855  21.083  24.104  24.965  27.332
 27.387  27.407  27.415  27.492  27.515  27.692  28.399  28.471
 28.505  28.616  37.033  37.035  37.036  37.037  37.045  37.050
 37.068  41.091  41.169  41.237  41.375  41.381  41.424  41.483
 41.504  41.554  41.594 216.000
 --------------------------------------------------------------
 
          Ground-State Mulliken Net Atomic Charges

     Atom                 Charge (a.u.)    Spin (a.u.)
  --------------------------------------------------------
      1 C                     0.149245       0.229247
      2 C                    -0.918471       0.827839
      3 Cl                   -0.425262       0.060841
      4 H                     0.049993      -0.044338
      5 H                     0.084069      -0.040669
      6 H                     0.060427      -0.032921
  --------------------------------------------------------
  Sum of atomic charges =    -1.000000
  Sum of spin   charges =     1.000000

 -----------------------------------------------------------------
                    Cartesian Multipole Moments
 -----------------------------------------------------------------
    Charge (ESU x 10^10)
                -4.8032
    Dipole Moment (Debye)
         X      -2.6169      Y       0.1650      Z      -2.4474
       Tot       3.5868
    Quadrupole Moments (Debye-Ang)
        XX     -33.6340     XY       0.1058     YY     -36.6715
        XZ       2.4272     YZ       0.5052     ZZ     -39.8010
    Octapole Moments (Debye-Ang^2)
       XXX     -64.6729    XXY       0.5904    XYY     -20.4716
       YYY       1.1651    XXZ       2.4692    XYZ      -0.1350
       YYZ      -9.8852    XZZ     -21.6747    YZZ       1.3930
       ZZZ     -15.1430
    Hexadecapole Moments (Debye-Ang^3)
      XXXX    -240.8115   XXXY       0.8672   XXYY     -57.1577
      XYYY       0.7148   YYYY     -83.4402   XXXZ      55.4234
      XXYZ       1.2231   XYYZ      17.8861   YYYZ       3.3459
      XXZZ     -82.8236   XYZZ       0.1672   YYZZ     -78.9047
      XZZZ      56.1747   YZZZ       4.9688   ZZZZ    -290.7325
 -----------------------------------------------------------------
 Total job time:  119.36s(wall), 118.73s(cpu) 
 Wed May 29 17:31:19 2013

        *************************************************************
        *                                                           *
        *  Thank you very much for using Q-Chem.  Have a nice day.  *
        *                                                           *
        *************************************************************


0 sent ACK to 0 
now end server 0 ... 
 
**********************************************************************
Job 2 of 3 
**********************************************************************
 
Process 0 of 1 is on cl044.stfx.acenet.ca - thread support 1
initial socket setup ...start
initial socket setup ...done 
now start server 0 ... 

cmd = /usr/bin/ssh clhead /usr/local/qchem/bin/get_hostid 343808463 > /scratch/tmp/6022819.1.short.q/qchem18426/lic.dat
                  Welcome to Q-Chem
     A Quantum Leap Into The Future Of Chemistry

 Y. Shao, L. Fusti-Molnar, Y. Jung, J. Kussmann, C. Ochsenfeld,
 S. T. Brown, A. T. B. Gilbert, L. V. Slipchenko,S. V. Levchenko,
 D. P. O'Neill, R. A. DiStasio Jr., R. C. Lochan, T. Wang,
 G. J. O. Beran, N. A. Besley, J. M. Herbert, C. Y. Lin,
 T. Van Voorhis, S. H. Chien, A. Sodt, R. P. Steele, 
 V. A. Rassolov, P. E. Maslen, P. P. Korambath, R. D. Adamson,
 B. Austin, J. Baker, E. F. C. Byrd, H. Dachsel, R. J. Doerksen,
 A. Dreuw, B. D. Dunietz, A. D. Dutoi, T. R. Furlani,
 S. R. Gwaltney, A. Heyden, S. Hirata, C.-P. Hsu, G. Kedziora,
 R. Z. Khaliullin, P. Klunzinger, A. M. Lee, M. S. Lee, W. Liang,
 I. Lotan, N. Nair, B. Peters, E. I. Proynov, P. A. Pieniazek, 
 Y. M. Rhee, J. Ritchie, E. Rosta, C. D. Sherrill, 
 A. C. Simmonett, J. E. Subotnik, H. L. Woodcock III,
 W. Zhang, A. T. Bell, A. K. Chakraborty, D. M. Chipman,
 F. J. Keil, A. Warshel, W. J. Hehre, H. F. Schaefer III,
 J. Kong, A. I. Krylov, P. M. W. Gill, M. Head-Gordon,
 Q-Chem, Version 3.1, Q-Chem, Inc., Pittsburgh, PA (2007).

 Additional authors for Version 3.1: 
 Z. Gan, Y. Zhao, N. E. Schultz, D. Truhlar, E. Epifanovsky and M. Oana.

 Additional authors for Version 3.2: 
 R. Baer, B. R. Brooks, D. Casanova, J.-D. Chai, C.-L. Cheng, 
 C. Cramer, D. Crittenden, A. Ghysels, G. Hawkins, E. G. Hohenstein, 
 C. Kelley, W. Kurlancheek, D. Liotard, E. Livshits, P. Manohar, 
 A. Marenich, D. Neuhauser, R. Olson, M. A. Rohrdanz, K. S. Thanthiriwatte, 
 A. J. W. Thom, V. Vanovschi, C. F. Williams, Q. Wu and Z.-Q. You. 


 Intel X86 Linux Version

 Q-chem begins on Wed May 29 17:31:22 2013  

 Parallel job on  1  processors
Processing $rem in /usr/local/qchem/config/preferences.

theFileMan(): MAXOPENFILES=974 MAX_SUB_FILE_NUM=16
Maximum size of a physical file is 2.0 GB, maximum size of a tmp-file is 32.0 GB


--------------------------------------------------------------
User input:
--------------------------------------------------------------

$molecule
0,1
C          0.00543        0.00000        0.00109
C          0.00074        0.00000        1.31834
Cl         1.44660        0.00000       -0.93685
H         -0.89497        0.00000       -0.60160
H          0.91877        0.00000        1.89436
H         -0.94360        0.00000        1.85059
$end

$comment
neutral
$end

$xc_functional
C PBE   1.00
X wPBE  1.00
$end


$rem
SYMMETRY_DECOMPOSITION	0
LRC_DFT                 true
exchange 		general
BASIS                   g3large
omega			420
mem_static              760
max_scf_cycles          200
scf_final_print         1
sym_ignore              true
$end

--------------------------------------------------------------
 Writing REM_CC_EA            6
 ----------------------------------------------------
       Standard Nuclear Orientation (Angstroms)
    I     Atom         X            Y            Z
 ----------------------------------------------------
    1      C       0.005430     0.000000     0.001090
    2      C       0.000740     0.000000     1.318340
    3      Cl      1.446600     0.000000    -0.936850
    4      H      -0.894970     0.000000    -0.601600
    5      H       0.918770     0.000000     1.894360
    6      H      -0.943600     0.000000     1.850590
 ----------------------------------------------------
 Nuclear Repulsion Energy =    89.3748630433 hartrees
 There are       16 alpha and       16 beta electrons
 Requested basis set is G3large
 There are 57 shells and 180 basis functions

Total QAlloc Memory Limit   2000 MB
Mega-Array Size       743 MB
MEM_STATIC part       760 MB

                       Distance Matrix (Angstroms)
             C (  1)   C (  2)   Cl(  3)   H (  4)   H (  5)
   C (  2)  1.317258
   Cl(  3)  1.719506  2.678879
   H (  4)  1.083492  2.118600  2.365448
   H (  5)  2.102061  1.083780  2.879992  3.085364
   H (  6)  2.078776  1.084006  3.671904  2.452672  1.862884
 
 A cutoff of  1.0D-08 yielded   1525 shell pairs
 There are  15393 function pairs ( 20035 Cartesian)
Evaluating contribution to one-electron hamiltonian from nuclear
 Smallest overlap matrix eigenvalue = 7.82E-05

 Q-Chem warning in module mkSTV.C, line 194:

 Overlap eigenvalue is smaller than square root of threshold

 Multipole matrices computed through 2nd order

  Scale SEOQF with 1.000000e-01/1.000000e-01/1.000000e-01

 Standard Electronic Orientation quadrupole field applied
 Nucleus-field energy     =    -0.0000000021 hartrees
 Guess from superposition of atomic densities
 Warning:  Energy on first SCF cycle will be non-variational
 Long-range K will be added via erf
 Coulomb attenuation parameter = 0.42 bohr**(-1)
 A restricted Kohn-Sham SCF calculation will be
 performed using Pulay DIIS extrapolation
 Exchange:  wPBE + LR-HF      Correlation:  PBE
 Using SG-1 standard quadrature grid
 SCF converges when DIIS error is below 1.0E-05
 Requested basis set is G3large
 There are 57 shells and 180 basis functions
 A cutoff of  1.0D-08 yielded   1525 shell pairs
 There are  15393 function pairs ( 20035 Cartesian)
 ---------------------------------------
  Cycle       Energy         DIIS Error
 ---------------------------------------
    1    -538.6499418686      2.97E-02
    2    -537.9840772197      2.78E-03
    3    -538.0083798820      2.01E-03
    4    -538.0216714451      4.20E-04
    5    -538.0228926766      1.57E-04
    6    -538.0230883009      3.65E-05
    7    -538.0230992370      1.39E-05
    8    -538.0231024297      5.41E-06 Convergence criterion met
 ---------------------------------------
 One-Electron    Energy =  -916.8987481153
 Total Coulomb   Energy =   329.4965850217
 Alpha Exchange  Energy =    -3.3869952418
 Beta  Exchange  Energy =    -3.3869952418
 DFT   Exchange  Energy =   -32.0781547374
 DFT Correlation Energy =    -1.1436571564
 Nuclear Repu.   Energy =    89.3748630411
 Nuclear Attr.   Energy = -1453.9516108549
 Kinetic         Energy =   537.0528627396
 SCF time:  CPU 76.51 s  wall 77.10 s
 Final Alpha MO Eigenvalues
            1           2           3           4           5           6
    1-100.8930852 -10.1818906 -10.1276248  -9.4161671  -7.2340136  -7.2240165
            7           8           9          10          11          12
    1  -7.2231326  -1.0388338  -0.9073555  -0.7288580  -0.6278647  -0.5822959
           13          14          15          16          17          18
    1  -0.5070944  -0.5054709  -0.4388448  -0.3829423   0.0408529   0.0572399
           19          20          21
    1   0.0639739   0.0656398   0.0917588
 Analysis of SCF Wavefunction
 
 --------------------------------------------------------------
                    Orbital Energies (a.u.)
 --------------------------------------------------------------
 
 Alpha MOs
 -- Occupied --
******* -10.182 -10.128  -9.416  -7.234  -7.224  -7.223  -1.039
 -0.907  -0.729  -0.628  -0.582  -0.507  -0.505  -0.439  -0.383
 -- Virtual --
  0.041   0.057   0.064   0.066   0.092   0.121   0.131   0.148
  0.154   0.163   0.175   0.176   0.182   0.184   0.204   0.219
  0.239   0.272   0.287   0.376   0.379   0.402   0.422   0.432
  0.476   0.497   0.543   0.590   0.590   0.600   0.612   0.619
  0.664   0.676   0.701   0.726   0.757   0.770   0.773   0.807
  0.823   0.907   0.952   0.994   0.998   1.089   1.092   1.117
  1.165   1.178   1.183   1.191   1.211   1.235   1.254   1.288
  1.311   1.354   1.439   1.445   1.471   1.497   1.528   1.534
  1.579   1.623   1.673   1.674   1.704   1.797   1.831   2.006
  2.283   2.372   2.492   2.587   2.682   2.770   2.801   2.834
  2.857   2.885   2.932   3.021   3.065   3.104   3.199   3.219
  3.282   3.294   3.328   3.354   3.392   3.426   3.435   3.487
  3.536   3.695   3.755   3.780   3.801   3.834   3.904   4.108
  4.202   4.253   4.313   4.341   4.447   4.471   4.484   4.493
  4.500   4.560   4.570   4.619   4.746   4.779   4.834   5.134
  5.146   5.218   5.272   5.281   5.348   5.580   5.669   5.913
  6.111   9.922  20.597  20.653  20.879  23.839  24.703  27.129
 27.179  27.186  27.211  27.265  27.278  27.422  28.141  28.214
 28.243  28.356  36.830  36.832  36.833  36.834  36.841  36.846
 36.863  40.823  40.895  40.976  41.104  41.107  41.160  41.218
 41.237  41.291  41.336 215.797
 --------------------------------------------------------------
 
          Ground-State Mulliken Net Atomic Charges

     Atom                 Charge (a.u.)
  ----------------------------------------
      1 C                     0.126280
      2 C                    -0.204122
      3 Cl                   -0.235413
      4 H                     0.106984
      5 H                     0.108302
      6 H                     0.097969
  ----------------------------------------
  Sum of atomic charges =     0.000000

 -----------------------------------------------------------------
                    Cartesian Multipole Moments
 -----------------------------------------------------------------
    Charge (ESU x 10^10)
                 0.0000
    Dipole Moment (Debye)
         X      -1.2100      Y      -0.0002      Z       0.9029
       Tot       1.5097
    Quadrupole Moments (Debye-Ang)
        XX     -24.6397     XY      -0.0003     YY     -26.9838
        XZ       0.8881     YZ      -0.0002     ZZ     -23.6383
    Octapole Moments (Debye-Ang^2)
       XXX     -53.0846    XXY      -0.0008    XYY     -17.9536
       YYY      -0.0004    XXZ       3.0421    XYZ       0.0000
       YYZ       1.5880    XZZ     -17.4229    YZZ      -0.0004
       ZZZ      12.3608
    Hexadecapole Moments (Debye-Ang^3)
      XXXX    -189.2020   XXXY      -0.0023   XXYY     -39.0229
      XYYY      -0.0001   YYYY     -31.1652   XXXZ      44.9686
      XXYZ       0.0006   XYYZ      17.3551   YYYZ      -0.0006
      XXZZ     -54.6769   XYZZ      -0.0012   YYZZ     -37.3839
      XZZZ      49.7797   YZZZ      -0.0007   ZZZZ    -174.1701
 -----------------------------------------------------------------
 Total job time:  77.32s(wall), 76.72s(cpu) 
 Wed May 29 17:32:39 2013

        *************************************************************
        *                                                           *
        *  Thank you very much for using Q-Chem.  Have a nice day.  *
        *                                                           *
        *************************************************************


0 sent ACK to 0 
now end server 0 ... 
 
**********************************************************************
Job 3 of 3 
**********************************************************************
 
Process 0 of 1 is on cl044.stfx.acenet.ca - thread support 1
initial socket setup ...start
initial socket setup ...done 
now start server 0 ... 

cmd = /usr/bin/ssh clhead /usr/local/qchem/bin/get_hostid 713992706 > /scratch/tmp/6022819.1.short.q/qchem18426/lic.dat
                  Welcome to Q-Chem
     A Quantum Leap Into The Future Of Chemistry

 Y. Shao, L. Fusti-Molnar, Y. Jung, J. Kussmann, C. Ochsenfeld,
 S. T. Brown, A. T. B. Gilbert, L. V. Slipchenko,S. V. Levchenko,
 D. P. O'Neill, R. A. DiStasio Jr., R. C. Lochan, T. Wang,
 G. J. O. Beran, N. A. Besley, J. M. Herbert, C. Y. Lin,
 T. Van Voorhis, S. H. Chien, A. Sodt, R. P. Steele, 
 V. A. Rassolov, P. E. Maslen, P. P. Korambath, R. D. Adamson,
 B. Austin, J. Baker, E. F. C. Byrd, H. Dachsel, R. J. Doerksen,
 A. Dreuw, B. D. Dunietz, A. D. Dutoi, T. R. Furlani,
 S. R. Gwaltney, A. Heyden, S. Hirata, C.-P. Hsu, G. Kedziora,
 R. Z. Khaliullin, P. Klunzinger, A. M. Lee, M. S. Lee, W. Liang,
 I. Lotan, N. Nair, B. Peters, E. I. Proynov, P. A. Pieniazek, 
 Y. M. Rhee, J. Ritchie, E. Rosta, C. D. Sherrill, 
 A. C. Simmonett, J. E. Subotnik, H. L. Woodcock III,
 W. Zhang, A. T. Bell, A. K. Chakraborty, D. M. Chipman,
 F. J. Keil, A. Warshel, W. J. Hehre, H. F. Schaefer III,
 J. Kong, A. I. Krylov, P. M. W. Gill, M. Head-Gordon,
 Q-Chem, Version 3.1, Q-Chem, Inc., Pittsburgh, PA (2007).

 Additional authors for Version 3.1: 
 Z. Gan, Y. Zhao, N. E. Schultz, D. Truhlar, E. Epifanovsky and M. Oana.

 Additional authors for Version 3.2: 
 R. Baer, B. R. Brooks, D. Casanova, J.-D. Chai, C.-L. Cheng, 
 C. Cramer, D. Crittenden, A. Ghysels, G. Hawkins, E. G. Hohenstein, 
 C. Kelley, W. Kurlancheek, D. Liotard, E. Livshits, P. Manohar, 
 A. Marenich, D. Neuhauser, R. Olson, M. A. Rohrdanz, K. S. Thanthiriwatte, 
 A. J. W. Thom, V. Vanovschi, C. F. Williams, Q. Wu and Z.-Q. You. 


 Intel X86 Linux Version

 Q-chem begins on Wed May 29 17:32:42 2013  

 Parallel job on  1  processors
Processing $rem in /usr/local/qchem/config/preferences.

theFileMan(): MAXOPENFILES=974 MAX_SUB_FILE_NUM=16
Maximum size of a physical file is 2.0 GB, maximum size of a tmp-file is 32.0 GB


--------------------------------------------------------------
User input:
--------------------------------------------------------------

$molecule
1,2
C          0.00543        0.00000        0.00109
C          0.00074        0.00000        1.31834
Cl         1.44660        0.00000       -0.93685
H         -0.89497        0.00000       -0.60160
H          0.91877        0.00000        1.89436
H         -0.94360        0.00000        1.85059
$end

$comment
positive
$end

$xc_functional
C PBE   1.00
X wPBE  1.00
$end

$rem
SYMMETRY_DECOMPOSITION	0
LRC_DFT                 true
exchange 		general
BASIS                   g3large
omega			420
mem_static              760
max_scf_cycles          200
scf_final_print         1
sym_ignore              true
$end

--------------------------------------------------------------
 Writing REM_CC_EA            6
 ----------------------------------------------------
       Standard Nuclear Orientation (Angstroms)
    I     Atom         X            Y            Z
 ----------------------------------------------------
    1      C       0.005430     0.000000     0.001090
    2      C       0.000740     0.000000     1.318340
    3      Cl      1.446600     0.000000    -0.936850
    4      H      -0.894970     0.000000    -0.601600
    5      H       0.918770     0.000000     1.894360
    6      H      -0.943600     0.000000     1.850590
 ----------------------------------------------------
 Nuclear Repulsion Energy =    89.3748630433 hartrees
 There are       16 alpha and       15 beta electrons
 Requested basis set is G3large
 There are 57 shells and 180 basis functions

Total QAlloc Memory Limit   2000 MB
Mega-Array Size       743 MB
MEM_STATIC part       760 MB

                       Distance Matrix (Angstroms)
             C (  1)   C (  2)   Cl(  3)   H (  4)   H (  5)
   C (  2)  1.317258
   Cl(  3)  1.719506  2.678879
   H (  4)  1.083492  2.118600  2.365448
   H (  5)  2.102061  1.083780  2.879992  3.085364
   H (  6)  2.078776  1.084006  3.671904  2.452672  1.862884
 
 A cutoff of  1.0D-08 yielded   1525 shell pairs
 There are  15393 function pairs ( 20035 Cartesian)
Evaluating contribution to one-electron hamiltonian from nuclear
 Smallest overlap matrix eigenvalue = 7.82E-05

 Q-Chem warning in module mkSTV.C, line 194:

 Overlap eigenvalue is smaller than square root of threshold

 Multipole matrices computed through 2nd order

  Scale SEOQF with 1.000000e-01/1.000000e-01/1.000000e-01

 Standard Electronic Orientation quadrupole field applied
 Nucleus-field energy     =    -0.0000000021 hartrees
 Guess from superposition of atomic densities
 Warning:  Energy on first SCF cycle will be non-variational
 Long-range K will be added via erf
 Coulomb attenuation parameter = 0.42 bohr**(-1)
 An unrestricted Kohn-Sham SCF calculation will be
 performed using Pulay DIIS extrapolation
 Exchange:  wPBE + LR-HF      Correlation:  PBE
 Using SG-1 standard quadrature grid
 SCF converges when DIIS error is below 1.0E-05
 Requested basis set is G3large
 There are 57 shells and 180 basis functions
 A cutoff of  1.0D-08 yielded   1525 shell pairs
 There are  15393 function pairs ( 20035 Cartesian)
 Warning!  Inaccurate integrated density:
   Number of electrons =    31
   Numerical integral  =    31.999934000846
   Relative error      =     3.2255935511 %
 ---------------------------------------
  Cycle       Energy         DIIS Error
 ---------------------------------------
    1    -538.6499418686      2.97E-02
    2    -537.5730531392      3.11E-03
    3    -537.6180220229      2.55E-03
    4    -537.6430665099      5.18E-04
    5    -537.6464676489      2.44E-04
    6    -537.6477458233      1.07E-04
    7    -537.6485514929      5.90E-05
    8    -537.6489239433      3.79E-05
    9    -537.6491200778      2.39E-05
   10    -537.6492208564      1.01E-05
   11    -537.6492393248      4.02E-06 Convergence criterion met
 ---------------------------------------
 One-Electron    Energy =  -907.9037002586
 Total Coulomb   Energy =   320.5530018766
 Alpha Exchange  Energy =    -3.4044932234
 Beta  Exchange  Energy =    -3.1948620024
 DFT   Exchange  Energy =   -31.9697791624
 DFT Correlation Energy =    -1.1042695957
 Nuclear Repu.   Energy =    89.3748630411
 Nuclear Attr.   Energy = -1444.6730519601
 Kinetic         Energy =   536.7693517015
 <S^2> = 0.7658
 SCF time:  CPU 128.80 s  wall 129.75 s
 Final Alpha MO Eigenvalues
            1           2           3           4           5           6
    1-101.1862774 -10.4819281 -10.4362346  -9.7052643  -7.5219518  -7.5197010
            7           8           9          10          11          12
    1  -7.5095367  -1.3218551  -1.2058871  -0.9987478  -0.9021842  -0.8613380
           13          14          15          16          17          18
    1  -0.7960486  -0.7714306  -0.7017423  -0.6872205  -0.2031371  -0.1210248
           19          20          21
    1  -0.1046361  -0.0826502  -0.0711464
 Final Beta MO Eigenvalues
            1           2           3           4           5           6
    1-101.1839051 -10.4793184 -10.4286238  -9.7031474  -7.5207572  -7.5131158
            7           8           9          10          11          12
    1  -7.5083098  -1.3073387  -1.1735202  -0.9877672  -0.8954780  -0.8540422
           13          14          15          16          17          18
    1  -0.7676460  -0.7274469  -0.6960177  -0.3641034  -0.1480359  -0.1151706
           19          20
    1  -0.1032591  -0.0818178
 Analysis of SCF Wavefunction
 
 --------------------------------------------------------------
                    Orbital Energies (a.u.)
 --------------------------------------------------------------
 
 Alpha MOs
 -- Occupied --
******* -10.482 -10.436  -9.705  -7.522  -7.520  -7.510  -1.322
 -1.206  -0.999  -0.902  -0.861  -0.796  -0.771  -0.702  -0.687
 -- Virtual --
 -0.203  -0.121  -0.105  -0.083  -0.071  -0.050  -0.027  -0.022
 -0.013  -0.004   0.009   0.009   0.020   0.032   0.043   0.058
  0.063   0.079   0.112   0.138   0.160   0.183   0.193   0.208
  0.262   0.286   0.343   0.363   0.369   0.376   0.381   0.393
  0.429   0.445   0.463   0.507   0.516   0.525   0.548   0.580
  0.587   0.666   0.710   0.741   0.773   0.850   0.856   0.878
  0.921   0.927   0.936   0.940   0.964   0.982   1.015   1.043
  1.058   1.109   1.183   1.202   1.231   1.250   1.277   1.296
  1.342   1.390   1.422   1.422   1.461   1.548   1.587   1.754
  2.011   2.118   2.230   2.326   2.424   2.468   2.491   2.545
  2.585   2.586   2.643   2.736   2.772   2.831   2.914   2.938
  2.988   3.009   3.053   3.078   3.105   3.149   3.155   3.209
  3.263   3.418   3.457   3.500   3.505   3.563   3.628   3.851
  3.942   3.984   4.050   4.071   4.170   4.188   4.209   4.217
  4.219   4.284   4.292   4.335   4.470   4.472   4.564   4.850
  4.862   4.932   4.993   5.000   5.080   5.306   5.403   5.642
  5.835   9.639  20.302  20.368  20.592  23.538  24.398  26.836
 26.878  26.894  26.925  26.963  26.989  27.111  27.841  27.913
 27.941  28.055  36.539  36.543  36.543  36.545  36.552  36.562
 36.575  40.517  40.593  40.663  40.797  40.802  40.849  40.919
 40.926  40.988  41.034 215.505
 
 Beta MOs
 -- Occupied --
******* -10.479 -10.429  -9.703  -7.521  -7.513  -7.508  -1.307
 -1.174  -0.988  -0.895  -0.854  -0.768  -0.727  -0.696
 -- Virtual --
 -0.364  -0.148  -0.115  -0.103  -0.082  -0.070  -0.045  -0.024
 -0.021  -0.010   0.001   0.010   0.014   0.022   0.033   0.045
  0.063   0.065   0.080   0.114   0.149   0.165   0.200   0.203
  0.212   0.266   0.290   0.348   0.377   0.380   0.391   0.396
  0.397   0.449   0.451   0.476   0.515   0.532   0.534   0.551
  0.584   0.593   0.675   0.716   0.754   0.776   0.857   0.863
  0.881   0.926   0.939   0.947   0.948   0.972   0.993   1.021
  1.052   1.071   1.115   1.198   1.207   1.237   1.257   1.288
  1.300   1.349   1.393   1.429   1.435   1.470   1.556   1.591
  1.758   2.031   2.121   2.234   2.336   2.429   2.495   2.529
  2.567   2.600   2.613   2.660   2.750   2.801   2.834   2.936
  2.954   3.017   3.027   3.070   3.085   3.122   3.162   3.169
  3.223   3.271   3.426   3.485   3.515   3.525   3.570   3.640
  3.852   3.948   3.988   4.058   4.077   4.187   4.205   4.222
  4.226   4.233   4.294   4.299   4.352   4.478   4.501   4.569
  4.856   4.869   4.943   5.000   5.002   5.084   5.308   5.406
  5.644   5.839   9.643  20.313  20.370  20.594  23.544  24.405
 26.843  26.888  26.899  26.926  26.973  26.991  27.127  27.845
 27.917  27.945  28.058  36.541  36.545  36.545  36.546  36.553
 36.562  36.576  40.525  40.598  40.679  40.806  40.810  40.863
 40.920  40.938  40.992  41.036 215.508
 --------------------------------------------------------------
 
          Ground-State Mulliken Net Atomic Charges

     Atom                 Charge (a.u.)    Spin (a.u.)
  --------------------------------------------------------
      1 C                     0.283051       0.174095
      2 C                     0.059562       0.542024
      3 Cl                    0.132854       0.325823
      4 H                     0.176068      -0.005926
      5 H                     0.176825      -0.017084
      6 H                     0.171639      -0.018933
  --------------------------------------------------------
  Sum of atomic charges =     1.000000
  Sum of spin   charges =     1.000000

 -----------------------------------------------------------------
                    Cartesian Multipole Moments
 -----------------------------------------------------------------
    Charge (ESU x 10^10)
                 4.8032
    Dipole Moment (Debye)
         X       1.2201      Y       0.0004      Z       1.7944
       Tot       2.1699
    Quadrupole Moments (Debye-Ang)
        XX     -16.1593     XY      -0.0002     YY     -22.4594
        XZ      -2.4699     YZ      -0.0004     ZZ     -13.7152
    Octapole Moments (Debye-Ang^2)
       XXX     -40.6515    XXY      -0.0019    XYY     -15.4750
       YYY       0.0003    XXZ      -1.0664    XYZ       0.0013
       YYZ       2.2501    XZZ     -12.4118    YZZ       0.0024
       ZZZ      17.9469
    Hexadecapole Moments (Debye-Ang^3)
      XXXX    -151.1307   XXXY      -0.0060   XXYY     -31.5398
      XYYY      -0.0002   YYYY     -21.6940   XXXZ      31.3640
      XXYZ       0.0008   XYYZ      14.1209   YYYZ      -0.0001
      XXZZ     -37.8006   XYZZ       0.0034   YYZZ     -29.1798
      XZZZ      40.0628   YZZZ       0.0000   ZZZZ    -130.5563
 -----------------------------------------------------------------
 Total job time:  129.97s(wall), 129.01s(cpu) 
 Wed May 29 17:34:52 2013

        *************************************************************
        *                                                           *
        *  Thank you very much for using Q-Chem.  Have a nice day.  *
        *                                                           *
        *************************************************************


0 sent ACK to 0 
now end server 0 ... 
