Process 0 of 1 is on cl071.stfx.acenet.ca - thread support 1
initial socket setup ...start
initial socket setup ...done 
now start server 0 ... 

cmd = /usr/bin/ssh clhead /usr/local/qchem/bin/get_hostid 1680301230 > /scratch/tmp/6065348.1.short.q/qchem31807/lic.dat
                  Welcome to Q-Chem
     A Quantum Leap Into The Future Of Chemistry

 Y. Shao, L. Fusti-Molnar, Y. Jung, J. Kussmann, C. Ochsenfeld,
 S. T. Brown, A. T. B. Gilbert, L. V. Slipchenko,S. V. Levchenko,
 D. P. O'Neill, R. A. DiStasio Jr., R. C. Lochan, T. Wang,
 G. J. O. Beran, N. A. Besley, J. M. Herbert, C. Y. Lin,
 T. Van Voorhis, S. H. Chien, A. Sodt, R. P. Steele, 
 V. A. Rassolov, P. E. Maslen, P. P. Korambath, R. D. Adamson,
 B. Austin, J. Baker, E. F. C. Byrd, H. Dachsel, R. J. Doerksen,
 A. Dreuw, B. D. Dunietz, A. D. Dutoi, T. R. Furlani,
 S. R. Gwaltney, A. Heyden, S. Hirata, C.-P. Hsu, G. Kedziora,
 R. Z. Khaliullin, P. Klunzinger, A. M. Lee, M. S. Lee, W. Liang,
 I. Lotan, N. Nair, B. Peters, E. I. Proynov, P. A. Pieniazek, 
 Y. M. Rhee, J. Ritchie, E. Rosta, C. D. Sherrill, 
 A. C. Simmonett, J. E. Subotnik, H. L. Woodcock III,
 W. Zhang, A. T. Bell, A. K. Chakraborty, D. M. Chipman,
 F. J. Keil, A. Warshel, W. J. Hehre, H. F. Schaefer III,
 J. Kong, A. I. Krylov, P. M. W. Gill, M. Head-Gordon,
 Q-Chem, Version 3.1, Q-Chem, Inc., Pittsburgh, PA (2007).

 Additional authors for Version 3.1: 
 Z. Gan, Y. Zhao, N. E. Schultz, D. Truhlar, E. Epifanovsky and M. Oana.

 Additional authors for Version 3.2: 
 R. Baer, B. R. Brooks, D. Casanova, J.-D. Chai, C.-L. Cheng, 
 C. Cramer, D. Crittenden, A. Ghysels, G. Hawkins, E. G. Hohenstein, 
 C. Kelley, W. Kurlancheek, D. Liotard, E. Livshits, P. Manohar, 
 A. Marenich, D. Neuhauser, R. Olson, M. A. Rohrdanz, K. S. Thanthiriwatte, 
 A. J. W. Thom, V. Vanovschi, C. F. Williams, Q. Wu and Z.-Q. You. 


 Intel X86 Linux Version

 Q-chem begins on Mon Jul  8 17:00:19 2013  

 Parallel job on  1  processors
Processing $rem in /usr/local/qchem/config/preferences.

theFileMan(): MAXOPENFILES=974 MAX_SUB_FILE_NUM=16
Maximum size of a physical file is 2.0 GB, maximum size of a tmp-file is 32.0 GB


--------------------------------------------------------------
User input:
--------------------------------------------------------------

$molecule
-1,1
N          0.00399        0.00000        0.00166
O          0.00042        0.00000        1.19663
O          0.86345        0.00000       -0.82843
$end

$comment
negative
$end

$xc_functional
C PBE   1.00
X wPBE  1.00
$end

$rem
SYMMETRY_DECOMPOSITION	0
exchange 		general
LRC_DFT                 true
BASIS                   g3large
omega			210
mem_static              760
max_scf_cycles          200
scf_final_print         1
sym_ignore              true
$end

--------------------------------------------------------------
 Writing REM_CC_EA            3
 ----------------------------------------------------
       Standard Nuclear Orientation (Angstroms)
    I     Atom         X            Y            Z
 ----------------------------------------------------
    1      N       0.003990     0.000000     0.001660
    2      O       0.000420     0.000000     1.196630
    3      O       0.863450     0.000000    -0.828430
 ----------------------------------------------------
 Nuclear Repulsion Energy =    64.9848850742 hartrees
 There are       12 alpha and       12 beta electrons
 Requested basis set is G3large
 There are 30 shells and 126 basis functions

Total QAlloc Memory Limit   2000 MB
Mega-Array Size       743 MB
MEM_STATIC part       760 MB

                       Distance Matrix (Angstroms)
             N (  1)   O (  2)
   O (  2)  1.194975
   O (  3)  1.194873  2.201293
 
 A cutoff of  1.0D-08 yielded    433 shell pairs
 There are   7808 function pairs ( 10265 Cartesian)
Evaluating contribution to one-electron hamiltonian from nuclear
 Smallest overlap matrix eigenvalue = 1.55E-03
 Multipole matrices computed through 2nd order

  Scale SEOQF with 1.000000e-01/1.000000e-01/1.000000e-01

 Standard Electronic Orientation quadrupole field applied
 Nucleus-field energy     =    -0.0000000016 hartrees
 Guess from superposition of atomic densities
 Warning:  Energy on first SCF cycle will be non-variational
 Long-range K will be added via erf
 Coulomb attenuation parameter = 0.21 bohr**(-1)
 A restricted Kohn-Sham SCF calculation will be
 performed using Pulay DIIS extrapolation
 Exchange:  wPBE + LR-HF      Correlation:  PBE
 Using SG-1 standard quadrature grid
 SCF converges when DIIS error is below 1.0E-05
 Requested basis set is G3large
 There are 30 shells and 126 basis functions
 A cutoff of  1.0D-08 yielded    433 shell pairs
 There are   7808 function pairs ( 10265 Cartesian)
 Warning!  Inaccurate integrated density:
   Number of electrons =    24
   Numerical integral  =    23.000032766208
   Relative error      =    -4.1665301408 %
 ---------------------------------------
  Cycle       Energy         DIIS Error
 ---------------------------------------
    1    -205.6344393680      4.61E-02
    2    -204.8739068248      1.03E-02
    3    -204.8000136333      1.38E-02
    4    -205.0309637585      1.30E-03
    5    -205.0329396572      4.77E-04
    6    -205.0334066180      2.42E-04
    7    -205.0335012610      1.64E-04
    8    -205.0335499874      3.55E-05
    9    -205.0335598448      8.33E-06 Convergence criterion met
 ---------------------------------------
 One-Electron    Energy =  -415.9985709190
 Total Coulomb   Energy =   170.0675444874
 Alpha Exchange  Energy =    -1.3698215159
 Beta  Exchange  Energy =    -1.3698215159
 DFT   Exchange  Energy =   -20.5390979516
 DFT Correlation Energy =    -0.8086775024
 Nuclear Repu.   Energy =    64.9848850726
 Nuclear Attr.   Energy =  -620.9192596084
 Kinetic         Energy =   204.9206886894
 SCF time:  CPU 22.26 s  wall 22.78 s
 Final Alpha MO Eigenvalues
            1           2           3           4           5           6
    1 -18.6433458 -18.6433060 -13.9893170  -0.9927688  -0.8499937  -0.4136590
            7           8           9          10          11          12
    1  -0.3265207  -0.3233100  -0.3056760  -0.1480179  -0.1281247  -0.0074661
           13          14          15          16          17
    1   0.2765402   0.2808262   0.2962951   0.3302099   0.3311217
 Analysis of SCF Wavefunction
 
 --------------------------------------------------------------
                    Orbital Energies (a.u.)
 --------------------------------------------------------------
 
 Alpha MOs
 -- Occupied --
-18.643 -18.643 -13.989  -0.993  -0.850  -0.414  -0.327  -0.323
 -0.306  -0.148  -0.128  -0.007
 -- Virtual --
  0.277   0.281   0.296   0.330   0.331   0.420   0.423   0.439
  0.458   0.475   0.492   0.572   0.619   0.629   0.799   1.013
  1.019   1.066   1.155   1.244   1.249   1.290   1.291   1.297
  1.352   1.364   1.376   1.400   1.711   1.769   1.780   1.811
  1.853   1.887   1.969   2.145   2.313   2.481   2.555   2.681
  2.705   2.867   3.755   3.769   3.878   3.922   3.932   3.983
  4.244   4.245   4.629   4.636   4.705   4.769   4.869   4.924
  4.985   5.175   5.179   5.204   5.249   5.257   5.299   5.302
  5.327   5.522   5.647   5.700   5.727   5.767   5.925   6.378
  6.663   6.952   6.961   6.982   7.005   7.116   7.226   7.297
  7.341   7.375   7.431   7.623   7.816   7.990   8.332  36.022
 37.461  37.645  38.502  40.512  40.602  40.669  40.803  40.903
 43.787  43.801  43.843  43.854  43.893  43.949  43.955  43.989
 44.076  44.135  45.799  45.808  45.819  45.954  46.444  46.784
 50.148  50.215
 --------------------------------------------------------------
 
          Ground-State Mulliken Net Atomic Charges

     Atom                 Charge (a.u.)
  ----------------------------------------
      1 N                    -1.152852
      2 O                     0.076240
      3 O                     0.076612
  ----------------------------------------
  Sum of atomic charges =    -1.000000

 -----------------------------------------------------------------
                    Cartesian Multipole Moments
 -----------------------------------------------------------------
    Charge (ESU x 10^10)
                -4.8032
    Dipole Moment (Debye)
         X      -1.5152      Y       0.0000      Z      -0.6463
       Tot       1.6473
    Quadrupole Moments (Debye-Ang)
        XX     -23.6069     XY      -0.0002     YY     -19.1095
        XZ       0.8069     YZ      -0.0002     ZZ     -25.1572
    Octapole Moments (Debye-Ang^2)
       XXX     -20.5713    XXY      -0.0001    XYY      -5.4982
       YYY      -0.0002    XXZ      -1.0139    XYZ      -0.0001
       YYZ      -2.3431    XZZ      -7.8754    YZZ      -0.0003
       ZZZ     -11.1110
    Hexadecapole Moments (Debye-Ang^3)
      XXXX     -66.9579   XXXY      -0.0003   XXYY     -14.6744
      XYYY      -0.0003   YYYY     -25.8038   XXXZ      12.5087
      XXYZ      -0.0002   XYYZ       3.5465   YYYZ      -0.0004
      XXZZ     -29.7684   XYZZ      -0.0002   YYZZ     -21.4856
      XZZZ      10.9004   YZZZ      -0.0008   ZZZZ    -111.9154
 -----------------------------------------------------------------
 Total job time:  22.92s(wall), 22.38s(cpu) 
 Mon Jul  8 17:00:42 2013

        *************************************************************
        *                                                           *
        *  Thank you very much for using Q-Chem.  Have a nice day.  *
        *                                                           *
        *************************************************************


0 sent ACK to 0 
now end server 0 ... 
 
**********************************************************************
Job 2 of 3 
**********************************************************************
 
Process 0 of 1 is on cl071.stfx.acenet.ca - thread support 1
initial socket setup ...start
initial socket setup ...done 
now start server 0 ... 

cmd = /usr/bin/ssh clhead /usr/local/qchem/bin/get_hostid 219431127 > /scratch/tmp/6065348.1.short.q/qchem31807/lic.dat
                  Welcome to Q-Chem
     A Quantum Leap Into The Future Of Chemistry

 Y. Shao, L. Fusti-Molnar, Y. Jung, J. Kussmann, C. Ochsenfeld,
 S. T. Brown, A. T. B. Gilbert, L. V. Slipchenko,S. V. Levchenko,
 D. P. O'Neill, R. A. DiStasio Jr., R. C. Lochan, T. Wang,
 G. J. O. Beran, N. A. Besley, J. M. Herbert, C. Y. Lin,
 T. Van Voorhis, S. H. Chien, A. Sodt, R. P. Steele, 
 V. A. Rassolov, P. E. Maslen, P. P. Korambath, R. D. Adamson,
 B. Austin, J. Baker, E. F. C. Byrd, H. Dachsel, R. J. Doerksen,
 A. Dreuw, B. D. Dunietz, A. D. Dutoi, T. R. Furlani,
 S. R. Gwaltney, A. Heyden, S. Hirata, C.-P. Hsu, G. Kedziora,
 R. Z. Khaliullin, P. Klunzinger, A. M. Lee, M. S. Lee, W. Liang,
 I. Lotan, N. Nair, B. Peters, E. I. Proynov, P. A. Pieniazek, 
 Y. M. Rhee, J. Ritchie, E. Rosta, C. D. Sherrill, 
 A. C. Simmonett, J. E. Subotnik, H. L. Woodcock III,
 W. Zhang, A. T. Bell, A. K. Chakraborty, D. M. Chipman,
 F. J. Keil, A. Warshel, W. J. Hehre, H. F. Schaefer III,
 J. Kong, A. I. Krylov, P. M. W. Gill, M. Head-Gordon,
 Q-Chem, Version 3.1, Q-Chem, Inc., Pittsburgh, PA (2007).

 Additional authors for Version 3.1: 
 Z. Gan, Y. Zhao, N. E. Schultz, D. Truhlar, E. Epifanovsky and M. Oana.

 Additional authors for Version 3.2: 
 R. Baer, B. R. Brooks, D. Casanova, J.-D. Chai, C.-L. Cheng, 
 C. Cramer, D. Crittenden, A. Ghysels, G. Hawkins, E. G. Hohenstein, 
 C. Kelley, W. Kurlancheek, D. Liotard, E. Livshits, P. Manohar, 
 A. Marenich, D. Neuhauser, R. Olson, M. A. Rohrdanz, K. S. Thanthiriwatte, 
 A. J. W. Thom, V. Vanovschi, C. F. Williams, Q. Wu and Z.-Q. You. 


 Intel X86 Linux Version

 Q-chem begins on Mon Jul  8 17:00:44 2013  

 Parallel job on  1  processors
Processing $rem in /usr/local/qchem/config/preferences.

theFileMan(): MAXOPENFILES=974 MAX_SUB_FILE_NUM=16
Maximum size of a physical file is 2.0 GB, maximum size of a tmp-file is 32.0 GB


--------------------------------------------------------------
User input:
--------------------------------------------------------------

$molecule
0,2
N          0.00399        0.00000        0.00166
O          0.00042        0.00000        1.19663
O          0.86345        0.00000       -0.82843
$end

$comment
neutral
$end

$xc_functional
C PBE   1.00
X wPBE  1.00
$end


$rem
SYMMETRY_DECOMPOSITION	0
LRC_DFT                 true
exchange 		general
BASIS                   g3large
omega			210
mem_static              760
max_scf_cycles          200
scf_final_print         1
sym_ignore              true
$end

--------------------------------------------------------------
 Writing REM_CC_EA            3
 ----------------------------------------------------
       Standard Nuclear Orientation (Angstroms)
    I     Atom         X            Y            Z
 ----------------------------------------------------
    1      N       0.003990     0.000000     0.001660
    2      O       0.000420     0.000000     1.196630
    3      O       0.863450     0.000000    -0.828430
 ----------------------------------------------------
 Nuclear Repulsion Energy =    64.9848850742 hartrees
 There are       12 alpha and       11 beta electrons
 Requested basis set is G3large
 There are 30 shells and 126 basis functions

Total QAlloc Memory Limit   2000 MB
Mega-Array Size       743 MB
MEM_STATIC part       760 MB

                       Distance Matrix (Angstroms)
             N (  1)   O (  2)
   O (  2)  1.194975
   O (  3)  1.194873  2.201293
 
 A cutoff of  1.0D-08 yielded    433 shell pairs
 There are   7808 function pairs ( 10265 Cartesian)
Evaluating contribution to one-electron hamiltonian from nuclear
 Smallest overlap matrix eigenvalue = 1.55E-03
 Multipole matrices computed through 2nd order

  Scale SEOQF with 1.000000e-01/1.000000e-01/1.000000e-01

 Standard Electronic Orientation quadrupole field applied
 Nucleus-field energy     =    -0.0000000016 hartrees
 Guess from superposition of atomic densities
 Warning:  Energy on first SCF cycle will be non-variational
 Long-range K will be added via erf
 Coulomb attenuation parameter = 0.21 bohr**(-1)
 An unrestricted Kohn-Sham SCF calculation will be
 performed using Pulay DIIS extrapolation
 Exchange:  wPBE + LR-HF      Correlation:  PBE
 Using SG-1 standard quadrature grid
 SCF converges when DIIS error is below 1.0E-05
 Requested basis set is G3large
 There are 30 shells and 126 basis functions
 A cutoff of  1.0D-08 yielded    433 shell pairs
 There are   7808 function pairs ( 10265 Cartesian)
 ---------------------------------------
  Cycle       Energy         DIIS Error
 ---------------------------------------
    1    -205.6344393680      4.61E-02
    2    -204.8447435784      9.84E-03
    3    -204.6377081195      1.64E-02
    4    -204.9877921712      7.45E-04
    5    -204.9884113090      2.48E-04
    6    -204.9884770775      1.96E-04
    7    -204.9885346868      5.77E-05
    8    -204.9885489888      2.15E-05
    9    -204.9885528822      9.15E-06 Convergence criterion met
 ---------------------------------------
 One-Electron    Energy =  -408.7622209145
 Total Coulomb   Energy =   162.5671264577
 Alpha Exchange  Energy =    -1.3773516544
 Beta  Exchange  Energy =    -1.2587695256
 DFT   Exchange  Energy =   -20.3634937470
 DFT Correlation Energy =    -0.7787285709
 Nuclear Repu.   Energy =    64.9848850726
 Nuclear Attr.   Energy =  -613.3165768100
 Kinetic         Energy =   204.5543558955
 <S^2> = 0.7522
 SCF time:  CPU 26.49 s  wall 26.94 s
 Final Alpha MO Eigenvalues
            1           2           3           4           5           6
    1 -18.9760185 -18.9756458 -14.3377887  -1.3183281  -1.1768079  -0.7290065
            7           8           9          10          11          12
    1  -0.6391490  -0.6372668  -0.6329456  -0.4499092  -0.4438714  -0.3484607
           13          14          15          16          17
    1  -0.0340579   0.0863358   0.1256232   0.1383516   0.1410670
 Final Beta MO Eigenvalues
            1           2           3           4           5           6
    1 -18.9682657 -18.9680148 -14.3288555  -1.3041900  -1.1606818  -0.7034756
            7           8           9          10          11          12
    1  -0.6291745  -0.6153520  -0.6035454  -0.4433386  -0.4141508  -0.0910872
           13          14          15          16
    1  -0.0192221   0.0922687   0.1276706   0.1434487
 Analysis of SCF Wavefunction
 
 --------------------------------------------------------------
                    Orbital Energies (a.u.)
 --------------------------------------------------------------
 
 Alpha MOs
 -- Occupied --
-18.976 -18.976 -14.338  -1.318  -1.177  -0.729  -0.639  -0.637
 -0.633  -0.450  -0.444  -0.348
 -- Virtual --
 -0.034   0.086   0.126   0.138   0.141   0.218   0.233   0.247
  0.258   0.280   0.306   0.309   0.370   0.417   0.480   0.734
  0.749   0.797   0.881   0.938   0.983   1.014   1.035   1.035
  1.085   1.093   1.103   1.108   1.414   1.478   1.510   1.540
  1.543   1.583   1.669   1.839   2.024   2.168   2.258   2.393
  2.414   2.558   3.422   3.439   3.553   3.590   3.607   3.669
  3.922   3.926   4.296   4.313   4.381   4.446   4.528   4.577
  4.641   4.859   4.869   4.887   4.935   4.951   4.981   4.984
  5.000   5.208   5.322   5.391   5.409   5.450   5.605   6.042
  6.346   6.629   6.635   6.651   6.679   6.792   6.897   6.968
  7.035   7.058   7.119   7.300   7.504   7.670   7.994  35.676
 37.116  37.288  38.158  40.158  40.249  40.327  40.454  40.555
 43.452  43.467  43.511  43.517  43.555  43.623  43.624  43.651
 43.743  43.801  45.462  45.480  45.491  45.616  46.110  46.453
 49.817  49.883
 
 Beta MOs
 -- Occupied --
-18.968 -18.968 -14.329  -1.304  -1.161  -0.703  -0.629  -0.615
 -0.604  -0.443  -0.414
 -- Virtual --
 -0.091  -0.019   0.092   0.128   0.143   0.145   0.223   0.236
  0.248   0.264   0.282   0.311   0.315   0.374   0.421   0.504
  0.757   0.758   0.801   0.897   0.956   0.992   1.034   1.039
  1.044   1.098   1.102   1.113   1.116   1.425   1.485   1.520
  1.550   1.563   1.603   1.678   1.853   2.029   2.193   2.271
  2.405   2.424   2.584   3.452   3.467   3.568   3.615   3.631
  3.677   3.934   3.940   4.321   4.324   4.393   4.458   4.565
  4.618   4.678   4.875   4.882   4.901   4.953   4.961   5.003
  5.006   5.027   5.228   5.343   5.400   5.427   5.467   5.619
  6.072   6.354   6.651   6.661   6.683   6.706   6.806   6.930
  6.982   7.040   7.073   7.132   7.329   7.519   7.689   8.023
 35.686  37.123  37.312  38.164  40.176  40.266  40.328  40.465
 40.565  43.467  43.481  43.522  43.535  43.575  43.625  43.633
 43.671  43.755  43.814  45.479  45.484  45.495  45.635  46.122
 46.462  49.825  49.892
 --------------------------------------------------------------
 
          Ground-State Mulliken Net Atomic Charges

     Atom                 Charge (a.u.)    Spin (a.u.)
  --------------------------------------------------------
      1 N                    -0.008263       0.470113
      2 O                     0.003859       0.263360
      3 O                     0.004405       0.266527
  --------------------------------------------------------
  Sum of atomic charges =     0.000000
  Sum of spin   charges =     1.000000

 -----------------------------------------------------------------
                    Cartesian Multipole Moments
 -----------------------------------------------------------------
    Charge (ESU x 10^10)
                 0.0000
    Dipole Moment (Debye)
         X      -0.2797      Y       0.0000      Z      -0.1208
       Tot       0.3047
    Quadrupole Moments (Debye-Ang)
        XX     -16.3100     XY      -0.0001     YY     -14.9787
        XZ       0.6869     YZ      -0.0002     ZZ     -17.6315
    Octapole Moments (Debye-Ang^2)
       XXX     -13.9879    XXY       0.0000    XYY      -4.3925
       YYY       0.0000    XXZ      -1.6816    XYZ      -0.0001
       YYZ      -1.8717    XZZ      -4.8289    YZZ      -0.0002
       ZZZ      -6.3457
    Hexadecapole Moments (Debye-Ang^3)
      XXXX     -37.3870   XXXY       0.0000   XXYY      -8.0686
      XYYY      -0.0001   YYYY     -11.8206   XXXZ      11.4483
      XXYZ      -0.0001   XYYZ       3.7944   YYYZ      -0.0002
      XXZZ     -19.8798   XYZZ      -0.0002   YYZZ     -15.3555
      XZZZ      11.6839   YZZZ      -0.0006   ZZZZ     -81.8247
 -----------------------------------------------------------------
 Total job time:  27.07s(wall), 26.61s(cpu) 
 Mon Jul  8 17:01:12 2013

        *************************************************************
        *                                                           *
        *  Thank you very much for using Q-Chem.  Have a nice day.  *
        *                                                           *
        *************************************************************


0 sent ACK to 0 
now end server 0 ... 
 
**********************************************************************
Job 3 of 3 
**********************************************************************
 
Process 0 of 1 is on cl071.stfx.acenet.ca - thread support 1
initial socket setup ...start
initial socket setup ...done 
now start server 0 ... 

cmd = /usr/bin/ssh clhead /usr/local/qchem/bin/get_hostid 1835092974 > /scratch/tmp/6065348.1.short.q/qchem31807/lic.dat
                  Welcome to Q-Chem
     A Quantum Leap Into The Future Of Chemistry

 Y. Shao, L. Fusti-Molnar, Y. Jung, J. Kussmann, C. Ochsenfeld,
 S. T. Brown, A. T. B. Gilbert, L. V. Slipchenko,S. V. Levchenko,
 D. P. O'Neill, R. A. DiStasio Jr., R. C. Lochan, T. Wang,
 G. J. O. Beran, N. A. Besley, J. M. Herbert, C. Y. Lin,
 T. Van Voorhis, S. H. Chien, A. Sodt, R. P. Steele, 
 V. A. Rassolov, P. E. Maslen, P. P. Korambath, R. D. Adamson,
 B. Austin, J. Baker, E. F. C. Byrd, H. Dachsel, R. J. Doerksen,
 A. Dreuw, B. D. Dunietz, A. D. Dutoi, T. R. Furlani,
 S. R. Gwaltney, A. Heyden, S. Hirata, C.-P. Hsu, G. Kedziora,
 R. Z. Khaliullin, P. Klunzinger, A. M. Lee, M. S. Lee, W. Liang,
 I. Lotan, N. Nair, B. Peters, E. I. Proynov, P. A. Pieniazek, 
 Y. M. Rhee, J. Ritchie, E. Rosta, C. D. Sherrill, 
 A. C. Simmonett, J. E. Subotnik, H. L. Woodcock III,
 W. Zhang, A. T. Bell, A. K. Chakraborty, D. M. Chipman,
 F. J. Keil, A. Warshel, W. J. Hehre, H. F. Schaefer III,
 J. Kong, A. I. Krylov, P. M. W. Gill, M. Head-Gordon,
 Q-Chem, Version 3.1, Q-Chem, Inc., Pittsburgh, PA (2007).

 Additional authors for Version 3.1: 
 Z. Gan, Y. Zhao, N. E. Schultz, D. Truhlar, E. Epifanovsky and M. Oana.

 Additional authors for Version 3.2: 
 R. Baer, B. R. Brooks, D. Casanova, J.-D. Chai, C.-L. Cheng, 
 C. Cramer, D. Crittenden, A. Ghysels, G. Hawkins, E. G. Hohenstein, 
 C. Kelley, W. Kurlancheek, D. Liotard, E. Livshits, P. Manohar, 
 A. Marenich, D. Neuhauser, R. Olson, M. A. Rohrdanz, K. S. Thanthiriwatte, 
 A. J. W. Thom, V. Vanovschi, C. F. Williams, Q. Wu and Z.-Q. You. 


 Intel X86 Linux Version

 Q-chem begins on Mon Jul  8 17:01:14 2013  

 Parallel job on  1  processors
Processing $rem in /usr/local/qchem/config/preferences.

theFileMan(): MAXOPENFILES=974 MAX_SUB_FILE_NUM=16
Maximum size of a physical file is 2.0 GB, maximum size of a tmp-file is 32.0 GB


--------------------------------------------------------------
User input:
--------------------------------------------------------------

$molecule
1,1
N          0.00399        0.00000        0.00166
O          0.00042        0.00000        1.19663
O          0.86345        0.00000       -0.82843
$end

$comment
positive
$end

$xc_functional
C PBE   1.00
X wPBE  1.00
$end

$rem
SYMMETRY_DECOMPOSITION	0
LRC_DFT                 true
exchange 		general
BASIS                   g3large
omega			210
mem_static              760
max_scf_cycles          200
scf_final_print         1
sym_ignore              true
$end

--------------------------------------------------------------
 Writing REM_CC_EA            3
 ----------------------------------------------------
       Standard Nuclear Orientation (Angstroms)
    I     Atom         X            Y            Z
 ----------------------------------------------------
    1      N       0.003990     0.000000     0.001660
    2      O       0.000420     0.000000     1.196630
    3      O       0.863450     0.000000    -0.828430
 ----------------------------------------------------
 Nuclear Repulsion Energy =    64.9848850742 hartrees
 There are       11 alpha and       11 beta electrons
 Requested basis set is G3large
 There are 30 shells and 126 basis functions

Total QAlloc Memory Limit   2000 MB
Mega-Array Size       743 MB
MEM_STATIC part       760 MB

                       Distance Matrix (Angstroms)
             N (  1)   O (  2)
   O (  2)  1.194975
   O (  3)  1.194873  2.201293
 
 A cutoff of  1.0D-08 yielded    433 shell pairs
 There are   7808 function pairs ( 10265 Cartesian)
Evaluating contribution to one-electron hamiltonian from nuclear
 Smallest overlap matrix eigenvalue = 1.55E-03
 Multipole matrices computed through 2nd order

  Scale SEOQF with 1.000000e-01/1.000000e-01/1.000000e-01

 Standard Electronic Orientation quadrupole field applied
 Nucleus-field energy     =    -0.0000000016 hartrees
 Guess from superposition of atomic densities
 Warning:  Energy on first SCF cycle will be non-variational
 Long-range K will be added via erf
 Coulomb attenuation parameter = 0.21 bohr**(-1)
 A restricted Kohn-Sham SCF calculation will be
 performed using Pulay DIIS extrapolation
 Exchange:  wPBE + LR-HF      Correlation:  PBE
 Using SG-1 standard quadrature grid
 SCF converges when DIIS error is below 1.0E-05
 Requested basis set is G3large
 There are 30 shells and 126 basis functions
 A cutoff of  1.0D-08 yielded    433 shell pairs
 There are   7808 function pairs ( 10265 Cartesian)
 Warning!  Inaccurate integrated density:
   Number of electrons =    22
   Numerical integral  =    23.000032766208
   Relative error      =     4.5456034828 %
 ---------------------------------------
  Cycle       Energy         DIIS Error
 ---------------------------------------
    1    -205.6344393680      4.61E-02
    2    -204.3138270846      1.24E-02
    3    -203.9217317899      2.28E-02
    4    -204.5653112347      1.96E-03
    5    -204.5679012759      1.20E-03
    6    -204.5674812262      1.30E-03
    7    -204.5698356356      7.25E-05
    8    -204.5697863073      2.14E-05
    9    -204.5697880064      7.84E-06 Convergence criterion met
 ---------------------------------------
 One-Electron    Energy =  -400.1476885097
 Total Coulomb   Energy =   153.9168877687
 Alpha Exchange  Energy =    -1.2606603724
 Beta  Exchange  Energy =    -1.2606603724
 DFT   Exchange  Energy =   -20.0577516025
 DFT Correlation Energy =    -0.7447999906
 Nuclear Repu.   Energy =    64.9848850726
 Nuclear Attr.   Energy =  -603.9831313503
 Kinetic         Energy =   203.8354428406
 SCF time:  CPU 22.41 s  wall 22.92 s
 Final Alpha MO Eigenvalues
            1           2           3           4           5           6
    1 -19.3820971 -19.3820041 -14.7471364  -1.6892528  -1.5495121  -1.0780747
            7           8           9          10          11          12
    1  -0.9955427  -0.9914789  -0.9838700  -0.8030334  -0.7903566  -0.4919170
           13          14          15          16
    1  -0.3885743  -0.1343399  -0.0740332  -0.0632460
 Analysis of SCF Wavefunction
 
 --------------------------------------------------------------
                    Orbital Energies (a.u.)
 --------------------------------------------------------------
 
 Alpha MOs
 -- Occupied --
-19.382 -19.382 -14.747  -1.689  -1.550  -1.078  -0.996  -0.991
 -0.984  -0.803  -0.790
 -- Virtual --
 -0.492  -0.389  -0.134  -0.074  -0.063  -0.062  -0.059   0.028
  0.034   0.044   0.068   0.079   0.113   0.123   0.140   0.204
  0.451   0.464   0.509   0.582   0.612   0.695   0.724   0.740
  0.761   0.761   0.803   0.818   0.828   1.085   1.149   1.207
  1.214   1.244   1.256   1.332   1.503   1.696   1.839   1.934
  2.075   2.088   2.230   3.074   3.092   3.194   3.236   3.253
  3.313   3.563   3.566   3.933   3.944   4.013   4.083   4.164
  4.215   4.279   4.501   4.513   4.526   4.583   4.600   4.630
  4.632   4.642   4.856   4.963   5.036   5.053   5.091   5.243
  5.675   5.979   6.262   6.269   6.285   6.313   6.424   6.534
  6.593   6.674   6.697   6.759   6.942   7.149   7.306   7.622
 35.271  36.711  36.885  37.752  39.753  39.844  39.918  40.047
 40.148  43.052  43.067  43.110  43.117  43.155  43.220  43.223
 43.251  43.341  43.400  45.061  45.077  45.088  45.215  45.708
 46.051  49.414  49.481
 --------------------------------------------------------------
 
          Ground-State Mulliken Net Atomic Charges

     Atom                 Charge (a.u.)
  ----------------------------------------
      1 N                     0.278554
      2 O                     0.360722
      3 O                     0.360724
  ----------------------------------------
  Sum of atomic charges =     1.000000

 -----------------------------------------------------------------
                    Cartesian Multipole Moments
 -----------------------------------------------------------------
    Charge (ESU x 10^10)
                 4.8032
    Dipole Moment (Debye)
         X       0.9915      Y       0.0000      Z       0.4223
       Tot       1.0777
    Quadrupole Moments (Debye-Ang)
        XX     -11.7331     XY       0.0000     YY     -12.9702
        XZ      -0.3894     YZ      -0.0001     ZZ     -10.9846
    Octapole Moments (Debye-Ang^2)
       XXX      -9.9001    XXY       0.0001    XYY      -3.8246
       YYY       0.0000    XXZ      -2.6124    XYZ      -0.0001
       YYZ      -1.6298    XZZ      -2.6566    YZZ      -0.0001
       ZZZ      -2.7395
    Hexadecapole Moments (Debye-Ang^3)
      XXXX     -25.8968   XXXY       0.0002   XXYY      -6.0634
      XYYY       0.0000   YYYY      -8.4922   XXXZ       8.5675
      XXYZ      -0.0001   XYYZ       3.3372   YYYZ      -0.0001
      XXZZ     -14.5900   XYZZ       0.0000   YYZZ     -12.4714
      XZZZ       9.9285   YZZZ      -0.0002   ZZZZ     -61.4137
 -----------------------------------------------------------------
 Total job time:  23.05s(wall), 22.53s(cpu) 
 Mon Jul  8 17:01:37 2013

        *************************************************************
        *                                                           *
        *  Thank you very much for using Q-Chem.  Have a nice day.  *
        *                                                           *
        *************************************************************


0 sent ACK to 0 
now end server 0 ... 
