Process 0 of 1 is on cl051.stfx.acenet.ca - thread support 1
initial socket setup ...start
initial socket setup ...done 
now start server 0 ... 

cmd = /usr/bin/ssh clhead /usr/local/qchem/bin/get_hostid 1406375990 > /scratch/tmp/6028451.1.short.q/qchem1160/lic.dat
                  Welcome to Q-Chem
     A Quantum Leap Into The Future Of Chemistry

 Y. Shao, L. Fusti-Molnar, Y. Jung, J. Kussmann, C. Ochsenfeld,
 S. T. Brown, A. T. B. Gilbert, L. V. Slipchenko,S. V. Levchenko,
 D. P. O'Neill, R. A. DiStasio Jr., R. C. Lochan, T. Wang,
 G. J. O. Beran, N. A. Besley, J. M. Herbert, C. Y. Lin,
 T. Van Voorhis, S. H. Chien, A. Sodt, R. P. Steele, 
 V. A. Rassolov, P. E. Maslen, P. P. Korambath, R. D. Adamson,
 B. Austin, J. Baker, E. F. C. Byrd, H. Dachsel, R. J. Doerksen,
 A. Dreuw, B. D. Dunietz, A. D. Dutoi, T. R. Furlani,
 S. R. Gwaltney, A. Heyden, S. Hirata, C.-P. Hsu, G. Kedziora,
 R. Z. Khaliullin, P. Klunzinger, A. M. Lee, M. S. Lee, W. Liang,
 I. Lotan, N. Nair, B. Peters, E. I. Proynov, P. A. Pieniazek, 
 Y. M. Rhee, J. Ritchie, E. Rosta, C. D. Sherrill, 
 A. C. Simmonett, J. E. Subotnik, H. L. Woodcock III,
 W. Zhang, A. T. Bell, A. K. Chakraborty, D. M. Chipman,
 F. J. Keil, A. Warshel, W. J. Hehre, H. F. Schaefer III,
 J. Kong, A. I. Krylov, P. M. W. Gill, M. Head-Gordon,
 Q-Chem, Version 3.1, Q-Chem, Inc., Pittsburgh, PA (2007).

 Additional authors for Version 3.1: 
 Z. Gan, Y. Zhao, N. E. Schultz, D. Truhlar, E. Epifanovsky and M. Oana.

 Additional authors for Version 3.2: 
 R. Baer, B. R. Brooks, D. Casanova, J.-D. Chai, C.-L. Cheng, 
 C. Cramer, D. Crittenden, A. Ghysels, G. Hawkins, E. G. Hohenstein, 
 C. Kelley, W. Kurlancheek, D. Liotard, E. Livshits, P. Manohar, 
 A. Marenich, D. Neuhauser, R. Olson, M. A. Rohrdanz, K. S. Thanthiriwatte, 
 A. J. W. Thom, V. Vanovschi, C. F. Williams, Q. Wu and Z.-Q. You. 


 Intel X86 Linux Version

 Q-chem begins on Tue Jun  4 15:32:20 2013  

 Parallel job on  1  processors
Processing $rem in /usr/local/qchem/config/preferences.

theFileMan(): MAXOPENFILES=974 MAX_SUB_FILE_NUM=16
Maximum size of a physical file is 2.0 GB, maximum size of a tmp-file is 32.0 GB


--------------------------------------------------------------
User input:
--------------------------------------------------------------

$molecule
-1,2
Li         0.00000        0.00000       -0.02802
H          0.00000        0.00000        1.64909
$end

$comment
negative
$end

$xc_functional
C PBE   1.00
X wPBE  1.00
$end

$rem
SYMMETRY_DECOMPOSITION	0
exchange 		general
LRC_DFT                 true
BASIS                   g3large
omega			200
mem_static              760
max_scf_cycles          200
scf_final_print         1
sym_ignore              true
$end

--------------------------------------------------------------
 Writing REM_CC_EA            2
 ----------------------------------------------------
       Standard Nuclear Orientation (Angstroms)
    I     Atom         X            Y            Z
 ----------------------------------------------------
    1      Li      0.000000     0.000000    -0.028020
    2      H       0.000000     0.000000     1.649090
 ----------------------------------------------------
 Nuclear Repulsion Energy =     0.9465876612 hartrees
 There are        3 alpha and        2 beta electrons
 Requested basis set is G3large
 There are 16 shells and 52 basis functions

Total QAlloc Memory Limit   2000 MB
Mega-Array Size       743 MB
MEM_STATIC part       760 MB

                       Distance Matrix (Angstroms)
             Li(  1)
   H (  2)  1.677110
 
 A cutoff of  1.0D-08 yielded    136 shell pairs
 There are   1462 function pairs (  1834 Cartesian)
Evaluating contribution to one-electron hamiltonian from nuclear
 Smallest overlap matrix eigenvalue = 4.09E-03
 Multipole matrices computed through 2nd order

  Scale SEOQF with 1.000000e-02/1.000000e-02/1.000000e-02

 Standard Electronic Orientation quadrupole field applied
 Guess from superposition of atomic densities
 Warning:  Energy on first SCF cycle will be non-variational
 Long-range K will be added via erf
 Coulomb attenuation parameter = 0.2 bohr**(-1)
 An unrestricted Kohn-Sham SCF calculation will be
 performed using Pulay DIIS extrapolation
 Exchange:  wPBE + LR-HF      Correlation:  PBE
 Using SG-1 standard quadrature grid
 SCF converges when DIIS error is below 1.0E-05
 Requested basis set is G3large
 There are 16 shells and 52 basis functions
 A cutoff of  1.0D-08 yielded    136 shell pairs
 There are   1462 function pairs (  1834 Cartesian)
 Warning!  Inaccurate integrated density:
   Number of electrons =     5
   Numerical integral  =     4.012981843575
   Relative error      =   -19.7403631285 %
 ---------------------------------------
  Cycle       Energy         DIIS Error
 ---------------------------------------
    1      -7.7879666059      4.72E-03
    2      -7.9596312838      7.43E-03
    3      -7.9966013828      4.61E-03
    4      -8.0322839722      6.56E-04
 Warning!  Inaccurate integrated density:
   Number of electrons =     5
   Numerical integral  =     4.994235073945
   Relative error      =    -0.1152985211 %
    5      -8.0382637270      4.45E-04
 Warning!  Inaccurate integrated density:
   Number of electrons =     5
   Numerical integral  =     4.992351878316
   Relative error      =    -0.1529624337 %
    6      -8.0432314770      3.83E-04
 Warning!  Inaccurate integrated density:
   Number of electrons =     5
   Numerical integral  =     4.992426323195
   Relative error      =    -0.1514735361 %
    7      -8.0460815442      4.03E-04
 Warning!  Inaccurate integrated density:
   Number of electrons =     5
   Numerical integral  =     4.991210341978
   Relative error      =    -0.1757931604 %
    8      -8.0428180754      3.35E-04
 Warning!  Inaccurate integrated density:
   Number of electrons =     5
   Numerical integral  =     4.989804521463
   Relative error      =    -0.2039095707 %
    9      -8.0399299916      2.27E-04
 Warning!  Inaccurate integrated density:
   Number of electrons =     5
   Numerical integral  =     4.987842030573
   Relative error      =    -0.2431593885 %
   10      -8.0402383561      1.49E-04
 Warning!  Inaccurate integrated density:
   Number of electrons =     5
   Numerical integral  =     4.985031457614
   Relative error      =    -0.2993708477 %
   11      -8.0407833844      7.91E-05
 Warning!  Inaccurate integrated density:
   Number of electrons =     5
   Numerical integral  =     4.984928586479
   Relative error      =    -0.3014282704 %
   12      -8.0407077219      5.43E-05
 Warning!  Inaccurate integrated density:
   Number of electrons =     5
   Numerical integral  =     4.984447986290
   Relative error      =    -0.3110402742 %
   13      -8.0407386023      2.05E-05
 Warning!  Inaccurate integrated density:
   Number of electrons =     5
   Numerical integral  =     4.984283841324
   Relative error      =    -0.3143231735 %
   14      -8.0407460158      1.24E-05
 Warning!  Inaccurate integrated density:
   Number of electrons =     5
   Numerical integral  =     4.984272165458
   Relative error      =    -0.3145566908 %
   15      -8.0407485525      6.21E-06 Convergence criterion met
 ---------------------------------------
 One-Electron    Energy =   -12.7032891451
 Total Coulomb   Energy =     5.9486440135
 Alpha Exchange  Energy =    -0.2473392498
 Beta  Exchange  Energy =    -0.2105935731
 DFT   Exchange  Energy =    -1.6870178435
 DFT Correlation Energy =    -0.0877404157
 Nuclear Repu.   Energy =     0.9465876611
 Nuclear Attr.   Energy =   -20.6543662788
 Kinetic         Energy =     7.9510771337
 <S^2> = 0.7504
 SCF time:  CPU 8.39 s  wall 9.82 s
 Final Alpha MO Eigenvalues
            1           2           3           4           5           6
    1  -1.8894975  -0.1661399   0.0078819   0.0538772   0.0731853   0.0806057
            7           8
    1   0.0881275   0.1143805
 Final Beta MO Eigenvalues
            1           2           3           4           5           6
    1  -1.8892625  -0.1666021   0.0635367   0.0782046   0.0821785   0.0863525
            7
    1   0.0947319
 Analysis of SCF Wavefunction
 
 --------------------------------------------------------------
                    Orbital Energies (a.u.)
 --------------------------------------------------------------
 
 Alpha MOs
 -- Occupied --
 -1.889  -0.166   0.008
 -- Virtual --
  0.054   0.073   0.081   0.088   0.114   0.124   0.147   0.203
  0.223   0.224   0.230   0.311   0.349   0.351   0.358   0.359
  0.469   0.548   0.586   0.587   0.656   0.658   0.676   0.677
  0.677   0.680   0.681   0.878   1.120   1.121   1.219   1.321
  1.322   1.381   1.381   1.586   2.856   3.647   4.202   4.202
  4.325   6.886   6.886   7.150  19.919  19.945  21.287  21.291
 21.291
 
 Beta MOs
 -- Occupied --
 -1.889  -0.167
 -- Virtual --
  0.064   0.078   0.082   0.086   0.095   0.123   0.124   0.145
  0.202   0.222   0.223   0.230   0.311   0.351   0.351   0.360
  0.361   0.469   0.548   0.586   0.587   0.658   0.658   0.676
  0.678   0.679   0.683   0.683   0.879   1.120   1.121   1.219
  1.322   1.323   1.381   1.382   1.586   2.855   3.647   4.200
  4.201   4.323   6.886   6.886   7.150  19.920  19.945  21.287
 21.291  21.291
 --------------------------------------------------------------
 
          Ground-State Mulliken Net Atomic Charges

     Atom                 Charge (a.u.)    Spin (a.u.)
  --------------------------------------------------------
      1 Li                   -0.701104       1.017025
      2 H                    -0.298896      -0.017025
  --------------------------------------------------------
  Sum of atomic charges =    -1.000000
  Sum of spin   charges =     1.000000

 -----------------------------------------------------------------
                    Cartesian Multipole Moments
 -----------------------------------------------------------------
    Charge (ESU x 10^10)
                -4.8032
    Dipole Moment (Debye)
         X      -0.4758      Y      -0.4756      Z      -5.6775
       Tot       5.7172
    Quadrupole Moments (Debye-Ang)
        XX     -97.2985     XY     -45.6386     YY     -97.2573
        XZ       1.2093     YZ       1.2087     ZZ     -58.0460
    Octapole Moments (Debye-Ang^2)
       XXX     -18.3790    XXY      -6.1220    XYY      -6.1248
       YYY     -18.3708    XXZ      -3.9384    XYZ       1.3892
       YYZ      -3.9396    XZZ      -6.1846    YZZ      -6.1819
       ZZZ     -23.0428
    Hexadecapole Moments (Debye-Ang^3)
      XXXX   -3998.3295   XXXY   -1325.8277   XXYY   -1332.3810
      XYYY   -1325.8277   YYYY   -3995.9451   XXXZ      39.8823
      XXYZ      13.2874   XYYZ      13.2934   YYYZ      39.8644
      XXZZ    -899.6622   XYZZ    -441.9820   YYZZ    -899.2648
      XZZZ      39.8861   YZZZ      39.8682   ZZZZ   -1407.5429
 -----------------------------------------------------------------
 Total job time:  9.92s(wall), 8.46s(cpu) 
 Tue Jun  4 15:32:30 2013

        *************************************************************
        *                                                           *
        *  Thank you very much for using Q-Chem.  Have a nice day.  *
        *                                                           *
        *************************************************************


0 sent ACK to 0 
now end server 0 ... 
 
**********************************************************************
Job 2 of 3 
**********************************************************************
 
Process 0 of 1 is on cl051.stfx.acenet.ca - thread support 1
initial socket setup ...start
initial socket setup ...done 
now start server 0 ... 

cmd = /usr/bin/ssh clhead /usr/local/qchem/bin/get_hostid 683221317 > /scratch/tmp/6028451.1.short.q/qchem1160/lic.dat
                  Welcome to Q-Chem
     A Quantum Leap Into The Future Of Chemistry

 Y. Shao, L. Fusti-Molnar, Y. Jung, J. Kussmann, C. Ochsenfeld,
 S. T. Brown, A. T. B. Gilbert, L. V. Slipchenko,S. V. Levchenko,
 D. P. O'Neill, R. A. DiStasio Jr., R. C. Lochan, T. Wang,
 G. J. O. Beran, N. A. Besley, J. M. Herbert, C. Y. Lin,
 T. Van Voorhis, S. H. Chien, A. Sodt, R. P. Steele, 
 V. A. Rassolov, P. E. Maslen, P. P. Korambath, R. D. Adamson,
 B. Austin, J. Baker, E. F. C. Byrd, H. Dachsel, R. J. Doerksen,
 A. Dreuw, B. D. Dunietz, A. D. Dutoi, T. R. Furlani,
 S. R. Gwaltney, A. Heyden, S. Hirata, C.-P. Hsu, G. Kedziora,
 R. Z. Khaliullin, P. Klunzinger, A. M. Lee, M. S. Lee, W. Liang,
 I. Lotan, N. Nair, B. Peters, E. I. Proynov, P. A. Pieniazek, 
 Y. M. Rhee, J. Ritchie, E. Rosta, C. D. Sherrill, 
 A. C. Simmonett, J. E. Subotnik, H. L. Woodcock III,
 W. Zhang, A. T. Bell, A. K. Chakraborty, D. M. Chipman,
 F. J. Keil, A. Warshel, W. J. Hehre, H. F. Schaefer III,
 J. Kong, A. I. Krylov, P. M. W. Gill, M. Head-Gordon,
 Q-Chem, Version 3.1, Q-Chem, Inc., Pittsburgh, PA (2007).

 Additional authors for Version 3.1: 
 Z. Gan, Y. Zhao, N. E. Schultz, D. Truhlar, E. Epifanovsky and M. Oana.

 Additional authors for Version 3.2: 
 R. Baer, B. R. Brooks, D. Casanova, J.-D. Chai, C.-L. Cheng, 
 C. Cramer, D. Crittenden, A. Ghysels, G. Hawkins, E. G. Hohenstein, 
 C. Kelley, W. Kurlancheek, D. Liotard, E. Livshits, P. Manohar, 
 A. Marenich, D. Neuhauser, R. Olson, M. A. Rohrdanz, K. S. Thanthiriwatte, 
 A. J. W. Thom, V. Vanovschi, C. F. Williams, Q. Wu and Z.-Q. You. 


 Intel X86 Linux Version

 Q-chem begins on Tue Jun  4 15:32:32 2013  

 Parallel job on  1  processors
Processing $rem in /usr/local/qchem/config/preferences.

theFileMan(): MAXOPENFILES=974 MAX_SUB_FILE_NUM=16
Maximum size of a physical file is 2.0 GB, maximum size of a tmp-file is 32.0 GB


--------------------------------------------------------------
User input:
--------------------------------------------------------------

$molecule
0,1
Li         0.00000        0.00000       -0.02802
H          0.00000        0.00000        1.64909
$end

$comment
neutral
$end

$xc_functional
C PBE   1.00
X wPBE  1.00
$end


$rem
SYMMETRY_DECOMPOSITION	0
LRC_DFT                 true
exchange 		general
BASIS                   g3large
omega			200
mem_static              760
max_scf_cycles          200
scf_final_print         1
sym_ignore              true
$end

--------------------------------------------------------------
 Writing REM_CC_EA            2
 ----------------------------------------------------
       Standard Nuclear Orientation (Angstroms)
    I     Atom         X            Y            Z
 ----------------------------------------------------
    1      Li      0.000000     0.000000    -0.028020
    2      H       0.000000     0.000000     1.649090
 ----------------------------------------------------
 Nuclear Repulsion Energy =     0.9465876612 hartrees
 There are        2 alpha and        2 beta electrons
 Requested basis set is G3large
 There are 16 shells and 52 basis functions

Total QAlloc Memory Limit   2000 MB
Mega-Array Size       743 MB
MEM_STATIC part       760 MB

                       Distance Matrix (Angstroms)
             Li(  1)
   H (  2)  1.677110
 
 A cutoff of  1.0D-08 yielded    136 shell pairs
 There are   1462 function pairs (  1834 Cartesian)
Evaluating contribution to one-electron hamiltonian from nuclear
 Smallest overlap matrix eigenvalue = 4.09E-03
 Multipole matrices computed through 2nd order

  Scale SEOQF with 1.000000e-02/1.000000e-02/1.000000e-02

 Standard Electronic Orientation quadrupole field applied
 Guess from superposition of atomic densities
 Warning:  Energy on first SCF cycle will be non-variational
 Long-range K will be added via erf
 Coulomb attenuation parameter = 0.2 bohr**(-1)
 A restricted Kohn-Sham SCF calculation will be
 performed using Pulay DIIS extrapolation
 Exchange:  wPBE + LR-HF      Correlation:  PBE
 Using SG-1 standard quadrature grid
 SCF converges when DIIS error is below 1.0E-05
 Requested basis set is G3large
 There are 16 shells and 52 basis functions
 A cutoff of  1.0D-08 yielded    136 shell pairs
 There are   1462 function pairs (  1834 Cartesian)
 Warning!  Inaccurate integrated density:
   Number of electrons =     4
   Numerical integral  =     4.012981843575
   Relative error      =     0.3245460894 %
 ---------------------------------------
  Cycle       Energy         DIIS Error
 ---------------------------------------
    1      -7.7879666059      4.72E-03
    2      -8.0104187086      6.82E-03
    3      -8.0333897496      4.10E-03
    4      -8.0499824725      4.16E-04
    5      -8.0505834061      1.89E-04
    6      -8.0506956848      3.72E-05
    7      -8.0507020163      7.63E-06 Convergence criterion met
 ---------------------------------------
 One-Electron    Energy =   -12.3523346285
 Total Coulomb   Energy =     5.5447392217
 Alpha Exchange  Energy =    -0.2106671285
 Beta  Exchange  Energy =    -0.2106671285
 DFT   Exchange  Energy =    -1.6850295126
 DFT Correlation Energy =    -0.0833305011
 Nuclear Repu.   Energy =     0.9465876611
 Nuclear Attr.   Energy =   -20.2891972168
 Kinetic         Energy =     7.9368625883
 SCF time:  CPU 3.56 s  wall 4.27 s
 Final Alpha MO Eigenvalues
            1           2           3           4           5           6
    1  -1.9823507  -0.2553188  -0.0127117   0.0141373   0.0141390   0.0190902
            7
    1   0.0266756
 Analysis of SCF Wavefunction
 
 --------------------------------------------------------------
                    Orbital Energies (a.u.)
 --------------------------------------------------------------
 
 Alpha MOs
 -- Occupied --
 -1.982  -0.255
 -- Virtual --
 -0.013   0.014   0.014   0.019   0.027   0.047   0.047   0.074
  0.124   0.143   0.143   0.151   0.226   0.264   0.264   0.272
  0.272   0.383   0.460   0.497   0.497   0.570   0.570   0.590
  0.590   0.591   0.593   0.593   0.790   1.032   1.032   1.130
  1.229   1.229   1.290   1.290   1.496   2.768   3.555   4.113
  4.113   4.236   6.793   6.793   7.058  19.826  19.852  21.194
 21.198  21.198
 --------------------------------------------------------------
 
          Ground-State Mulliken Net Atomic Charges

     Atom                 Charge (a.u.)
  ----------------------------------------
      1 Li                    0.296452
      2 H                    -0.296452
  ----------------------------------------
  Sum of atomic charges =     0.000000

 -----------------------------------------------------------------
                    Cartesian Multipole Moments
 -----------------------------------------------------------------
    Charge (ESU x 10^10)
                 0.0000
    Dipole Moment (Debye)
         X       0.0000      Y       0.0000      Z      -5.8472
       Tot       5.8472
    Quadrupole Moments (Debye-Ang)
        XX      -5.7203     XY       0.0001     YY      -5.7203
        XZ       0.0000     YZ       0.0000     ZZ     -11.9215
    Octapole Moments (Debye-Ang^2)
       XXX       0.0002    XXY       0.0000    XYY       0.0001
       YYY       0.0001    XXZ      -6.6106    XYZ       0.0001
       YYZ      -6.6106    XZZ       0.0001    YZZ       0.0000
       ZZZ     -26.5710
    Hexadecapole Moments (Debye-Ang^3)
      XXXX     -14.7486   XXXY       0.0003   XXYY      -4.9162
      XYYY       0.0003   YYYY     -14.7486   XXXZ       0.0001
      XXYZ       0.0000   XYYZ       0.0000   YYYZ       0.0000
      XXZZ     -13.1897   XYZZ       0.0002   YYZZ     -13.1897
      XZZZ       0.0001   YZZZ       0.0001   ZZZZ     -71.8706
 -----------------------------------------------------------------
 Total job time:  4.35s(wall), 3.63s(cpu) 
 Tue Jun  4 15:32:37 2013

        *************************************************************
        *                                                           *
        *  Thank you very much for using Q-Chem.  Have a nice day.  *
        *                                                           *
        *************************************************************


0 sent ACK to 0 
now end server 0 ... 
 
**********************************************************************
Job 3 of 3 
**********************************************************************
 
Process 0 of 1 is on cl051.stfx.acenet.ca - thread support 1
initial socket setup ...start
initial socket setup ...done 
now start server 0 ... 

cmd = /usr/bin/ssh clhead /usr/local/qchem/bin/get_hostid 1775825686 > /scratch/tmp/6028451.1.short.q/qchem1160/lic.dat
                  Welcome to Q-Chem
     A Quantum Leap Into The Future Of Chemistry

 Y. Shao, L. Fusti-Molnar, Y. Jung, J. Kussmann, C. Ochsenfeld,
 S. T. Brown, A. T. B. Gilbert, L. V. Slipchenko,S. V. Levchenko,
 D. P. O'Neill, R. A. DiStasio Jr., R. C. Lochan, T. Wang,
 G. J. O. Beran, N. A. Besley, J. M. Herbert, C. Y. Lin,
 T. Van Voorhis, S. H. Chien, A. Sodt, R. P. Steele, 
 V. A. Rassolov, P. E. Maslen, P. P. Korambath, R. D. Adamson,
 B. Austin, J. Baker, E. F. C. Byrd, H. Dachsel, R. J. Doerksen,
 A. Dreuw, B. D. Dunietz, A. D. Dutoi, T. R. Furlani,
 S. R. Gwaltney, A. Heyden, S. Hirata, C.-P. Hsu, G. Kedziora,
 R. Z. Khaliullin, P. Klunzinger, A. M. Lee, M. S. Lee, W. Liang,
 I. Lotan, N. Nair, B. Peters, E. I. Proynov, P. A. Pieniazek, 
 Y. M. Rhee, J. Ritchie, E. Rosta, C. D. Sherrill, 
 A. C. Simmonett, J. E. Subotnik, H. L. Woodcock III,
 W. Zhang, A. T. Bell, A. K. Chakraborty, D. M. Chipman,
 F. J. Keil, A. Warshel, W. J. Hehre, H. F. Schaefer III,
 J. Kong, A. I. Krylov, P. M. W. Gill, M. Head-Gordon,
 Q-Chem, Version 3.1, Q-Chem, Inc., Pittsburgh, PA (2007).

 Additional authors for Version 3.1: 
 Z. Gan, Y. Zhao, N. E. Schultz, D. Truhlar, E. Epifanovsky and M. Oana.

 Additional authors for Version 3.2: 
 R. Baer, B. R. Brooks, D. Casanova, J.-D. Chai, C.-L. Cheng, 
 C. Cramer, D. Crittenden, A. Ghysels, G. Hawkins, E. G. Hohenstein, 
 C. Kelley, W. Kurlancheek, D. Liotard, E. Livshits, P. Manohar, 
 A. Marenich, D. Neuhauser, R. Olson, M. A. Rohrdanz, K. S. Thanthiriwatte, 
 A. J. W. Thom, V. Vanovschi, C. F. Williams, Q. Wu and Z.-Q. You. 


 Intel X86 Linux Version

 Q-chem begins on Tue Jun  4 15:32:39 2013  

 Parallel job on  1  processors
Processing $rem in /usr/local/qchem/config/preferences.

theFileMan(): MAXOPENFILES=974 MAX_SUB_FILE_NUM=16
Maximum size of a physical file is 2.0 GB, maximum size of a tmp-file is 32.0 GB


--------------------------------------------------------------
User input:
--------------------------------------------------------------

$molecule
1,2
Li         0.00000        0.00000       -0.02802
H          0.00000        0.00000        1.64909
$end

$comment
positive
$end

$xc_functional
C PBE   1.00
X wPBE  1.00
$end

$rem
SYMMETRY_DECOMPOSITION	0
LRC_DFT                 true
exchange 		general
BASIS                   g3large
omega			200
mem_static              760
max_scf_cycles          200
scf_final_print         1
sym_ignore              true
$end

--------------------------------------------------------------
 Writing REM_CC_EA            2
 ----------------------------------------------------
       Standard Nuclear Orientation (Angstroms)
    I     Atom         X            Y            Z
 ----------------------------------------------------
    1      Li      0.000000     0.000000    -0.028020
    2      H       0.000000     0.000000     1.649090
 ----------------------------------------------------
 Nuclear Repulsion Energy =     0.9465876612 hartrees
 There are        2 alpha and        1 beta electrons
 Requested basis set is G3large
 There are 16 shells and 52 basis functions

Total QAlloc Memory Limit   2000 MB
Mega-Array Size       743 MB
MEM_STATIC part       760 MB

                       Distance Matrix (Angstroms)
             Li(  1)
   H (  2)  1.677110
 
 A cutoff of  1.0D-08 yielded    136 shell pairs
 There are   1462 function pairs (  1834 Cartesian)
Evaluating contribution to one-electron hamiltonian from nuclear
 Smallest overlap matrix eigenvalue = 4.09E-03
 Multipole matrices computed through 2nd order

  Scale SEOQF with 1.000000e-02/1.000000e-02/1.000000e-02

 Standard Electronic Orientation quadrupole field applied
 Guess from superposition of atomic densities
 Warning:  Energy on first SCF cycle will be non-variational
 Long-range K will be added via erf
 Coulomb attenuation parameter = 0.2 bohr**(-1)
 An unrestricted Kohn-Sham SCF calculation will be
 performed using Pulay DIIS extrapolation
 Exchange:  wPBE + LR-HF      Correlation:  PBE
 Using SG-1 standard quadrature grid
 SCF converges when DIIS error is below 1.0E-05
 Requested basis set is G3large
 There are 16 shells and 52 basis functions
 A cutoff of  1.0D-08 yielded    136 shell pairs
 There are   1462 function pairs (  1834 Cartesian)
 Warning!  Inaccurate integrated density:
   Number of electrons =     3
   Numerical integral  =     4.012981843575
   Relative error      =    33.7660614525 %
 ---------------------------------------
  Cycle       Energy         DIIS Error
 ---------------------------------------
    1      -7.7879666059      4.72E-03
    2      -7.7506607025      1.79E-03
    3      -7.7566981771      3.70E-04
    4      -7.7569952904      3.70E-05
    5      -7.7569976863      7.26E-06 Convergence criterion met
 ---------------------------------------
 One-Electron    Energy =   -10.9947025056
 Total Coulomb   Energy =     4.2847934071
 Alpha Exchange  Energy =    -0.2168216595
 Beta  Exchange  Energy =    -0.1114954770
 DFT   Exchange  Energy =    -1.6137809465
 DFT Correlation Energy =    -0.0515781660
 Nuclear Repu.   Energy =     0.9465876611
 Nuclear Attr.   Energy =   -18.7565745993
 Kinetic         Energy =     7.7618720937
 <S^2> = 0.7500
 SCF time:  CPU 2.75 s  wall 3.27 s
 Final Alpha MO Eigenvalues
            1           2           3           4           5           6
    1  -2.3066504  -0.6877822  -0.1868333  -0.1511984  -0.1511903  -0.0887475
            7
    1  -0.0741223
 Final Beta MO Eigenvalues
            1           2           3           4           5           6
    1  -2.3038728  -0.2190018  -0.1536724  -0.1350920  -0.1350832  -0.0785005
 Analysis of SCF Wavefunction
 
 --------------------------------------------------------------
                    Orbital Energies (a.u.)
 --------------------------------------------------------------
 
 Alpha MOs
 -- Occupied --
 -2.307  -0.688
 -- Virtual --
 -0.187  -0.151  -0.151  -0.089  -0.074  -0.061  -0.061  -0.059
 -0.033  -0.012  -0.012  -0.012   0.021   0.042   0.042   0.073
  0.073   0.183   0.199   0.260   0.260   0.308   0.332   0.332
  0.372   0.372   0.388   0.388   0.553   0.709   0.709   0.800
  0.965   0.967   0.996   0.996   1.188   2.294   3.217   3.613
  3.613   3.756   6.473   6.473   6.734  19.503  19.526  20.869
 20.871  20.871
 
 Beta MOs
 -- Occupied --
 -2.304
 -- Virtual --
 -0.219  -0.154  -0.135  -0.135  -0.079  -0.063  -0.059  -0.059
 -0.038  -0.017  -0.010  -0.008  -0.008   0.079   0.079   0.083
  0.083   0.104   0.201   0.259   0.264   0.264   0.390   0.390
  0.394   0.394   0.396   0.396   0.473   0.645   0.872   0.872
  0.971   0.971   1.020   1.113   1.113   1.286   2.886   3.286
  4.247   4.247   4.403   6.475   6.475   6.742  19.506  19.530
 20.870  20.872  20.872
 --------------------------------------------------------------
 
          Ground-State Mulliken Net Atomic Charges

     Atom                 Charge (a.u.)    Spin (a.u.)
  --------------------------------------------------------
      1 Li                    0.810194       0.186519
      2 H                     0.189806       0.813481
  --------------------------------------------------------
  Sum of atomic charges =     1.000000
  Sum of spin   charges =     1.000000

 -----------------------------------------------------------------
                    Cartesian Multipole Moments
 -----------------------------------------------------------------
    Charge (ESU x 10^10)
                 4.8032
    Dipole Moment (Debye)
         X       0.0000      Y       0.0000      Z       0.4801
       Tot       0.4801
    Quadrupole Moments (Debye-Ang)
        XX      -1.6807     XY       0.0000     YY      -1.6807
        XZ       0.0000     YZ       0.0000     ZZ       0.2465
    Octapole Moments (Debye-Ang^2)
       XXX       0.0000    XXY       0.0000    XYY       0.0000
       YYY       0.0000    XXZ      -1.8581    XYZ       0.0000
       YYZ      -1.8581    XZZ      -0.0001    YZZ       0.0000
       ZZZ      -1.0869
    Hexadecapole Moments (Debye-Ang^3)
      XXXX      -1.7836   XXXY       0.0000   XXYY      -0.5945
      XYYY       0.0000   YYYY      -1.7836   XXXZ      -0.0001
      XXYZ       0.0000   XYYZ       0.0000   YYYZ       0.0000
      XXZZ      -3.3213   XYZZ       0.0000   YYZZ      -3.3213
      XZZZ      -0.0001   YZZZ      -0.0001   ZZZZ      -8.9612
 -----------------------------------------------------------------
 Total job time:  3.35s(wall), 2.82s(cpu) 
 Tue Jun  4 15:32:43 2013

        *************************************************************
        *                                                           *
        *  Thank you very much for using Q-Chem.  Have a nice day.  *
        *                                                           *
        *************************************************************


0 sent ACK to 0 
now end server 0 ... 
