Process 0 of 1 is on cl118.stfx.acenet.ca - thread support 1
initial socket setup ...start
initial socket setup ...done 
now start server 0 ... 

cmd = /usr/bin/ssh clhead /usr/local/qchem/bin/get_hostid 103303717 > /scratch/tmp/6067068.1.short.q/qchem28226/lic.dat
                  Welcome to Q-Chem
     A Quantum Leap Into The Future Of Chemistry

 Y. Shao, L. Fusti-Molnar, Y. Jung, J. Kussmann, C. Ochsenfeld,
 S. T. Brown, A. T. B. Gilbert, L. V. Slipchenko,S. V. Levchenko,
 D. P. O'Neill, R. A. DiStasio Jr., R. C. Lochan, T. Wang,
 G. J. O. Beran, N. A. Besley, J. M. Herbert, C. Y. Lin,
 T. Van Voorhis, S. H. Chien, A. Sodt, R. P. Steele, 
 V. A. Rassolov, P. E. Maslen, P. P. Korambath, R. D. Adamson,
 B. Austin, J. Baker, E. F. C. Byrd, H. Dachsel, R. J. Doerksen,
 A. Dreuw, B. D. Dunietz, A. D. Dutoi, T. R. Furlani,
 S. R. Gwaltney, A. Heyden, S. Hirata, C.-P. Hsu, G. Kedziora,
 R. Z. Khaliullin, P. Klunzinger, A. M. Lee, M. S. Lee, W. Liang,
 I. Lotan, N. Nair, B. Peters, E. I. Proynov, P. A. Pieniazek, 
 Y. M. Rhee, J. Ritchie, E. Rosta, C. D. Sherrill, 
 A. C. Simmonett, J. E. Subotnik, H. L. Woodcock III,
 W. Zhang, A. T. Bell, A. K. Chakraborty, D. M. Chipman,
 F. J. Keil, A. Warshel, W. J. Hehre, H. F. Schaefer III,
 J. Kong, A. I. Krylov, P. M. W. Gill, M. Head-Gordon,
 Q-Chem, Version 3.1, Q-Chem, Inc., Pittsburgh, PA (2007).

 Additional authors for Version 3.1: 
 Z. Gan, Y. Zhao, N. E. Schultz, D. Truhlar, E. Epifanovsky and M. Oana.

 Additional authors for Version 3.2: 
 R. Baer, B. R. Brooks, D. Casanova, J.-D. Chai, C.-L. Cheng, 
 C. Cramer, D. Crittenden, A. Ghysels, G. Hawkins, E. G. Hohenstein, 
 C. Kelley, W. Kurlancheek, D. Liotard, E. Livshits, P. Manohar, 
 A. Marenich, D. Neuhauser, R. Olson, M. A. Rohrdanz, K. S. Thanthiriwatte, 
 A. J. W. Thom, V. Vanovschi, C. F. Williams, Q. Wu and Z.-Q. You. 


 Intel X86 Linux Version

 Q-chem begins on Wed Jul 24 15:58:52 2013  

 Parallel job on  1  processors
Processing $rem in /usr/local/qchem/config/preferences.

theFileMan(): MAXOPENFILES=974 MAX_SUB_FILE_NUM=16
Maximum size of a physical file is 2.0 GB, maximum size of a tmp-file is 32.0 GB


--------------------------------------------------------------
User input:
--------------------------------------------------------------

$molecule
0,1
Cl
Cl,1,R

R=2.04231295

$end


$comment
b3lyp opt
$end

$rem
   EXCHANGE B3LYP
   UNRESTRICTED TRUE
   SYMMETRY_DECOMPOSITION	0
   BASIS                   g3large
   JOBTYPE                 opt
   mem_static              760
   max_scf_cycles          200
   scf_final_print         1
   sym_ignore              true
$end


--------------------------------------------------------------
 Writing REM_CC_EA            2
 ----------------------------------------------------
       Standard Nuclear Orientation (Angstroms)
    I     Atom         X            Y            Z
 ----------------------------------------------------
    1      Cl      0.000000     0.000000     0.000000
    2      Cl      0.000000     0.000000     2.042313
 ----------------------------------------------------
 Nuclear Repulsion Energy =    74.8818705386 hartrees
 There are       17 alpha and       17 beta electrons
 Requested basis set is G3large
 There are 38 shells and 132 basis functions

Total QAlloc Memory Limit   2000 MB
Mega-Array Size       743 MB
MEM_STATIC part       760 MB
 A cutoff of  1.0D-11 yielded    671 shell pairs
 There are   8392 function pairs ( 12089 Cartesian)
Evaluating contribution to one-electron hamiltonian from nuclear
 Smallest overlap matrix eigenvalue = 1.87E-03
 Multipole matrices computed through 2nd order

  Scale SEOQF with 1.000000e-01/1.000000e-01/1.000000e-01

 Standard Electronic Orientation quadrupole field applied
 Nucleus-field energy     =    -0.0000000076 hartrees
 Guess from superposition of atomic densities
 Warning:  Energy on first SCF cycle will be non-variational
 An unrestricted hybrid HF-DFT SCF calculation will be
 performed using Pulay DIIS extrapolation
 Exchange:     0.2000 Hartree-Fock + 0.0800 Slater + 0.7200 Becke88
 Correlation:  0.8100 LYP + 0.1900 VWN1RPA
 Using SG-1 standard quadrature grid
 SCF converges when DIIS error is below 1.0E-08
 ---------------------------------------
  Cycle       Energy         DIIS Error
 ---------------------------------------
    1    -920.5183932687      2.12E-02
    2    -920.4208785194      2.00E-03
    3    -920.4240939995      1.26E-03
    4    -920.4261240369      4.33E-04
    5    -920.4264261183      4.31E-05
    6    -920.4264284930      6.39E-06
    7    -920.4264285640      3.63E-07
    8    -920.4264285646      1.06E-07
    9    -920.4264285637      9.16E-09 Convergence criterion met
 ---------------------------------------
 One-Electron    Energy = -1419.4009654661
 Total Coulomb   Energy =   480.5806869444
 Alpha Exchange  Energy =    -5.5025480535
 Beta  Exchange  Energy =    -5.5025480535
 DFT   Exchange  Energy =   -43.6987180923
 DFT Correlation Energy =    -1.7842063736
 Nuclear Repu.   Energy =    74.8818705310
 Nuclear Attr.   Energy = -2338.5040366271
 Kinetic         Energy =   919.1030711610
 <S^2> = 0.0000
 SCF time:  CPU 32.09 s  wall 32.96 s
 Final Alpha MO Eigenvalues
            1           2           3           4           5           6
    1-101.5799733-101.5799707  -9.5150913  -9.5150525  -7.2801247  -7.2800221
            7           8           9          10          11          12
    1  -7.2671925  -7.2671925  -7.2671920  -7.2671920  -0.9287109  -0.7791947
           13          14          15          16          17          18
    1  -0.4734601  -0.4090169  -0.4090169  -0.3154059  -0.3154059  -0.1424273
           19          20          21          22
    1   0.0214879   0.0518909   0.0644845   0.0644845
 Final Beta MO Eigenvalues
            1           2           3           4           5           6
    1-101.5799733-101.5799707  -9.5150913  -9.5150525  -7.2801247  -7.2800221
            7           8           9          10          11          12
    1  -7.2671925  -7.2671925  -7.2671920  -7.2671920  -0.9287109  -0.7791947
           13          14          15          16          17          18
    1  -0.4734601  -0.4090169  -0.4090169  -0.3154059  -0.3154059  -0.1424273
           19          20          21          22
    1   0.0214879   0.0518909   0.0644845   0.0644845
 Analysis of SCF Wavefunction
 
 --------------------------------------------------------------
                    Orbital Energies (a.u.)
 --------------------------------------------------------------
 
 Alpha MOs
 -- Occupied --
*******-101.580  -9.515  -9.515  -7.280  -7.280  -7.267  -7.267
 -7.267  -7.267  -0.929  -0.779  -0.473  -0.409  -0.409  -0.315
 -0.315
 -- Virtual --
 -0.142   0.021   0.052   0.064   0.064   0.076   0.099   0.099
  0.160   0.195   0.195   0.204   0.204   0.297   0.314   0.314
  0.390   0.425   0.425   0.462   0.462   0.491   0.560   0.560
  0.565   0.754   0.943   0.943   0.984   0.985   0.990   1.023
  1.024   1.044   1.044   1.062   1.062   1.072   1.106   1.106
  1.165   1.165   1.280   1.288   1.288   1.394   1.395   1.489
  1.688   1.688   1.776   2.086   2.086   2.093   2.218   2.218
  2.728   4.283   4.283   4.283   4.283   4.325   4.327   4.327
  4.379   4.380   4.418   4.418   4.438   4.438   4.517   4.951
  4.953   4.981   4.982   5.001   5.001   5.024   5.024   5.047
  5.432   9.420   9.741  20.515  20.515  20.590  20.590  20.618
 20.978  27.087  27.101  27.123  27.159  27.171  27.171  27.173
 27.189  27.189  27.302  36.847  36.854  36.855  36.860  36.860
 36.865  36.865  36.868  36.868  36.868  36.868  36.872  36.872
 36.889 215.882 216.332
 
 Beta MOs
 -- Occupied --
*******-101.580  -9.515  -9.515  -7.280  -7.280  -7.267  -7.267
 -7.267  -7.267  -0.929  -0.779  -0.473  -0.409  -0.409  -0.315
 -0.315
 -- Virtual --
 -0.142   0.021   0.052   0.064   0.064   0.076   0.099   0.099
  0.160   0.195   0.195   0.204   0.204   0.297   0.314   0.314
  0.390   0.425   0.425   0.462   0.462   0.491   0.560   0.560
  0.565   0.754   0.943   0.943   0.984   0.985   0.990   1.023
  1.024   1.044   1.044   1.062   1.062   1.072   1.106   1.106
  1.165   1.165   1.280   1.288   1.288   1.394   1.395   1.489
  1.688   1.688   1.776   2.086   2.086   2.093   2.218   2.218
  2.728   4.283   4.283   4.283   4.283   4.325   4.327   4.327
  4.379   4.380   4.418   4.418   4.438   4.438   4.517   4.951
  4.953   4.981   4.982   5.001   5.001   5.024   5.024   5.047
  5.432   9.420   9.741  20.515  20.515  20.590  20.590  20.618
 20.978  27.087  27.101  27.123  27.159  27.171  27.171  27.173
 27.189  27.189  27.302  36.847  36.854  36.855  36.860  36.860
 36.865  36.865  36.868  36.868  36.868  36.868  36.872  36.872
 36.889 215.882 216.332
 --------------------------------------------------------------
 
          Ground-State Mulliken Net Atomic Charges

     Atom                 Charge (a.u.)    Spin (a.u.)
  --------------------------------------------------------
      1 Cl                    0.000000       0.000000
      2 Cl                    0.000000       0.000000
  --------------------------------------------------------
  Sum of atomic charges =     0.000000
  Sum of spin   charges =     0.000000

 -----------------------------------------------------------------
                    Cartesian Multipole Moments
 -----------------------------------------------------------------
    Charge (ESU x 10^10)
                 0.0000
    Dipole Moment (Debye)
         X       0.0000      Y       0.0000      Z       0.0000
       Tot       0.0000
    Quadrupole Moments (Debye-Ang)
        XX     -25.5607     XY       0.0000     YY     -25.5607
        XZ       0.0000     YZ       0.0000     ZZ     -22.1978
    Octapole Moments (Debye-Ang^2)
       XXX       0.0000    XXY       0.0000    XYY       0.0000
       YYY       0.0000    XXZ     -26.1014    XYZ       0.0000
       YYZ     -26.1014    XZZ       0.0000    YZZ       0.0000
       ZZZ     -68.0024
    Hexadecapole Moments (Debye-Ang^3)
      XXXX     -29.5152   XXXY       0.0000   XXYY      -9.8388
      XYYY       0.0000   YYYY     -29.5152   XXXZ       0.0000
      XXYZ       0.0000   XYYZ       0.0000   YYYZ       0.0000
      XXZZ     -62.7947   XYZZ       0.0000   YYZZ     -62.7947
      XZZZ       0.0000   YZZZ       0.0000   ZZZZ    -297.4585
 -----------------------------------------------------------------
 Calculating analytic gradient of the SCF energy
 Gradient of XC Energy
            1           2
    1   0.0000000  -0.0000000
    2  -0.0000000   0.0000000
    3  -0.1354353   0.1354353
 Gradient of SCF Energy
            1           2
    1   0.0000000  -0.0000000
    2  -0.0000000   0.0000000
    3  -0.0096006   0.0096006
 Max gradient component =       9.601E-03
 RMS gradient           =       5.543E-03
 Gradient time:  CPU 16.23 s  wall 16.58 s
 Geometry Optimization Parameters
   NAtoms,    NIC,     NZ,  NCons,   NDum,   NFix, NCnnct, MaxDiis
        2       5       2       0       0       0       0       0


** GEOMETRY OPTIMIZATION IN DELOCALIZED INTERNAL COORDINATES **
   Searching for a Minimum

   Optimization Cycle:   1

                       Coordinates (Angstroms)
     ATOM              X           Y           Z
    1  Cl          0.000000    0.000000    0.000000
    2  Cl          0.000000    0.000000    2.042313
   Point Group: c1    Number of degrees of freedom:   0


   Energy is   -920.426428564


 Attempting to Generate Delocalized Internal Coordinates

  ***ERROR*** Wrong Number of Internal Coordinates
              Should be:   0  Found:   1
**WARNING** Problems with Internal Coordinates
  Switching to Cartesian Coordinates

 Translations and Rotations Projected Out of Hessian

  1 Hessian modes will be used to form the next step
  Hessian Eigenvalues:
     1.000000

 Minimum Search - Taking Simple RFO Step
 Searching for Lamda that Minimizes Along All modes
 Value Taken    Lamda =  -0.00018434
 Step Taken.  Stepsize is  0.013575

                             Maximum     Tolerance    Cnvgd?
         Gradient           0.009601      0.000300      NO
         Displacement       0.009599      0.001200      NO
         Energy change     *********      0.000001      NO

 Writing REM_CC_EA            2
 ----------------------------------------------------
       Standard Nuclear Orientation (Angstroms)
    I     Atom         X            Y            Z
 ----------------------------------------------------
    1      Cl      0.000000     0.000000     0.005080
    2      Cl      0.000000     0.000000     2.037233
 ----------------------------------------------------
 Nuclear Repulsion Energy =    75.2562147278 hartrees
 There are       17 alpha and       17 beta electrons
 Applying Cartesian multipole field
    Component          Value
    ---------          -----
     (2,0,0)        1.00000E-11
     (0,2,0)        2.00000E-11
     (0,0,2)       -3.00000E-11
 Nucleus-field energy     =    -0.0000000076 hartrees
 Requested basis set is G3large
 There are 38 shells and 132 basis functions
 A cutoff of  1.0D-11 yielded    671 shell pairs
 There are   8392 function pairs ( 12089 Cartesian)
Evaluating contribution to one-electron hamiltonian from nuclear
 Smallest overlap matrix eigenvalue = 1.82E-03
 Multipole matrices computed through 2nd order
 Guess MOs from SCF MO coefficient file
Reading MOs from coefficient file
Reading MOs from coefficient file
 An unrestricted hybrid HF-DFT SCF calculation will be
 performed using Pulay DIIS extrapolation
 Exchange:     0.2000 Hartree-Fock + 0.0800 Slater + 0.7200 Becke88
 Correlation:  0.8100 LYP + 0.1900 VWN1RPA
 Using SG-1 standard quadrature grid
 SCF converges when DIIS error is below 1.0E-08
 ---------------------------------------
  Cycle       Energy         DIIS Error
 ---------------------------------------
    1    -920.4326012901      3.24E-04
    2    -920.4265756383      6.54E-05
    3    -920.4265748647      7.10E-05
    4    -920.4265828331      2.67E-06
    5    -920.4265828418      4.13E-07
    6    -920.4265828422      1.15E-07
    7    -920.4265828417      6.32E-09 Convergence criterion met
 ---------------------------------------
 One-Electron    Energy = -1420.1483368199
 Total Coulomb   Energy =   480.9570682399
 Alpha Exchange  Energy =    -5.5029339087
 Beta  Exchange  Energy =    -5.5029339087
 DFT   Exchange  Energy =   -43.7011889767
 DFT Correlation Energy =    -1.7844721876
 Nuclear Repu.   Energy =    75.2562147202
 Nuclear Attr.   Energy = -2339.2644197132
 Kinetic         Energy =   919.1160828933
 <S^2> = 0.0000
 SCF time:  CPU 24.03 s  wall 24.17 s
 Final Alpha MO Eigenvalues
            1           2           3           4           5           6
    1-101.5795961-101.5795936  -9.5148258  -9.5147899  -7.2798338  -7.2797228
            7           8           9          10          11          12
    1  -7.2669283  -7.2669283  -7.2669273  -7.2669273  -0.9310597  -0.7781547
           13          14          15          16          17          18
    1  -0.4744650  -0.4100927  -0.4100927  -0.3145962  -0.3145962  -0.1394727
           19          20          21          22
    1   0.0214385   0.0521856   0.0643485   0.0643485
 Final Beta MO Eigenvalues
            1           2           3           4           5           6
    1-101.5795961-101.5795936  -9.5148258  -9.5147899  -7.2798338  -7.2797228
            7           8           9          10          11          12
    1  -7.2669283  -7.2669283  -7.2669273  -7.2669273  -0.9310597  -0.7781547
           13          14          15          16          17          18
    1  -0.4744650  -0.4100927  -0.4100927  -0.3145962  -0.3145962  -0.1394727
           19          20          21          22
    1   0.0214385   0.0521856   0.0643485   0.0643485
 Analysis of SCF Wavefunction
 
 --------------------------------------------------------------
                    Orbital Energies (a.u.)
 --------------------------------------------------------------
 
 Alpha MOs
 -- Occupied --
*******-101.580  -9.515  -9.515  -7.280  -7.280  -7.267  -7.267
 -7.267  -7.267  -0.931  -0.778  -0.474  -0.410  -0.410  -0.315
 -0.315
 -- Virtual --
 -0.139   0.021   0.052   0.064   0.064   0.075   0.099   0.099
  0.160   0.196   0.196   0.204   0.204   0.297   0.315   0.315
  0.390   0.426   0.426   0.462   0.462   0.493   0.561   0.561
  0.566   0.754   0.942   0.942   0.985   0.985   0.990   1.023
  1.024   1.043   1.043   1.062   1.063   1.075   1.106   1.106
  1.166   1.166   1.283   1.294   1.294   1.397   1.398   1.489
  1.688   1.688   1.779   2.085   2.085   2.099   2.222   2.222
  2.728   4.283   4.283   4.284   4.284   4.327   4.327   4.330
  4.379   4.380   4.421   4.421   4.437   4.437   4.517   4.951
  4.953   4.981   4.983   5.000   5.000   5.027   5.027   5.034
  5.453   9.428   9.738  20.516  20.516  20.591  20.591  20.625
 20.977  27.087  27.101  27.119  27.159  27.170  27.170  27.173
 27.191  27.191  27.313  36.848  36.855  36.855  36.860  36.860
 36.865  36.865  36.868  36.868  36.868  36.869  36.872  36.872
 36.890 215.892 216.329
 
 Beta MOs
 -- Occupied --
*******-101.580  -9.515  -9.515  -7.280  -7.280  -7.267  -7.267
 -7.267  -7.267  -0.931  -0.778  -0.474  -0.410  -0.410  -0.315
 -0.315
 -- Virtual --
 -0.139   0.021   0.052   0.064   0.064   0.075   0.099   0.099
  0.160   0.196   0.196   0.204   0.204   0.297   0.315   0.315
  0.390   0.426   0.426   0.462   0.462   0.493   0.561   0.561
  0.566   0.754   0.942   0.942   0.985   0.985   0.990   1.023
  1.024   1.043   1.043   1.062   1.063   1.075   1.106   1.106
  1.166   1.166   1.283   1.294   1.294   1.397   1.398   1.489
  1.688   1.688   1.779   2.085   2.085   2.099   2.222   2.222
  2.728   4.283   4.283   4.284   4.284   4.327   4.327   4.330
  4.379   4.380   4.421   4.421   4.437   4.437   4.517   4.951
  4.953   4.981   4.983   5.000   5.000   5.027   5.027   5.034
  5.453   9.428   9.738  20.516  20.516  20.591  20.591  20.625
 20.977  27.087  27.101  27.119  27.159  27.170  27.170  27.173
 27.191  27.191  27.313  36.848  36.855  36.855  36.860  36.860
 36.865  36.865  36.868  36.868  36.868  36.869  36.872  36.872
 36.890 215.892 216.329
 --------------------------------------------------------------
 
          Ground-State Mulliken Net Atomic Charges

     Atom                 Charge (a.u.)    Spin (a.u.)
  --------------------------------------------------------
      1 Cl                    0.000000       0.000000
      2 Cl                    0.000000       0.000000
  --------------------------------------------------------
  Sum of atomic charges =     0.000000
  Sum of spin   charges =     0.000000

 -----------------------------------------------------------------
                    Cartesian Multipole Moments
 -----------------------------------------------------------------
    Charge (ESU x 10^10)
                 0.0000
    Dipole Moment (Debye)
         X       0.0000      Y       0.0000      Z       0.0000
       Tot       0.0000
    Quadrupole Moments (Debye-Ang)
        XX     -25.5465     XY       0.0000     YY     -25.5465
        XZ       0.0000     YZ       0.0000     ZZ     -22.2289
    Octapole Moments (Debye-Ang^2)
       XXX       0.0000    XXY       0.0000    XYY       0.0000
       YYY       0.0000    XXZ     -26.0870    XYZ       0.0000
       YYZ     -26.0870    XZZ       0.0000    YZZ       0.0000
       ZZZ     -68.0975
    Hexadecapole Moments (Debye-Ang^3)
      XXXX     -29.4813   XXXY       0.0000   XXYY      -9.8274
      XYYY       0.0000   YYYY     -29.4813   XXXZ       0.0000
      XXYZ       0.0000   XYYZ       0.0000   YYYZ       0.0000
      XXZZ     -62.5214   XYZZ       0.0000   YYZZ     -62.5214
      XZZZ       0.0000   YZZZ       0.0000   ZZZZ    -296.4001
 -----------------------------------------------------------------
 Calculating analytic gradient of the SCF energy
 Gradient of XC Energy
            1           2
    1   0.0000000  -0.0000000
    2  -0.0000000   0.0000000
    3  -0.1360801   0.1360801
 Gradient of SCF Energy
            1           2
    1  -0.0000000   0.0000000
    2  -0.0000000   0.0000000
    3  -0.0064472   0.0064472
 Max gradient component =       6.447E-03
 RMS gradient           =       3.722E-03
 Gradient time:  CPU 16.31 s  wall 16.38 s
 Geometry Optimization Parameters
   NAtoms,    NIC,     NZ,  NCons,   NDum,   NFix, NCnnct, MaxDiis
        2       5       2       0       0       0       0       0

 Cartesian Hessian Update
 Hessian Updated using BFGS Update


** GEOMETRY OPTIMIZATION IN CARTESIAN COORDINATES **
   Searching for a Minimum

   Optimization Cycle:   2

                       Coordinates (Angstroms)
     ATOM              X           Y           Z
    1  Cl          0.000000    0.000000    0.005080
    2  Cl          0.000000    0.000000    2.037233
   Point Group: c1    Number of degrees of freedom:   0


   Energy is   -920.426582842


 Translations and Rotations Projected Out of Hessian

  1 Hessian modes will be used to form the next step
  Hessian Eigenvalues:
     0.328520

 Minimum Search - Taking Simple RFO Step
 Searching for Lamda that Minimizes Along All modes
 Value Taken    Lamda =  -0.00025305
 Step Taken.  Stepsize is  0.027733

                             Maximum     Tolerance    Cnvgd?
         Gradient           0.006447      0.000300      NO
         Displacement       0.019610      0.001200      NO
         Energy change     -0.000154      0.000001      NO

 Writing REM_CC_EA            2
 ----------------------------------------------------
       Standard Nuclear Orientation (Angstroms)
    I     Atom         X            Y            Z
 ----------------------------------------------------
    1      Cl      0.000000     0.000000     0.015457
    2      Cl      0.000000     0.000000     2.026856
 ----------------------------------------------------
 Nuclear Repulsion Energy =    76.0327305478 hartrees
 There are       17 alpha and       17 beta electrons
 Applying Cartesian multipole field
    Component          Value
    ---------          -----
     (2,0,0)        1.00000E-11
     (0,2,0)        2.00000E-11
     (0,0,2)       -3.00000E-11
 Nucleus-field energy     =    -0.0000000075 hartrees
 Requested basis set is G3large
 There are 38 shells and 132 basis functions
 A cutoff of  1.0D-11 yielded    677 shell pairs
 There are   8446 function pairs ( 12163 Cartesian)
Evaluating contribution to one-electron hamiltonian from nuclear
 Smallest overlap matrix eigenvalue = 1.73E-03
 Multipole matrices computed through 2nd order
 Guess MOs from SCF MO coefficient file
Reading MOs from coefficient file
Reading MOs from coefficient file
 An unrestricted hybrid HF-DFT SCF calculation will be
 performed using Pulay DIIS extrapolation
 Exchange:     0.2000 Hartree-Fock + 0.0800 Slater + 0.7200 Becke88
 Correlation:  0.8100 LYP + 0.1900 VWN1RPA
 Using SG-1 standard quadrature grid
 SCF converges when DIIS error is below 1.0E-08
 ---------------------------------------
  Cycle       Energy         DIIS Error
 ---------------------------------------
    1    -920.4392248438      6.84E-04
    2    -920.4266721555      1.33E-04
    3    -920.4266688816      1.45E-04
    4    -920.4267019726      5.82E-06
    5    -920.4267020142      8.87E-07
    6    -920.4267020157      2.33E-07
    7    -920.4267020159      1.49E-08
    8    -920.4267020155      2.40E-09 Convergence criterion met
 ---------------------------------------
 One-Electron    Energy = -1421.6980748132
 Total Coulomb   Energy =   481.7375703828
 Alpha Exchange  Energy =    -5.5037426114
 Beta  Exchange  Energy =    -5.5037426114
 DFT   Exchange  Energy =   -43.7064171021
 DFT Correlation Energy =    -1.7850258006
 Nuclear Repu.   Energy =    76.0327305403
 Nuclear Attr.   Energy = -2340.8421123653
 Kinetic         Energy =   919.1440375521
 <S^2> = 0.0000
 SCF time:  CPU 27.04 s  wall 27.28 s
 Final Alpha MO Eigenvalues
            1           2           3           4           5           6
    1-101.5788013-101.5787990  -9.5142727  -9.5142431  -7.2792288  -7.2790989
            7           8           9          10          11          12
    1  -7.2663767  -7.2663767  -7.2663746  -7.2663746  -0.9360318  -0.7759879
           13          14          15          16          17          18
    1  -0.4765033  -0.4123682  -0.4123682  -0.3129021  -0.3129021  -0.1333237
           19          20          21          22
    1   0.0213296   0.0528170   0.0640539   0.0640539
 Final Beta MO Eigenvalues
            1           2           3           4           5           6
    1-101.5788013-101.5787990  -9.5142727  -9.5142431  -7.2792288  -7.2790989
            7           8           9          10          11          12
    1  -7.2663767  -7.2663767  -7.2663746  -7.2663746  -0.9360318  -0.7759879
           13          14          15          16          17          18
    1  -0.4765033  -0.4123682  -0.4123682  -0.3129021  -0.3129021  -0.1333237
           19          20          21          22
    1   0.0213296   0.0528170   0.0640539   0.0640539
 Analysis of SCF Wavefunction
 
 --------------------------------------------------------------
                    Orbital Energies (a.u.)
 --------------------------------------------------------------
 
 Alpha MOs
 -- Occupied --
*******-101.579  -9.514  -9.514  -7.279  -7.279  -7.266  -7.266
 -7.266  -7.266  -0.936  -0.776  -0.477  -0.412  -0.412  -0.313
 -0.313
 -- Virtual --
 -0.133   0.021   0.053   0.064   0.064   0.075   0.099   0.099
  0.160   0.196   0.196   0.202   0.203   0.297   0.316   0.316
  0.389   0.429   0.429   0.462   0.462   0.498   0.562   0.562
  0.566   0.754   0.939   0.939   0.985   0.985   0.990   1.024
  1.024   1.041   1.041   1.063   1.063   1.080   1.107   1.107
  1.168   1.168   1.291   1.306   1.306   1.404   1.405   1.489
  1.686   1.686   1.783   2.085   2.085   2.115   2.229   2.229
  2.727   4.282   4.282   4.287   4.288   4.328   4.328   4.341
  4.379   4.380   4.426   4.426   4.433   4.433   4.514   4.951
  4.953   4.981   4.983   4.998   4.998   5.007   5.035   5.035
  5.498   9.446   9.732  20.517  20.517  20.595  20.595  20.641
 20.975  27.088  27.102  27.112  27.160  27.170  27.170  27.174
 27.195  27.195  27.335  36.849  36.856  36.856  36.861  36.861
 36.865  36.865  36.869  36.869  36.870  36.870  36.872  36.872
 36.890 215.915 216.322
 
 Beta MOs
 -- Occupied --
*******-101.579  -9.514  -9.514  -7.279  -7.279  -7.266  -7.266
 -7.266  -7.266  -0.936  -0.776  -0.477  -0.412  -0.412  -0.313
 -0.313
 -- Virtual --
 -0.133   0.021   0.053   0.064   0.064   0.075   0.099   0.099
  0.160   0.196   0.196   0.202   0.203   0.297   0.316   0.316
  0.389   0.429   0.429   0.462   0.462   0.498   0.562   0.562
  0.566   0.754   0.939   0.939   0.985   0.985   0.990   1.024
  1.024   1.041   1.041   1.063   1.063   1.080   1.107   1.107
  1.168   1.168   1.291   1.306   1.306   1.404   1.405   1.489
  1.686   1.686   1.783   2.085   2.085   2.115   2.229   2.229
  2.727   4.282   4.282   4.287   4.288   4.328   4.328   4.341
  4.379   4.380   4.426   4.426   4.433   4.433   4.514   4.951
  4.953   4.981   4.983   4.998   4.998   5.007   5.035   5.035
  5.498   9.446   9.732  20.517  20.517  20.595  20.595  20.641
 20.975  27.088  27.102  27.112  27.160  27.170  27.170  27.174
 27.195  27.195  27.335  36.849  36.856  36.856  36.861  36.861
 36.865  36.865  36.869  36.869  36.870  36.870  36.872  36.872
 36.890 215.915 216.322
 --------------------------------------------------------------
 
          Ground-State Mulliken Net Atomic Charges

     Atom                 Charge (a.u.)    Spin (a.u.)
  --------------------------------------------------------
      1 Cl                    0.000000       0.000000
      2 Cl                    0.000000       0.000000
  --------------------------------------------------------
  Sum of atomic charges =     0.000000
  Sum of spin   charges =     0.000000

 -----------------------------------------------------------------
                    Cartesian Multipole Moments
 -----------------------------------------------------------------
    Charge (ESU x 10^10)
                 0.0000
    Dipole Moment (Debye)
         X       0.0000      Y       0.0000      Z       0.0000
       Tot       0.0000
    Quadrupole Moments (Debye-Ang)
        XX     -25.5169     XY       0.0000     YY     -25.5169
        XZ       0.0000     YZ       0.0000     ZZ     -22.2937
    Octapole Moments (Debye-Ang^2)
       XXX       0.0000    XXY       0.0000    XYY       0.0000
       YYY       0.0000    XXZ     -26.0568    XYZ       0.0000
       YYZ     -26.0568    XZZ       0.0000    YZZ       0.0000
       ZZZ     -68.2960
    Hexadecapole Moments (Debye-Ang^3)
      XXXX     -29.4107   XXXY       0.0000   XXYY      -9.8037
      XYYY       0.0000   YYYY     -29.4107   XXXZ       0.0000
      XXYZ       0.0000   XYYZ       0.0000   YYYZ       0.0000
      XXZZ     -61.9679   XYZZ       0.0000   YYZZ     -61.9679
      XZZZ       0.0000   YZZZ       0.0000   ZZZZ    -294.2728
 -----------------------------------------------------------------
 Calculating analytic gradient of the SCF energy
 Gradient of XC Energy
            1           2
    1   0.0000000  -0.0000000
    2   0.0000000  -0.0000000
    3  -0.1373307   0.1373307
 Gradient of SCF Energy
            1           2
    1   0.0000000  -0.0000000
    2  -0.0000000   0.0000000
    3   0.0004855  -0.0004855
 Max gradient component =       4.855E-04
 RMS gradient           =       2.803E-04
 Gradient time:  CPU 16.47 s  wall 16.55 s
 Geometry Optimization Parameters
   NAtoms,    NIC,     NZ,  NCons,   NDum,   NFix, NCnnct, MaxDiis
        2       5       2       0       0       0       0       0

 Cartesian Hessian Update
 Hessian Updated using BFGS Update


** GEOMETRY OPTIMIZATION IN CARTESIAN COORDINATES **
   Searching for a Minimum

   Optimization Cycle:   3

                       Coordinates (Angstroms)
     ATOM              X           Y           Z
    1  Cl          0.000000    0.000000    0.015457
    2  Cl          0.000000    0.000000    2.026856
   Point Group: c1    Number of degrees of freedom:   0


   Energy is   -920.426702016


 Translations and Rotations Projected Out of Hessian

  1 Hessian modes will be used to form the next step
  Hessian Eigenvalues:
     0.353532

 Minimum Search - Taking Simple RFO Step
 Searching for Lamda that Minimizes Along All modes
 Value Taken    Lamda =  -0.00000133
 Step Taken.  Stepsize is  0.001942

                             Maximum     Tolerance    Cnvgd?
         Gradient           0.000486      0.000300      NO
         Displacement       0.001373      0.001200      NO
         Energy change     -0.000119      0.000001      NO

 Writing REM_CC_EA            2
 ----------------------------------------------------
       Standard Nuclear Orientation (Angstroms)
    I     Atom         X            Y            Z
 ----------------------------------------------------
    1      Cl      0.000000     0.000000     0.014730
    2      Cl      0.000000     0.000000     2.027583
 ----------------------------------------------------
 Nuclear Repulsion Energy =    75.9778293487 hartrees
 There are       17 alpha and       17 beta electrons
 Applying Cartesian multipole field
    Component          Value
    ---------          -----
     (2,0,0)        1.00000E-11
     (0,2,0)        2.00000E-11
     (0,0,2)       -3.00000E-11
 Nucleus-field energy     =    -0.0000000075 hartrees
 Requested basis set is G3large
 There are 38 shells and 132 basis functions
 A cutoff of  1.0D-11 yielded    677 shell pairs
 There are   8446 function pairs ( 12163 Cartesian)
Evaluating contribution to one-electron hamiltonian from nuclear
 Smallest overlap matrix eigenvalue = 1.74E-03
 Multipole matrices computed through 2nd order
 Guess MOs from SCF MO coefficient file
Reading MOs from coefficient file
Reading MOs from coefficient file
 An unrestricted hybrid HF-DFT SCF calculation will be
 performed using Pulay DIIS extrapolation
 Exchange:     0.2000 Hartree-Fock + 0.0800 Slater + 0.7200 Becke88
 Correlation:  0.8100 LYP + 0.1900 VWN1RPA
 Using SG-1 standard quadrature grid
 SCF converges when DIIS error is below 1.0E-08
 ---------------------------------------
  Cycle       Energy         DIIS Error
 ---------------------------------------
    1    -920.4258357611      4.87E-05
    2    -920.4267025031      9.35E-06
    3    -920.4267024871      1.02E-05
    4    -920.4267026497      4.24E-07
    5    -920.4267026494      6.27E-08
    6    -920.4267026498      1.61E-08
    7    -920.4267026503      1.92E-09 Convergence criterion met
 ---------------------------------------
 One-Electron    Energy = -1421.5885320033
 Total Coulomb   Energy =   481.6823997197
 Alpha Exchange  Energy =    -5.5036850761
 Beta  Exchange  Energy =    -5.5036850761
 DFT   Exchange  Energy =   -43.7060429878
 DFT Correlation Energy =    -1.7849865679
 Nuclear Repu.   Energy =    75.9778293412
 Nuclear Attr.   Energy = -2340.7305505731
 Kinetic         Energy =   919.1420185697
 <S^2> = 0.0000
 SCF time:  CPU 22.90 s  wall 23.10 s
 Final Alpha MO Eigenvalues
            1           2           3           4           5           6
    1-101.5788580-101.5788557  -9.5143118  -9.5142818  -7.2792717  -7.2791431
            7           8           9          10          11          12
    1  -7.2664158  -7.2664158  -7.2664138  -7.2664138  -0.9356759  -0.7761415
           13          14          15          16          17          18
    1  -0.4763613  -0.4122054  -0.4122054  -0.3130225  -0.3130225  -0.1337592
           19          20          21          22
    1   0.0213376   0.0527714   0.0640753   0.0640753
 Final Beta MO Eigenvalues
            1           2           3           4           5           6
    1-101.5788580-101.5788557  -9.5143118  -9.5142818  -7.2792717  -7.2791431
            7           8           9          10          11          12
    1  -7.2664158  -7.2664158  -7.2664138  -7.2664138  -0.9356759  -0.7761415
           13          14          15          16          17          18
    1  -0.4763613  -0.4122054  -0.4122054  -0.3130225  -0.3130225  -0.1337592
           19          20          21          22
    1   0.0213376   0.0527714   0.0640753   0.0640753
 Analysis of SCF Wavefunction
 
 --------------------------------------------------------------
                    Orbital Energies (a.u.)
 --------------------------------------------------------------
 
 Alpha MOs
 -- Occupied --
*******-101.579  -9.514  -9.514  -7.279  -7.279  -7.266  -7.266
 -7.266  -7.266  -0.936  -0.776  -0.476  -0.412  -0.412  -0.313
 -0.313
 -- Virtual --
 -0.134   0.021   0.053   0.064   0.064   0.075   0.099   0.099
  0.160   0.196   0.196   0.203   0.203   0.297   0.316   0.316
  0.389   0.429   0.429   0.462   0.462   0.498   0.562   0.562
  0.566   0.754   0.939   0.939   0.985   0.985   0.990   1.024
  1.024   1.041   1.041   1.063   1.063   1.080   1.107   1.107
  1.168   1.168   1.291   1.305   1.305   1.403   1.405   1.489
  1.686   1.686   1.783   2.085   2.085   2.113   2.229   2.229
  2.728   4.282   4.282   4.287   4.287   4.328   4.328   4.340
  4.379   4.380   4.425   4.425   4.433   4.433   4.514   4.951
  4.953   4.981   4.983   4.998   4.998   5.009   5.035   5.035
  5.495   9.445   9.733  20.516  20.516  20.595  20.595  20.640
 20.975  27.088  27.102  27.112  27.160  27.170  27.170  27.174
 27.195  27.195  27.333  36.849  36.856  36.856  36.860  36.860
 36.865  36.865  36.869  36.869  36.870  36.870  36.872  36.872
 36.890 215.913 216.323
 
 Beta MOs
 -- Occupied --
*******-101.579  -9.514  -9.514  -7.279  -7.279  -7.266  -7.266
 -7.266  -7.266  -0.936  -0.776  -0.476  -0.412  -0.412  -0.313
 -0.313
 -- Virtual --
 -0.134   0.021   0.053   0.064   0.064   0.075   0.099   0.099
  0.160   0.196   0.196   0.203   0.203   0.297   0.316   0.316
  0.389   0.429   0.429   0.462   0.462   0.498   0.562   0.562
  0.566   0.754   0.939   0.939   0.985   0.985   0.990   1.024
  1.024   1.041   1.041   1.063   1.063   1.080   1.107   1.107
  1.168   1.168   1.291   1.305   1.305   1.403   1.405   1.489
  1.686   1.686   1.783   2.085   2.085   2.113   2.229   2.229
  2.728   4.282   4.282   4.287   4.287   4.328   4.328   4.340
  4.379   4.380   4.425   4.425   4.433   4.433   4.514   4.951
  4.953   4.981   4.983   4.998   4.998   5.009   5.035   5.035
  5.495   9.445   9.733  20.516  20.516  20.595  20.595  20.640
 20.975  27.088  27.102  27.112  27.160  27.170  27.170  27.174
 27.195  27.195  27.333  36.849  36.856  36.856  36.860  36.860
 36.865  36.865  36.869  36.869  36.870  36.870  36.872  36.872
 36.890 215.913 216.323
 --------------------------------------------------------------
 
          Ground-State Mulliken Net Atomic Charges

     Atom                 Charge (a.u.)    Spin (a.u.)
  --------------------------------------------------------
      1 Cl                    0.000000       0.000000
      2 Cl                    0.000000       0.000000
  --------------------------------------------------------
  Sum of atomic charges =     0.000000
  Sum of spin   charges =     0.000000

 -----------------------------------------------------------------
                    Cartesian Multipole Moments
 -----------------------------------------------------------------
    Charge (ESU x 10^10)
                 0.0000
    Dipole Moment (Debye)
         X       0.0000      Y       0.0000      Z       0.0000
       Tot       0.0000
    Quadrupole Moments (Debye-Ang)
        XX     -25.5190     XY       0.0000     YY     -25.5190
        XZ       0.0000     YZ       0.0000     ZZ     -22.2891
    Octapole Moments (Debye-Ang^2)
       XXX       0.0000    XXY       0.0000    XYY       0.0000
       YYY       0.0000    XXZ     -26.0589    XYZ       0.0000
       YYZ     -26.0589    XZZ       0.0000    YZZ       0.0000
       ZZZ     -68.2819
    Hexadecapole Moments (Debye-Ang^3)
      XXXX     -29.4157   XXXY       0.0000   XXYY      -9.8053
      XYYY       0.0000   YYYY     -29.4157   XXXZ       0.0000
      XXYZ       0.0000   XYYZ       0.0000   YYYZ       0.0000
      XXZZ     -62.0065   XYZZ       0.0000   YYZZ     -62.0065
      XZZZ       0.0000   YZZZ       0.0000   ZZZZ    -294.4202
 -----------------------------------------------------------------
 Calculating analytic gradient of the SCF energy
 Gradient of XC Energy
            1           2
    1  -0.0000000   0.0000000
    2  -0.0000000   0.0000000
    3  -0.1372467   0.1372467
 Gradient of SCF Energy
            1           2
    1   0.0000000  -0.0000000
    2  -0.0000000   0.0000000
    3  -0.0000231   0.0000231
 Max gradient component =       2.306E-05
 RMS gradient           =       1.331E-05
 Gradient time:  CPU 17.60 s  wall 17.63 s
 Geometry Optimization Parameters
   NAtoms,    NIC,     NZ,  NCons,   NDum,   NFix, NCnnct, MaxDiis
        2       5       2       0       0       0       0       0

 Cartesian Hessian Update
 Hessian Updated using BFGS Update


** GEOMETRY OPTIMIZATION IN CARTESIAN COORDINATES **
   Searching for a Minimum

   Optimization Cycle:   4

                       Coordinates (Angstroms)
     ATOM              X           Y           Z
    1  Cl          0.000000    0.000000    0.014730
    2  Cl          0.000000    0.000000    2.027583
   Point Group: c1    Number of degrees of freedom:   0


   Energy is   -920.426702650


 Translations and Rotations Projected Out of Hessian

  1 Hessian modes will be used to form the next step
  Hessian Eigenvalues:
     0.370324

 Minimum Search - Taking Simple RFO Step
 Searching for Lamda that Minimizes Along All modes
 Value Taken    Lamda =   0.00000000
 Step Taken.  Stepsize is  0.000088

                             Maximum     Tolerance    Cnvgd?
         Gradient           0.000023      0.000300     YES
         Displacement       0.000062      0.001200     YES
         Energy change     -0.000001      0.000001     YES


                       Distance Matrix (Angstroms)
             Cl(  1)
   Cl(  2)  2.012853
 


 ******************************
 **  OPTIMIZATION CONVERGED  **
 ******************************
 Analysis of SCF Wavefunction
 
 --------------------------------------------------------------
                    Orbital Energies (a.u.)
 --------------------------------------------------------------
 
 Alpha MOs
 -- Occupied --
*******-101.579  -9.514  -9.514  -7.279  -7.279  -7.266  -7.266
 -7.266  -7.266  -0.936  -0.776  -0.476  -0.412  -0.412  -0.313
 -0.313
 -- Virtual --
 -0.134   0.021   0.053   0.064   0.064   0.075   0.099   0.099
  0.160   0.196   0.196   0.203   0.203   0.297   0.316   0.316
  0.389   0.429   0.429   0.462   0.462   0.498   0.562   0.562
  0.566   0.754   0.939   0.939   0.985   0.985   0.990   1.024
  1.024   1.041   1.041   1.063   1.063   1.080   1.107   1.107
  1.168   1.168   1.291   1.305   1.305   1.403   1.405   1.489
  1.686   1.686   1.783   2.085   2.085   2.113   2.229   2.229
  2.728   4.282   4.282   4.287   4.287   4.328   4.328   4.340
  4.379   4.380   4.425   4.425   4.433   4.433   4.514   4.951
  4.953   4.981   4.983   4.998   4.998   5.009   5.035   5.035
  5.495   9.445   9.733  20.516  20.516  20.595  20.595  20.640
 20.975  27.088  27.102  27.112  27.160  27.170  27.170  27.174
 27.195  27.195  27.333  36.849  36.856  36.856  36.860  36.860
 36.865  36.865  36.869  36.869  36.870  36.870  36.872  36.872
 36.890 215.913 216.323
 
 Beta MOs
 -- Occupied --
*******-101.579  -9.514  -9.514  -7.279  -7.279  -7.266  -7.266
 -7.266  -7.266  -0.936  -0.776  -0.476  -0.412  -0.412  -0.313
 -0.313
 -- Virtual --
 -0.134   0.021   0.053   0.064   0.064   0.075   0.099   0.099
  0.160   0.196   0.196   0.203   0.203   0.297   0.316   0.316
  0.389   0.429   0.429   0.462   0.462   0.498   0.562   0.562
  0.566   0.754   0.939   0.939   0.985   0.985   0.990   1.024
  1.024   1.041   1.041   1.063   1.063   1.080   1.107   1.107
  1.168   1.168   1.291   1.305   1.305   1.403   1.405   1.489
  1.686   1.686   1.783   2.085   2.085   2.113   2.229   2.229
  2.728   4.282   4.282   4.287   4.287   4.328   4.328   4.340
  4.379   4.380   4.425   4.425   4.433   4.433   4.514   4.951
  4.953   4.981   4.983   4.998   4.998   5.009   5.035   5.035
  5.495   9.445   9.733  20.516  20.516  20.595  20.595  20.640
 20.975  27.088  27.102  27.112  27.160  27.170  27.170  27.174
 27.195  27.195  27.333  36.849  36.856  36.856  36.860  36.860
 36.865  36.865  36.869  36.869  36.870  36.870  36.872  36.872
 36.890 215.913 216.323
 --------------------------------------------------------------
 
          Ground-State Mulliken Net Atomic Charges

     Atom                 Charge (a.u.)    Spin (a.u.)
  --------------------------------------------------------
      1 Cl                    0.000000       0.000000
      2 Cl                    0.000000       0.000000
  --------------------------------------------------------
  Sum of atomic charges =     0.000000
  Sum of spin   charges =     0.000000

 -----------------------------------------------------------------
                    Cartesian Multipole Moments
 -----------------------------------------------------------------
    Charge (ESU x 10^10)
                 0.0000
    Dipole Moment (Debye)
         X       0.0000      Y       0.0000      Z       0.0000
       Tot       0.0000
    Quadrupole Moments (Debye-Ang)
        XX     -25.5190     XY       0.0000     YY     -25.5190
        XZ       0.0000     YZ       0.0000     ZZ     -22.2891
    Octapole Moments (Debye-Ang^2)
       XXX       0.0000    XXY       0.0000    XYY       0.0000
       YYY       0.0000    XXZ     -26.0589    XYZ       0.0000
       YYZ     -26.0589    XZZ       0.0000    YZZ       0.0000
       ZZZ     -68.2819
    Hexadecapole Moments (Debye-Ang^3)
      XXXX     -29.4157   XXXY       0.0000   XXYY      -9.8053
      XYYY       0.0000   YYYY     -29.4157   XXXZ       0.0000
      XXYZ       0.0000   XYYZ       0.0000   YYYZ       0.0000
      XXZZ     -62.0065   XYZZ       0.0000   YYZZ     -62.0065
      XZZZ       0.0000   YZZZ       0.0000   ZZZZ    -294.4202
 -----------------------------------------------------------------
 Total job time:  175.57s(wall), 173.18s(cpu) 
 Wed Jul 24 16:01:48 2013

        *************************************************************
        *                                                           *
        *  Thank you very much for using Q-Chem.  Have a nice day.  *
        *                                                           *
        *************************************************************


0 sent ACK to 0 
now end server 0 ... 
 
**********************************************************************
Job 2 of 2 
**********************************************************************
 
Process 0 of 1 is on cl118.stfx.acenet.ca - thread support 1
initial socket setup ...start
initial socket setup ...done 
now start server 0 ... 

cmd = /usr/bin/ssh clhead /usr/local/qchem/bin/get_hostid 432499481 > /scratch/tmp/6067068.1.short.q/qchem28226/lic.dat
                  Welcome to Q-Chem
     A Quantum Leap Into The Future Of Chemistry

 Y. Shao, L. Fusti-Molnar, Y. Jung, J. Kussmann, C. Ochsenfeld,
 S. T. Brown, A. T. B. Gilbert, L. V. Slipchenko,S. V. Levchenko,
 D. P. O'Neill, R. A. DiStasio Jr., R. C. Lochan, T. Wang,
 G. J. O. Beran, N. A. Besley, J. M. Herbert, C. Y. Lin,
 T. Van Voorhis, S. H. Chien, A. Sodt, R. P. Steele, 
 V. A. Rassolov, P. E. Maslen, P. P. Korambath, R. D. Adamson,
 B. Austin, J. Baker, E. F. C. Byrd, H. Dachsel, R. J. Doerksen,
 A. Dreuw, B. D. Dunietz, A. D. Dutoi, T. R. Furlani,
 S. R. Gwaltney, A. Heyden, S. Hirata, C.-P. Hsu, G. Kedziora,
 R. Z. Khaliullin, P. Klunzinger, A. M. Lee, M. S. Lee, W. Liang,
 I. Lotan, N. Nair, B. Peters, E. I. Proynov, P. A. Pieniazek, 
 Y. M. Rhee, J. Ritchie, E. Rosta, C. D. Sherrill, 
 A. C. Simmonett, J. E. Subotnik, H. L. Woodcock III,
 W. Zhang, A. T. Bell, A. K. Chakraborty, D. M. Chipman,
 F. J. Keil, A. Warshel, W. J. Hehre, H. F. Schaefer III,
 J. Kong, A. I. Krylov, P. M. W. Gill, M. Head-Gordon,
 Q-Chem, Version 3.1, Q-Chem, Inc., Pittsburgh, PA (2007).

 Additional authors for Version 3.1: 
 Z. Gan, Y. Zhao, N. E. Schultz, D. Truhlar, E. Epifanovsky and M. Oana.

 Additional authors for Version 3.2: 
 R. Baer, B. R. Brooks, D. Casanova, J.-D. Chai, C.-L. Cheng, 
 C. Cramer, D. Crittenden, A. Ghysels, G. Hawkins, E. G. Hohenstein, 
 C. Kelley, W. Kurlancheek, D. Liotard, E. Livshits, P. Manohar, 
 A. Marenich, D. Neuhauser, R. Olson, M. A. Rohrdanz, K. S. Thanthiriwatte, 
 A. J. W. Thom, V. Vanovschi, C. F. Williams, Q. Wu and Z.-Q. You. 


 Intel X86 Linux Version

 Q-chem begins on Wed Jul 24 16:01:51 2013  

 Parallel job on  1  processors
Processing $rem in /usr/local/qchem/config/preferences.

theFileMan(): MAXOPENFILES=974 MAX_SUB_FILE_NUM=16
Maximum size of a physical file is 2.0 GB, maximum size of a tmp-file is 32.0 GB


--------------------------------------------------------------
User input:
--------------------------------------------------------------

$molecule 
READ 
$end 

$rem
   EXCHANGE B3LYP
   UNRESTRICTED TRUE
   SYMMETRY_DECOMPOSITION       0
   BASIS                   g3large
   JOBTYPE                 freq
   mem_static              760
   max_scf_cycles          200
   scf_final_print         1
   sym_ignore              true
   JOBTYPE                 freq
   IDERIV 1
   SCF_GUESS READ
$end
--------------------------------------------------------------
 Writing REM_CC_EA            2
 ----------------------------------------------------
       Standard Nuclear Orientation (Angstroms)
    I     Atom         X            Y            Z
 ----------------------------------------------------
    1      Cl      0.000000     0.000000     0.014730
    2      Cl      0.000000     0.000000     2.027583
 ----------------------------------------------------
 Nuclear Repulsion Energy =    75.9778293487 hartrees
 There are       17 alpha and       17 beta electrons
 Requested basis set is G3large
 There are 38 shells and 132 basis functions

Total QAlloc Memory Limit   2000 MB
Mega-Array Size       759 MB
MEM_STATIC part       760 MB

                       Distance Matrix (Angstroms)
             Cl(  1)
   Cl(  2)  2.012853
 
 A cutoff of  1.0D-11 yielded    677 shell pairs
 There are   8446 function pairs ( 12163 Cartesian)
Evaluating contribution to one-electron hamiltonian from nuclear
 Smallest overlap matrix eigenvalue = 1.74E-03
 Multipole matrices computed through 2nd order
 Guess MOs from SCF MO coefficient file
Reading MOs from coefficient file
Reading MOs from coefficient file
 An unrestricted hybrid HF-DFT SCF calculation will be
 performed using Pulay DIIS extrapolation
 Exchange:     0.2000 Hartree-Fock + 0.0800 Slater + 0.7200 Becke88
 Correlation:  0.8100 LYP + 0.1900 VWN1RPA
 Using SG-1 standard quadrature grid
 SCF converges when DIIS error is below 1.0E-08
 ---------------------------------------
  Cycle       Energy         DIIS Error
 ---------------------------------------
    1    -920.4267026498      1.13E-09
    2    -920.4267026499      1.90E-09 Convergence criterion met
 ---------------------------------------
 One-Electron    Energy = -1421.5885311072
 Total Coulomb   Energy =   481.6823987672
 Alpha Exchange  Energy =    -5.5036850714
 Beta  Exchange  Energy =    -5.5036850714
 DFT   Exchange  Energy =   -43.7060429496
 DFT Correlation Energy =    -1.7849865661
 Nuclear Repu.   Energy =    75.9778293487
 Nuclear Attr.   Energy = -2340.7305492178
 Kinetic         Energy =   919.1420181106
 <S^2> = 0.0000
 SCF time:  CPU 7.83 s  wall 7.83 s
 Final Alpha MO Eigenvalues
            1           2           3           4           5           6
    1-101.5788580-101.5788557  -9.5143118  -9.5142818  -7.2792717  -7.2791431
            7           8           9          10          11          12
    1  -7.2664158  -7.2664158  -7.2664138  -7.2664138  -0.9356758  -0.7761415
           13          14          15          16          17          18
    1  -0.4763613  -0.4122054  -0.4122054  -0.3130225  -0.3130225  -0.1337592
           19          20          21          22
    1   0.0213376   0.0527714   0.0640753   0.0640753
 Final Beta MO Eigenvalues
            1           2           3           4           5           6
    1-101.5788580-101.5788557  -9.5143118  -9.5142818  -7.2792717  -7.2791431
            7           8           9          10          11          12
    1  -7.2664158  -7.2664158  -7.2664138  -7.2664138  -0.9356758  -0.7761415
           13          14          15          16          17          18
    1  -0.4763613  -0.4122054  -0.4122054  -0.3130225  -0.3130225  -0.1337592
           19          20          21          22
    1   0.0213376   0.0527714   0.0640753   0.0640753
 Analysis of SCF Wavefunction
 
 --------------------------------------------------------------
                    Orbital Energies (a.u.)
 --------------------------------------------------------------
 
 Alpha MOs
 -- Occupied --
*******-101.579  -9.514  -9.514  -7.279  -7.279  -7.266  -7.266
 -7.266  -7.266  -0.936  -0.776  -0.476  -0.412  -0.412  -0.313
 -0.313
 -- Virtual --
 -0.134   0.021   0.053   0.064   0.064   0.075   0.099   0.099
  0.160   0.196   0.196   0.203   0.203   0.297   0.316   0.316
  0.389   0.429   0.429   0.462   0.462   0.498   0.562   0.562
  0.566   0.754   0.939   0.939   0.985   0.985   0.990   1.024
  1.024   1.041   1.041   1.063   1.063   1.080   1.107   1.107
  1.168   1.168   1.291   1.305   1.305   1.403   1.405   1.489
  1.686   1.686   1.783   2.085   2.085   2.113   2.229   2.229
  2.728   4.282   4.282   4.287   4.287   4.328   4.328   4.340
  4.379   4.380   4.425   4.425   4.433   4.433   4.514   4.951
  4.953   4.981   4.983   4.998   4.998   5.009   5.035   5.035
  5.495   9.445   9.733  20.516  20.516  20.595  20.595  20.640
 20.975  27.088  27.102  27.112  27.160  27.170  27.170  27.174
 27.195  27.195  27.333  36.849  36.856  36.856  36.860  36.860
 36.865  36.865  36.869  36.869  36.870  36.870  36.872  36.872
 36.890 215.913 216.323
 
 Beta MOs
 -- Occupied --
*******-101.579  -9.514  -9.514  -7.279  -7.279  -7.266  -7.266
 -7.266  -7.266  -0.936  -0.776  -0.476  -0.412  -0.412  -0.313
 -0.313
 -- Virtual --
 -0.134   0.021   0.053   0.064   0.064   0.075   0.099   0.099
  0.160   0.196   0.196   0.203   0.203   0.297   0.316   0.316
  0.389   0.429   0.429   0.462   0.462   0.498   0.562   0.562
  0.566   0.754   0.939   0.939   0.985   0.985   0.990   1.024
  1.024   1.041   1.041   1.063   1.063   1.080   1.107   1.107
  1.168   1.168   1.291   1.305   1.305   1.403   1.405   1.489
  1.686   1.686   1.783   2.085   2.085   2.113   2.229   2.229
  2.728   4.282   4.282   4.287   4.287   4.328   4.328   4.340
  4.379   4.380   4.425   4.425   4.433   4.433   4.514   4.951
  4.953   4.981   4.983   4.998   4.998   5.009   5.035   5.035
  5.495   9.445   9.733  20.516  20.516  20.595  20.595  20.640
 20.975  27.088  27.102  27.112  27.160  27.170  27.170  27.174
 27.195  27.195  27.333  36.849  36.856  36.856  36.860  36.860
 36.865  36.865  36.869  36.869  36.870  36.870  36.872  36.872
 36.890 215.913 216.323
 --------------------------------------------------------------
 
          Ground-State Mulliken Net Atomic Charges

     Atom                 Charge (a.u.)    Spin (a.u.)
  --------------------------------------------------------
      1 Cl                    0.000000       0.000000
      2 Cl                    0.000000       0.000000
  --------------------------------------------------------
  Sum of atomic charges =     0.000000
  Sum of spin   charges =     0.000000

 -----------------------------------------------------------------
                    Cartesian Multipole Moments
 -----------------------------------------------------------------
    Charge (ESU x 10^10)
                 0.0000
    Dipole Moment (Debye)
         X       0.0000      Y       0.0000      Z       0.0000
       Tot       0.0000
    Quadrupole Moments (Debye-Ang)
        XX     -25.5190     XY       0.0000     YY     -25.5190
        XZ       0.0000     YZ       0.0000     ZZ     -22.2891
    Octapole Moments (Debye-Ang^2)
       XXX       0.0000    XXY       0.0000    XYY       0.0000
       YYY       0.0000    XXZ     -26.0589    XYZ       0.0000
       YYZ     -26.0589    XZZ       0.0000    YZZ       0.0000
       ZZZ     -68.2819
    Hexadecapole Moments (Debye-Ang^3)
      XXXX     -29.4157   XXXY       0.0000   XXYY      -9.8053
      XYYY       0.0000   YYYY     -29.4157   XXXZ       0.0000
      XXYZ       0.0000   XYYZ       0.0000   YYYZ       0.0000
      XXZZ     -62.0065   XYZZ       0.0000   YYZZ     -62.0065
      XZZZ       0.0000   YZZZ       0.0000   ZZZZ    -294.4202
 -----------------------------------------------------------------
 Calculating analytic gradient of the SCF energy
 Gradient of XC Energy
            1           2
    1  -0.0000000   0.0000000
    2  -0.0000000   0.0000000
    3  -0.1372467   0.1372467
 Gradient of SCF Energy
            1           2
    1   0.0000000  -0.0000000
    2  -0.0000000   0.0000000
    3  -0.0000231   0.0000231
 Max gradient component =       2.306E-05
 RMS gradient           =       1.332E-05
 Gradient time:  CPU 17.18 s  wall 17.24 s
 ######################################################
 ######################################################
 # Starting finite difference calculation for IDERIV  #
 Finite diff step size: 1.89e-03 a.u.
 Writing REM_CC_EA            2
 ----------------------------------------------------
       Standard Nuclear Orientation (Angstroms)
    I     Atom         X            Y            Z
 ----------------------------------------------------
    1      Cl      0.001000     0.000000     0.014730
    2      Cl      0.000000     0.000000     2.027583
 ----------------------------------------------------
 Nuclear Repulsion Energy =    75.9778199724 hartrees
 There are       17 alpha and       17 beta electrons

                       Distance Matrix (Angstroms)
             Cl(  1)
   Cl(  2)  2.012853
 
 Requested basis set is G3large
 There are 38 shells and 132 basis functions
 A cutoff of  1.0D-11 yielded    677 shell pairs
 There are   8446 function pairs ( 12163 Cartesian)
Evaluating contribution to one-electron hamiltonian from nuclear
 Smallest overlap matrix eigenvalue = 1.74E-03
 Multipole matrices computed through 2nd order
 Guess MOs from SCF MO coefficient file
Reading MOs from coefficient file
Reading MOs from coefficient file
 An unrestricted hybrid HF-DFT SCF calculation will be
 performed using Pulay DIIS extrapolation
 Exchange:     0.2000 Hartree-Fock + 0.0800 Slater + 0.7200 Becke88
 Correlation:  0.8100 LYP + 0.1900 VWN1RPA
 Using SG-1 standard quadrature grid
 SCF converges when DIIS error is below 1.0E-08
 ---------------------------------------
  Cycle       Energy         DIIS Error
 ---------------------------------------
    1    -920.4267023340      1.12E-05
    2    -920.4267026492      1.03E-06
    3    -920.4267026520      1.99E-07
    4    -920.4267026517      1.14E-07
    5    -920.4267026521      1.46E-08
    6    -920.4267026512      2.76E-09 Convergence criterion met
 ---------------------------------------
 One-Electron    Energy = -1421.5885136672
 Total Coulomb   Energy =   481.6823906766
 Alpha Exchange  Energy =    -5.5036850676
 Beta  Exchange  Energy =    -5.5036850676
 DFT   Exchange  Energy =   -43.7060429356
 DFT Correlation Energy =    -1.7849865621
 Nuclear Repu.   Energy =    75.9778199724
 Nuclear Attr.   Energy = -2340.7305320692
 Kinetic         Energy =   919.1420184020
 <S^2> = 0.0000
 SCF time:  CPU 21.83 s  wall 22.28 s
 Final Alpha MO Eigenvalues
            1           2           3           4           5           6
    1-101.5788580-101.5788557  -9.5143118  -9.5142818  -7.2792716  -7.2791431
            7           8           9          10          11          12
    1  -7.2664158  -7.2664158  -7.2664138  -7.2664138  -0.9356758  -0.7761415
           13          14          15          16          17          18
    1  -0.4763612  -0.4122054  -0.4122054  -0.3130225  -0.3130225  -0.1337593
           19          20          21          22
    1   0.0213376   0.0527714   0.0640753   0.0640753
 Final Beta MO Eigenvalues
            1           2           3           4           5           6
    1-101.5788580-101.5788557  -9.5143118  -9.5142818  -7.2792716  -7.2791431
            7           8           9          10          11          12
    1  -7.2664158  -7.2664158  -7.2664138  -7.2664138  -0.9356758  -0.7761415
           13          14          15          16          17          18
    1  -0.4763612  -0.4122054  -0.4122054  -0.3130225  -0.3130225  -0.1337593
           19          20          21          22
    1   0.0213376   0.0527714   0.0640753   0.0640753
 Analysis of SCF Wavefunction
 
 --------------------------------------------------------------
                    Orbital Energies (a.u.)
 --------------------------------------------------------------
 
 Alpha MOs
 -- Occupied --
*******-101.579  -9.514  -9.514  -7.279  -7.279  -7.266  -7.266
 -7.266  -7.266  -0.936  -0.776  -0.476  -0.412  -0.412  -0.313
 -0.313
 -- Virtual --
 -0.134   0.021   0.053   0.064   0.064   0.075   0.099   0.099
  0.160   0.196   0.196   0.203   0.203   0.297   0.316   0.316
  0.389   0.429   0.429   0.462   0.462   0.498   0.562   0.562
  0.566   0.754   0.939   0.939   0.985   0.985   0.990   1.024
  1.024   1.041   1.041   1.063   1.063   1.080   1.107   1.107
  1.168   1.168   1.291   1.305   1.305   1.403   1.405   1.489
  1.686   1.686   1.783   2.085   2.085   2.113   2.229   2.229
  2.728   4.282   4.282   4.287   4.287   4.328   4.328   4.340
  4.379   4.380   4.425   4.425   4.433   4.433   4.514   4.951
  4.953   4.981   4.983   4.998   4.998   5.009   5.035   5.035
  5.495   9.445   9.733  20.516  20.516  20.595  20.595  20.640
 20.975  27.088  27.102  27.112  27.160  27.170  27.170  27.174
 27.195  27.195  27.333  36.849  36.856  36.856  36.860  36.860
 36.865  36.865  36.869  36.869  36.870  36.870  36.872  36.872
 36.890 215.913 216.323
 
 Beta MOs
 -- Occupied --
*******-101.579  -9.514  -9.514  -7.279  -7.279  -7.266  -7.266
 -7.266  -7.266  -0.936  -0.776  -0.476  -0.412  -0.412  -0.313
 -0.313
 -- Virtual --
 -0.134   0.021   0.053   0.064   0.064   0.075   0.099   0.099
  0.160   0.196   0.196   0.203   0.203   0.297   0.316   0.316
  0.389   0.429   0.429   0.462   0.462   0.498   0.562   0.562
  0.566   0.754   0.939   0.939   0.985   0.985   0.990   1.024
  1.024   1.041   1.041   1.063   1.063   1.080   1.107   1.107
  1.168   1.168   1.291   1.305   1.305   1.403   1.405   1.489
  1.686   1.686   1.783   2.085   2.085   2.113   2.229   2.229
  2.728   4.282   4.282   4.287   4.287   4.328   4.328   4.340
  4.379   4.380   4.425   4.425   4.433   4.433   4.514   4.951
  4.953   4.981   4.983   4.998   4.998   5.009   5.035   5.035
  5.495   9.445   9.733  20.516  20.516  20.595  20.595  20.640
 20.975  27.088  27.102  27.112  27.160  27.170  27.170  27.174
 27.195  27.195  27.333  36.849  36.856  36.856  36.860  36.860
 36.865  36.865  36.869  36.869  36.870  36.870  36.872  36.872
 36.890 215.913 216.323
 --------------------------------------------------------------
 
          Ground-State Mulliken Net Atomic Charges

     Atom                 Charge (a.u.)    Spin (a.u.)
  --------------------------------------------------------
      1 Cl                    0.000000       0.000000
      2 Cl                    0.000000       0.000000
  --------------------------------------------------------
  Sum of atomic charges =     0.000000
  Sum of spin   charges =     0.000000

 -----------------------------------------------------------------
                    Cartesian Multipole Moments
 -----------------------------------------------------------------
    Charge (ESU x 10^10)
                 0.0000
    Dipole Moment (Debye)
         X       0.0000      Y       0.0000      Z       0.0000
       Tot       0.0000
    Quadrupole Moments (Debye-Ang)
        XX     -25.5190     XY       0.0000     YY     -25.5190
        XZ      -0.0016     YZ       0.0000     ZZ     -22.2891
    Octapole Moments (Debye-Ang^2)
       XXX      -0.0383    XXY       0.0000    XYY      -0.0128
       YYY       0.0000    XXZ     -26.0589    XYZ       0.0000
       YYZ     -26.0589    XZZ      -0.0144    YZZ       0.0000
       ZZZ     -68.2819
    Hexadecapole Moments (Debye-Ang^3)
      XXXX     -29.4157   XXXY       0.0000   XXYY      -9.8054
      XYYY       0.0000   YYYY     -29.4157   XXXZ      -0.0009
      XXYZ       0.0000   XYYZ      -0.0003   YYYZ       0.0000
      XXZZ     -62.0065   XYZZ       0.0000   YYZZ     -62.0065
      XZZZ      -0.0149   YZZZ       0.0000   ZZZZ    -294.4202
 -----------------------------------------------------------------
 Calculating analytic gradient of the SCF energy
 Gradient of XC Energy
            1           2
    1   0.0000671  -0.0000671
    2   0.0000000  -0.0000000
    3  -0.1372467   0.1372467
 Gradient of SCF Energy
            1           2
    1  -0.0000017   0.0000017
    2   0.0000000  -0.0000000
    3  -0.0000232   0.0000232
 Max gradient component =       2.315E-05
 RMS gradient           =       1.340E-05
 Gradient time:  CPU 23.33 s  wall 23.44 s
 Writing REM_CC_EA            2
 ----------------------------------------------------
       Standard Nuclear Orientation (Angstroms)
    I     Atom         X            Y            Z
 ----------------------------------------------------
    1      Cl     -0.001000     0.000000     0.014730
    2      Cl      0.000000     0.000000     2.027583
 ----------------------------------------------------
 Nuclear Repulsion Energy =    75.9778199724 hartrees
 There are       17 alpha and       17 beta electrons

                       Distance Matrix (Angstroms)
             Cl(  1)
   Cl(  2)  2.012853
 
 Requested basis set is G3large
 There are 38 shells and 132 basis functions
 A cutoff of  1.0D-11 yielded    677 shell pairs
 There are   8446 function pairs ( 12163 Cartesian)
Evaluating contribution to one-electron hamiltonian from nuclear
 Smallest overlap matrix eigenvalue = 1.74E-03
 Multipole matrices computed through 2nd order
 Guess MOs from SCF MO coefficient file
Reading MOs from coefficient file
Reading MOs from coefficient file
 An unrestricted hybrid HF-DFT SCF calculation will be
 performed using Pulay DIIS extrapolation
 Exchange:     0.2000 Hartree-Fock + 0.0800 Slater + 0.7200 Becke88
 Correlation:  0.8100 LYP + 0.1900 VWN1RPA
 Using SG-1 standard quadrature grid
 SCF converges when DIIS error is below 1.0E-08
 ---------------------------------------
  Cycle       Energy         DIIS Error
 ---------------------------------------
    1    -920.4267019795      2.24E-05
    2    -920.4267026396      2.05E-06
    3    -920.4267026515      3.98E-07
    4    -920.4267026503      2.29E-07
    5    -920.4267026516      2.96E-08
    6    -920.4267026510      7.65E-09 Convergence criterion met
 ---------------------------------------
 One-Electron    Energy = -1421.5885157231
 Total Coulomb   Energy =   481.6823928351
 Alpha Exchange  Energy =    -5.5036850774
 Beta  Exchange  Energy =    -5.5036850774
 DFT   Exchange  Energy =   -43.7060430148
 DFT Correlation Energy =    -1.7849865658
 Nuclear Repu.   Energy =    75.9778199724
 Nuclear Attr.   Energy = -2340.7305351692
 Kinetic         Energy =   919.1420194461
 <S^2> = 0.0000
 SCF time:  CPU 22.04 s  wall 22.19 s
 Final Alpha MO Eigenvalues
            1           2           3           4           5           6
    1-101.5788580-101.5788557  -9.5143118  -9.5142818  -7.2792716  -7.2791431
            7           8           9          10          11          12
    1  -7.2664158  -7.2664158  -7.2664138  -7.2664138  -0.9356758  -0.7761415
           13          14          15          16          17          18
    1  -0.4763612  -0.4122054  -0.4122054  -0.3130225  -0.3130225  -0.1337593
           19          20          21          22
    1   0.0213376   0.0527714   0.0640753   0.0640753
 Final Beta MO Eigenvalues
            1           2           3           4           5           6
    1-101.5788580-101.5788557  -9.5143118  -9.5142818  -7.2792716  -7.2791431
            7           8           9          10          11          12
    1  -7.2664158  -7.2664158  -7.2664138  -7.2664138  -0.9356758  -0.7761415
           13          14          15          16          17          18
    1  -0.4763612  -0.4122054  -0.4122054  -0.3130225  -0.3130225  -0.1337593
           19          20          21          22
    1   0.0213376   0.0527714   0.0640753   0.0640753
 Analysis of SCF Wavefunction
 
 --------------------------------------------------------------
                    Orbital Energies (a.u.)
 --------------------------------------------------------------
 
 Alpha MOs
 -- Occupied --
*******-101.579  -9.514  -9.514  -7.279  -7.279  -7.266  -7.266
 -7.266  -7.266  -0.936  -0.776  -0.476  -0.412  -0.412  -0.313
 -0.313
 -- Virtual --
 -0.134   0.021   0.053   0.064   0.064   0.075   0.099   0.099
  0.160   0.196   0.196   0.203   0.203   0.297   0.316   0.316
  0.389   0.429   0.429   0.462   0.462   0.498   0.562   0.562
  0.566   0.754   0.939   0.939   0.985   0.985   0.990   1.024
  1.024   1.041   1.041   1.063   1.063   1.080   1.107   1.107
  1.168   1.168   1.291   1.305   1.305   1.403   1.405   1.489
  1.686   1.686   1.783   2.085   2.085   2.113   2.229   2.229
  2.728   4.282   4.282   4.287   4.287   4.328   4.328   4.340
  4.379   4.380   4.425   4.425   4.433   4.433   4.514   4.951
  4.953   4.981   4.983   4.998   4.998   5.009   5.035   5.035
  5.495   9.445   9.733  20.516  20.516  20.595  20.595  20.640
 20.975  27.088  27.102  27.112  27.160  27.170  27.170  27.174
 27.195  27.195  27.333  36.849  36.856  36.856  36.860  36.860
 36.865  36.865  36.869  36.869  36.870  36.870  36.872  36.872
 36.890 215.913 216.323
 
 Beta MOs
 -- Occupied --
*******-101.579  -9.514  -9.514  -7.279  -7.279  -7.266  -7.266
 -7.266  -7.266  -0.936  -0.776  -0.476  -0.412  -0.412  -0.313
 -0.313
 -- Virtual --
 -0.134   0.021   0.053   0.064   0.064   0.075   0.099   0.099
  0.160   0.196   0.196   0.203   0.203   0.297   0.316   0.316
  0.389   0.429   0.429   0.462   0.462   0.498   0.562   0.562
  0.566   0.754   0.939   0.939   0.985   0.985   0.990   1.024
  1.024   1.041   1.041   1.063   1.063   1.080   1.107   1.107
  1.168   1.168   1.291   1.305   1.305   1.403   1.405   1.489
  1.686   1.686   1.783   2.085   2.085   2.113   2.229   2.229
  2.728   4.282   4.282   4.287   4.287   4.328   4.328   4.340
  4.379   4.380   4.425   4.425   4.433   4.433   4.514   4.951
  4.953   4.981   4.983   4.998   4.998   5.009   5.035   5.035
  5.495   9.445   9.733  20.516  20.516  20.595  20.595  20.640
 20.975  27.088  27.102  27.112  27.160  27.170  27.170  27.174
 27.195  27.195  27.333  36.849  36.856  36.856  36.860  36.860
 36.865  36.865  36.869  36.869  36.870  36.870  36.872  36.872
 36.890 215.913 216.323
 --------------------------------------------------------------
 
          Ground-State Mulliken Net Atomic Charges

     Atom                 Charge (a.u.)    Spin (a.u.)
  --------------------------------------------------------
      1 Cl                    0.000000       0.000000
      2 Cl                    0.000000       0.000000
  --------------------------------------------------------
  Sum of atomic charges =     0.000000
  Sum of spin   charges =     0.000000

 -----------------------------------------------------------------
                    Cartesian Multipole Moments
 -----------------------------------------------------------------
    Charge (ESU x 10^10)
                 0.0000
    Dipole Moment (Debye)
         X       0.0000      Y       0.0000      Z       0.0000
       Tot       0.0000
    Quadrupole Moments (Debye-Ang)
        XX     -25.5190     XY       0.0000     YY     -25.5190
        XZ       0.0016     YZ       0.0000     ZZ     -22.2891
    Octapole Moments (Debye-Ang^2)
       XXX       0.0383    XXY       0.0000    XYY       0.0128
       YYY       0.0000    XXZ     -26.0589    XYZ       0.0000
       YYZ     -26.0589    XZZ       0.0144    YZZ       0.0000
       ZZZ     -68.2819
    Hexadecapole Moments (Debye-Ang^3)
      XXXX     -29.4157   XXXY       0.0000   XXYY      -9.8054
      XYYY       0.0000   YYYY     -29.4157   XXXZ       0.0009
      XXYZ       0.0000   XYYZ       0.0003   YYYZ       0.0000
      XXZZ     -62.0065   XYZZ       0.0000   YYZZ     -62.0065
      XZZZ       0.0149   YZZZ       0.0000   ZZZZ    -294.4202
 -----------------------------------------------------------------
 Calculating analytic gradient of the SCF energy
 Gradient of XC Energy
            1           2
    1  -0.0000671   0.0000671
    2   0.0000000  -0.0000000
    3  -0.1372467   0.1372467
 Gradient of SCF Energy
            1           2
    1   0.0000017  -0.0000017
    2   0.0000000  -0.0000000
    3  -0.0000232   0.0000232
 Max gradient component =       2.316E-05
 RMS gradient           =       1.341E-05
 Gradient time:  CPU 23.29 s  wall 23.37 s
 Writing REM_CC_EA            2
 ----------------------------------------------------
       Standard Nuclear Orientation (Angstroms)
    I     Atom         X            Y            Z
 ----------------------------------------------------
    1      Cl      0.000000     0.001000     0.014730
    2      Cl      0.000000     0.000000     2.027583
 ----------------------------------------------------
 Nuclear Repulsion Energy =    75.9778199724 hartrees
 There are       17 alpha and       17 beta electrons

                       Distance Matrix (Angstroms)
             Cl(  1)
   Cl(  2)  2.012853
 
 Requested basis set is G3large
 There are 38 shells and 132 basis functions
 A cutoff of  1.0D-11 yielded    677 shell pairs
 There are   8446 function pairs ( 12163 Cartesian)
Evaluating contribution to one-electron hamiltonian from nuclear
 Smallest overlap matrix eigenvalue = 1.74E-03
 Multipole matrices computed through 2nd order
 Guess MOs from SCF MO coefficient file
Reading MOs from coefficient file
Reading MOs from coefficient file
 An unrestricted hybrid HF-DFT SCF calculation will be
 performed using Pulay DIIS extrapolation
 Exchange:     0.2000 Hartree-Fock + 0.0800 Slater + 0.7200 Becke88
 Correlation:  0.8100 LYP + 0.1900 VWN1RPA
 Using SG-1 standard quadrature grid
 SCF converges when DIIS error is below 1.0E-08
 ---------------------------------------
  Cycle       Energy         DIIS Error
 ---------------------------------------
    1    -920.4267023155      1.58E-05
    2    -920.4267026460      1.45E-06
    3    -920.4267026514      2.81E-07
    4    -920.4267026507      1.62E-07
    5    -920.4267026515      2.09E-08
    6    -920.4267026512      5.57E-09 Convergence criterion met
 ---------------------------------------
 One-Electron    Energy = -1421.5885144621
 Total Coulomb   Energy =   481.6823915111
 Alpha Exchange  Energy =    -5.5036850714
 Beta  Exchange  Energy =    -5.5036850714
 DFT   Exchange  Energy =   -43.7060429662
 DFT Correlation Energy =    -1.7849865636
 Nuclear Repu.   Energy =    75.9778199724
 Nuclear Attr.   Energy = -2340.7305332699
 Kinetic         Energy =   919.1420188079
 <S^2> = 0.0000
 SCF time:  CPU 21.90 s  wall 22.05 s
 Final Alpha MO Eigenvalues
            1           2           3           4           5           6
    1-101.5788580-101.5788557  -9.5143118  -9.5142818  -7.2792716  -7.2791431
            7           8           9          10          11          12
    1  -7.2664158  -7.2664158  -7.2664138  -7.2664138  -0.9356758  -0.7761415
           13          14          15          16          17          18
    1  -0.4763612  -0.4122054  -0.4122054  -0.3130225  -0.3130225  -0.1337593
           19          20          21          22
    1   0.0213376   0.0527714   0.0640753   0.0640753
 Final Beta MO Eigenvalues
            1           2           3           4           5           6
    1-101.5788580-101.5788557  -9.5143118  -9.5142818  -7.2792716  -7.2791431
            7           8           9          10          11          12
    1  -7.2664158  -7.2664158  -7.2664138  -7.2664138  -0.9356758  -0.7761415
           13          14          15          16          17          18
    1  -0.4763612  -0.4122054  -0.4122054  -0.3130225  -0.3130225  -0.1337593
           19          20          21          22
    1   0.0213376   0.0527714   0.0640753   0.0640753
 Analysis of SCF Wavefunction
 
 --------------------------------------------------------------
                    Orbital Energies (a.u.)
 --------------------------------------------------------------
 
 Alpha MOs
 -- Occupied --
*******-101.579  -9.514  -9.514  -7.279  -7.279  -7.266  -7.266
 -7.266  -7.266  -0.936  -0.776  -0.476  -0.412  -0.412  -0.313
 -0.313
 -- Virtual --
 -0.134   0.021   0.053   0.064   0.064   0.075   0.099   0.099
  0.160   0.196   0.196   0.203   0.203   0.297   0.316   0.316
  0.389   0.429   0.429   0.462   0.462   0.498   0.562   0.562
  0.566   0.754   0.939   0.939   0.985   0.985   0.990   1.024
  1.024   1.041   1.041   1.063   1.063   1.080   1.107   1.107
  1.168   1.168   1.291   1.305   1.305   1.403   1.405   1.489
  1.686   1.686   1.783   2.085   2.085   2.113   2.229   2.229
  2.728   4.282   4.282   4.287   4.287   4.328   4.328   4.340
  4.379   4.380   4.425   4.425   4.433   4.433   4.514   4.951
  4.953   4.981   4.983   4.998   4.998   5.009   5.035   5.035
  5.495   9.445   9.733  20.516  20.516  20.595  20.595  20.640
 20.975  27.088  27.102  27.112  27.160  27.170  27.170  27.174
 27.195  27.195  27.333  36.849  36.856  36.856  36.860  36.860
 36.865  36.865  36.869  36.869  36.870  36.870  36.872  36.872
 36.890 215.913 216.323
 
 Beta MOs
 -- Occupied --
*******-101.579  -9.514  -9.514  -7.279  -7.279  -7.266  -7.266
 -7.266  -7.266  -0.936  -0.776  -0.476  -0.412  -0.412  -0.313
 -0.313
 -- Virtual --
 -0.134   0.021   0.053   0.064   0.064   0.075   0.099   0.099
  0.160   0.196   0.196   0.203   0.203   0.297   0.316   0.316
  0.389   0.429   0.429   0.462   0.462   0.498   0.562   0.562
  0.566   0.754   0.939   0.939   0.985   0.985   0.990   1.024
  1.024   1.041   1.041   1.063   1.063   1.080   1.107   1.107
  1.168   1.168   1.291   1.305   1.305   1.403   1.405   1.489
  1.686   1.686   1.783   2.085   2.085   2.113   2.229   2.229
  2.728   4.282   4.282   4.287   4.287   4.328   4.328   4.340
  4.379   4.380   4.425   4.425   4.433   4.433   4.514   4.951
  4.953   4.981   4.983   4.998   4.998   5.009   5.035   5.035
  5.495   9.445   9.733  20.516  20.516  20.595  20.595  20.640
 20.975  27.088  27.102  27.112  27.160  27.170  27.170  27.174
 27.195  27.195  27.333  36.849  36.856  36.856  36.860  36.860
 36.865  36.865  36.869  36.869  36.870  36.870  36.872  36.872
 36.890 215.913 216.323
 --------------------------------------------------------------
 
          Ground-State Mulliken Net Atomic Charges

     Atom                 Charge (a.u.)    Spin (a.u.)
  --------------------------------------------------------
      1 Cl                    0.000000       0.000000
      2 Cl                    0.000000       0.000000
  --------------------------------------------------------
  Sum of atomic charges =     0.000000
  Sum of spin   charges =     0.000000

 -----------------------------------------------------------------
                    Cartesian Multipole Moments
 -----------------------------------------------------------------
    Charge (ESU x 10^10)
                 0.0000
    Dipole Moment (Debye)
         X       0.0000      Y       0.0000      Z       0.0000
       Tot       0.0000
    Quadrupole Moments (Debye-Ang)
        XX     -25.5190     XY       0.0000     YY     -25.5190
        XZ       0.0000     YZ      -0.0016     ZZ     -22.2891
    Octapole Moments (Debye-Ang^2)
       XXX       0.0000    XXY      -0.0128    XYY       0.0000
       YYY      -0.0383    XXZ     -26.0589    XYZ       0.0000
       YYZ     -26.0589    XZZ       0.0000    YZZ      -0.0144
       ZZZ     -68.2819
    Hexadecapole Moments (Debye-Ang^3)
      XXXX     -29.4157   XXXY       0.0000   XXYY      -9.8054
      XYYY       0.0000   YYYY     -29.4157   XXXZ       0.0000
      XXYZ      -0.0003   XYYZ       0.0000   YYYZ      -0.0009
      XXZZ     -62.0065   XYZZ       0.0000   YYZZ     -62.0065
      XZZZ       0.0000   YZZZ      -0.0149   ZZZZ    -294.4202
 -----------------------------------------------------------------
 Calculating analytic gradient of the SCF energy
 Gradient of XC Energy
            1           2
    1   0.0000000  -0.0000000
    2   0.0000671  -0.0000671
    3  -0.1372467   0.1372467
 Gradient of SCF Energy
            1           2
    1   0.0000000  -0.0000000
    2  -0.0000017   0.0000017
    3  -0.0000232   0.0000232
 Max gradient component =       2.315E-05
 RMS gradient           =       1.340E-05
 Gradient time:  CPU 22.59 s  wall 22.98 s
 Writing REM_CC_EA            2
 ----------------------------------------------------
       Standard Nuclear Orientation (Angstroms)
    I     Atom         X            Y            Z
 ----------------------------------------------------
    1      Cl      0.000000    -0.001000     0.014730
    2      Cl      0.000000     0.000000     2.027583
 ----------------------------------------------------
 Nuclear Repulsion Energy =    75.9778199724 hartrees
 There are       17 alpha and       17 beta electrons

[...]
 ---------------------------------------
  Cycle       Energy         DIIS Error
 ---------------------------------------
    1    -920.4261060196      3.52E-05
    2    -920.4267022048      6.52E-06
    3    -920.4267021985      7.07E-06
    4    -920.4267022769      2.95E-07
    5    -920.4267022768      1.04E-07
    6    -920.4267022776      1.55E-08
    7    -920.4267022782      1.53E-09 Convergence criterion met
 ---------------------------------------
 One-Electron    Energy = -1421.5132527059
 Total Coulomb   Energy =   481.6444857149
 Alpha Exchange  Energy =    -5.5036455694
 Beta  Exchange  Energy =    -5.5036455694
 DFT   Exchange  Energy =   -43.7057862906
 DFT Correlation Energy =    -1.7849596150
 Nuclear Repu.   Energy =    75.9401017572
 Nuclear Attr.   Energy = -2340.6538875957
 Kinetic         Energy =   919.1406348898
 <S^2> = 0.0000
 SCF time:  CPU 23.41 s  wall 23.58 s
 Final Alpha MO Eigenvalues
            1           2           3           4           5           6
    1-101.5788970-101.5788946  -9.5143387  -9.5143084  -7.2793011  -7.2791735
            7           8           9          10          11          12
    1  -7.2664427  -7.2664427  -7.2664407  -7.2664407  -0.9354316  -0.7762470
           13          14          15          16          17          18
    1  -0.4762635  -0.4120937  -0.4120937  -0.3131052  -0.3131052  -0.1340584
           19          20          21          22
    1   0.0213430   0.0527402   0.0640899   0.0640899
 Final Beta MO Eigenvalues
            1           2           3           4           5           6
    1-101.5788970-101.5788946  -9.5143387  -9.5143084  -7.2793011  -7.2791735
            7           8           9          10          11          12
    1  -7.2664427  -7.2664427  -7.2664407  -7.2664407  -0.9354316  -0.7762470
           13          14          15          16          17          18
    1  -0.4762635  -0.4120937  -0.4120937  -0.3131052  -0.3131052  -0.1340584
           19          20          21          22
    1   0.0213430   0.0527402   0.0640899   0.0640899
 Analysis of SCF Wavefunction
 
 --------------------------------------------------------------
                    Orbital Energies (a.u.)
 --------------------------------------------------------------
 
 Alpha MOs
 -- Occupied --
*******-101.579  -9.514  -9.514  -7.279  -7.279  -7.266  -7.266
 -7.266  -7.266  -0.935  -0.776  -0.476  -0.412  -0.412  -0.313
 -0.313
 -- Virtual --
 -0.134   0.021   0.053   0.064   0.064   0.075   0.099   0.099
  0.160   0.196   0.196   0.203   0.203   0.297   0.316   0.316
  0.389   0.429   0.429   0.462   0.462   0.498   0.562   0.562
  0.566   0.754   0.940   0.940   0.985   0.985   0.990   1.024
  1.024   1.041   1.041   1.063   1.063   1.079   1.107   1.107
  1.168   1.168   1.290   1.305   1.305   1.403   1.404   1.489
  1.686   1.686   1.782   2.085   2.085   2.113   2.229   2.229
  2.728   4.282   4.282   4.287   4.287   4.328   4.328   4.340
  4.379   4.380   4.425   4.425   4.433   4.433   4.514   4.951
  4.953   4.981   4.983   4.998   4.998   5.010   5.034   5.034
  5.493   9.444   9.733  20.516  20.516  20.595  20.595  20.639
 20.975  27.088  27.102  27.112  27.160  27.170  27.170  27.174
 27.195  27.195  27.332  36.849  36.856  36.856  36.860  36.860
 36.865  36.865  36.869  36.869  36.870  36.870  36.872  36.872
 36.890 215.912 216.323
 
 Beta MOs
 -- Occupied --
*******-101.579  -9.514  -9.514  -7.279  -7.279  -7.266  -7.266
 -7.266  -7.266  -0.935  -0.776  -0.476  -0.412  -0.412  -0.313
 -0.313
 -- Virtual --
 -0.134   0.021   0.053   0.064   0.064   0.075   0.099   0.099
  0.160   0.196   0.196   0.203   0.203   0.297   0.316   0.316
  0.389   0.429   0.429   0.462   0.462   0.498   0.562   0.562
  0.566   0.754   0.940   0.940   0.985   0.985   0.990   1.024
  1.024   1.041   1.041   1.063   1.063   1.079   1.107   1.107
  1.168   1.168   1.290   1.305   1.305   1.403   1.404   1.489
  1.686   1.686   1.782   2.085   2.085   2.113   2.229   2.229
  2.728   4.282   4.282   4.287   4.287   4.328   4.328   4.340
  4.379   4.380   4.425   4.425   4.433   4.433   4.514   4.951
  4.953   4.981   4.983   4.998   4.998   5.010   5.034   5.034
  5.493   9.444   9.733  20.516  20.516  20.595  20.595  20.639
 20.975  27.088  27.102  27.112  27.160  27.170  27.170  27.174
 27.195  27.195  27.332  36.849  36.856  36.856  36.860  36.860
 36.865  36.865  36.869  36.869  36.870  36.870  36.872  36.872
 36.890 215.912 216.323
 --------------------------------------------------------------
 
          Ground-State Mulliken Net Atomic Charges

     Atom                 Charge (a.u.)    Spin (a.u.)
  --------------------------------------------------------
      1 Cl                    0.000000       0.000000
      2 Cl                    0.000000       0.000000
  --------------------------------------------------------
  Sum of atomic charges =     0.000000
  Sum of spin   charges =     0.000000

 -----------------------------------------------------------------
                    Cartesian Multipole Moments
 -----------------------------------------------------------------
    Charge (ESU x 10^10)
                 0.0000
    Dipole Moment (Debye)
         X       0.0000      Y       0.0000      Z       0.0000
       Tot       0.0000
    Quadrupole Moments (Debye-Ang)
        XX     -25.5205     XY       0.0000     YY     -25.5205
        XZ       0.0000     YZ       0.0000     ZZ     -22.2859
    Octapole Moments (Debye-Ang^2)
       XXX       0.0000    XXY       0.0000    XYY       0.0000
       YYY       0.0000    XXZ     -26.0731    XYZ       0.0000
       YYZ     -26.0731    XZZ       0.0000    YZZ       0.0000
       ZZZ     -68.3056
    Hexadecapole Moments (Debye-Ang^3)
      XXXX     -29.4191   XXXY       0.0000   XXYY      -9.8065
      XYYY       0.0000   YYYY     -29.4191   XXXZ       0.0000
      XXYZ       0.0000   XYYZ       0.0000   YYYZ       0.0000
      XXZZ     -62.0591   XYZZ       0.0000   YYZZ     -62.0591
      XZZZ       0.0000   YZZZ       0.0000   ZZZZ    -294.6584
 -----------------------------------------------------------------
 Calculating analytic gradient of the SCF energy
 Gradient of XC Energy
            1           2
    1  -0.0000000   0.0000000
    2  -0.0000000   0.0000000
    3  -0.1371886   0.1371886
 Gradient of SCF Energy
            1           2
    1  -0.0000000   0.0000000
    2  -0.0000000   0.0000000
    3  -0.0003709   0.0003709
 Max gradient component =       3.709E-04
 RMS gradient           =       2.141E-04
 Gradient time:  CPU 18.66 s  wall 18.70 s
 Writing REM_CC_EA            2
 ----------------------------------------------------
       Standard Nuclear Orientation (Angstroms)
    I     Atom         X            Y            Z
 ----------------------------------------------------
    1      Cl      0.000000     0.000000     0.014730
    2      Cl      0.000000     0.000000     2.026583
 ----------------------------------------------------
 Nuclear Repulsion Energy =    76.0155944455 hartrees
 There are       17 alpha and       17 beta electrons

                       Distance Matrix (Angstroms)
             Cl(  1)
   Cl(  2)  2.011853
 
 Requested basis set is G3large
 There are 38 shells and 132 basis functions
 A cutoff of  1.0D-11 yielded    677 shell pairs
 There are   8446 function pairs ( 12163 Cartesian)
Evaluating contribution to one-electron hamiltonian from nuclear
 Smallest overlap matrix eigenvalue = 1.73E-03
 Multipole matrices computed through 2nd order
 Guess MOs from SCF MO coefficient file
Reading MOs from coefficient file
Reading MOs from coefficient file
 An unrestricted hybrid HF-DFT SCF calculation will be
 performed using Pulay DIIS extrapolation
 Exchange:     0.2000 Hartree-Fock + 0.0800 Slater + 0.7200 Becke88
 Correlation:  0.8100 LYP + 0.1900 VWN1RPA
 Using SG-1 standard quadrature grid
 SCF converges when DIIS error is below 1.0E-08
 ---------------------------------------
  Cycle       Energy         DIIS Error
 ---------------------------------------
    1    -920.4278980917      6.69E-05
    2    -920.4267020859      1.29E-05
 Info = 9043

 Q-Chem warning in module diagon.C, line 98:

 Call to dsyevd failed in Diagonalize

 Info = 9043

 Q-Chem warning in module diagon.C, line 98:

 Call to dsyevd failed in Diagonalize

    3    -920.4267020553      1.40E-05
    4    -920.4267023630      5.81E-07
    5    -920.4267023634      8.63E-08
    6    -920.4267023634      2.22E-08
    7    -920.4267023628      2.58E-09 Convergence criterion met
 ---------------------------------------
 One-Electron    Energy = -1421.6638823284
 Total Coulomb   Energy =   481.7203485213
 Alpha Exchange  Energy =    -5.5037246373
 Beta  Exchange  Energy =    -5.5037246373
 DFT   Exchange  Energy =   -43.7063001766
 DFT Correlation Energy =    -1.7850135501
 Nuclear Repu.   Energy =    76.0155944455
 Nuclear Attr.   Energy = -2340.8072880322
 Kinetic         Energy =   919.1434057038
 <S^2> = 0.0000
 SCF time:  CPU 23.81 s  wall 24.04 s
 Final Alpha MO Eigenvalues
            1           2           3           4           5           6
    1-101.5788190-101.5788167  -9.5142849  -9.5142552  -7.2792422  -7.2791126
            7           8           9          10          11          12
    1  -7.2663889  -7.2663889  -7.2663868  -7.2663868  -0.9359206  -0.7760358
           13          14          15          16          17          18
    1  -0.4764590  -0.4123174  -0.4123174  -0.3129397  -0.3129397  -0.1334596
           19          20          21          22
    1   0.0213321   0.0528027   0.0640606   0.0640606
 Final Beta MO Eigenvalues
            1           2           3           4           5           6
    1-101.5788190-101.5788167  -9.5142849  -9.5142552  -7.2792422  -7.2791126
            7           8           9          10          11          12
    1  -7.2663889  -7.2663889  -7.2663868  -7.2663868  -0.9359206  -0.7760358
           13          14          15          16          17          18
    1  -0.4764590  -0.4123174  -0.4123174  -0.3129397  -0.3129397  -0.1334596
           19          20          21          22
    1   0.0213321   0.0528027   0.0640606   0.0640606
 Analysis of SCF Wavefunction
 
 --------------------------------------------------------------
                    Orbital Energies (a.u.)
 --------------------------------------------------------------
 
 Alpha MOs
 -- Occupied --
*******-101.579  -9.514  -9.514  -7.279  -7.279  -7.266  -7.266
 -7.266  -7.266  -0.936  -0.776  -0.476  -0.412  -0.412  -0.313
 -0.313
 -- Virtual --
 -0.133   0.021   0.053   0.064   0.064   0.075   0.099   0.099
  0.160   0.196   0.196   0.203   0.203   0.297   0.316   0.316
  0.389   0.429   0.429   0.462   0.462   0.498   0.562   0.562
  0.566   0.754   0.939   0.939   0.985   0.985   0.990   1.024
  1.024   1.041   1.041   1.063   1.063   1.080   1.107   1.107
  1.168   1.168   1.291   1.306   1.306   1.404   1.405   1.489
  1.686   1.686   1.783   2.085   2.085   2.114   2.229   2.229
  2.728   4.282   4.282   4.287   4.288   4.328   4.328   4.341
  4.379   4.380   4.426   4.426   4.433   4.433   4.514   4.951
  4.953   4.981   4.983   4.998   4.998   5.007   5.035   5.035
  5.497   9.446   9.733  20.517  20.517  20.595  20.595  20.641
 20.975  27.088  27.102  27.112  27.160  27.170  27.170  27.174
 27.195  27.195  27.334  36.849  36.856  36.856  36.860  36.860
 36.865  36.865  36.869  36.869  36.870  36.870  36.872  36.872
 36.890 215.914 216.322
 
 Beta MOs
 -- Occupied --
*******-101.579  -9.514  -9.514  -7.279  -7.279  -7.266  -7.266
 -7.266  -7.266  -0.936  -0.776  -0.476  -0.412  -0.412  -0.313
 -0.313
 -- Virtual --
 -0.133   0.021   0.053   0.064   0.064   0.075   0.099   0.099
  0.160   0.196   0.196   0.203   0.203   0.297   0.316   0.316
  0.389   0.429   0.429   0.462   0.462   0.498   0.562   0.562
  0.566   0.754   0.939   0.939   0.985   0.985   0.990   1.024
  1.024   1.041   1.041   1.063   1.063   1.080   1.107   1.107
  1.168   1.168   1.291   1.306   1.306   1.404   1.405   1.489
  1.686   1.686   1.783   2.085   2.085   2.114   2.229   2.229
  2.728   4.282   4.282   4.287   4.288   4.328   4.328   4.341
  4.379   4.380   4.426   4.426   4.433   4.433   4.514   4.951
  4.953   4.981   4.983   4.998   4.998   5.007   5.035   5.035
  5.497   9.446   9.733  20.517  20.517  20.595  20.595  20.641
 20.975  27.088  27.102  27.112  27.160  27.170  27.170  27.174
 27.195  27.195  27.334  36.849  36.856  36.856  36.860  36.860
 36.865  36.865  36.869  36.869  36.870  36.870  36.872  36.872
 36.890 215.914 216.322
 --------------------------------------------------------------
 
          Ground-State Mulliken Net Atomic Charges

     Atom                 Charge (a.u.)    Spin (a.u.)
  --------------------------------------------------------
      1 Cl                    0.000000       0.000000
      2 Cl                    0.000000       0.000000
  --------------------------------------------------------
  Sum of atomic charges =     0.000000
  Sum of spin   charges =     0.000000

 -----------------------------------------------------------------
                    Cartesian Multipole Moments
 -----------------------------------------------------------------
    Charge (ESU x 10^10)
                 0.0000
    Dipole Moment (Debye)
         X       0.0000      Y       0.0000      Z       0.0000
       Tot       0.0000
    Quadrupole Moments (Debye-Ang)
        XX     -25.5176     XY       0.0000     YY     -25.5176
        XZ       0.0000     YZ       0.0000     ZZ     -22.2922
    Octapole Moments (Debye-Ang^2)
       XXX       0.0000    XXY       0.0000    XYY       0.0000
       YYY       0.0000    XXZ     -26.0447    XYZ       0.0000
       YYZ     -26.0447    XZZ       0.0000    YZZ       0.0000
       ZZZ     -68.2581
    Hexadecapole Moments (Debye-Ang^3)
      XXXX     -29.4122   XXXY       0.0000   XXYY      -9.8042
      XYYY       0.0000   YYYY     -29.4122   XXXZ       0.0000
      XXYZ       0.0000   XYYZ       0.0000   YYYZ       0.0000
      XXZZ     -61.9539   XYZZ       0.0000   YYZZ     -61.9539
      XZZZ       0.0000   YZZZ       0.0000   ZZZZ    -294.1822
 -----------------------------------------------------------------
 Calculating analytic gradient of the SCF energy
 Gradient of XC Energy
            1           2
    1   0.0000000  -0.0000000
    2   0.0000000  -0.0000000
    3  -0.1373045   0.1373045
 Gradient of SCF Energy
            1           2
    1   0.0000000  -0.0000000
    2   0.0000000  -0.0000000
    3   0.0003265  -0.0003265
 Max gradient component =       3.265E-04
 RMS gradient           =       1.885E-04
 Gradient time:  CPU 17.74 s  wall 17.79 s
Dipole drv :
gprntSymmMtrx error report: 
 Final Hessian.
            1           2           3           4           5           6
    1  -0.0008879   0.0000004   0.0000000   0.0008886  -0.0000005   0.0000000
    2   0.0000004  -0.0008890   0.0000003  -0.0000004   0.0008890  -0.0000003
    3   0.0000000   0.0000003   0.1845008   0.0000007   0.0000003  -0.1845009
    4   0.0008886  -0.0000004   0.0000007  -0.0008893   0.0000005   0.0000000
    5  -0.0000005   0.0008890   0.0000003   0.0000005  -0.0008889  -0.0000003
    6   0.0000000  -0.0000003  -0.1845009   0.0000000  -0.0000003   0.1845010
 Writing REM_CC_EA            2
 ----------------------------------------------------
       Standard Nuclear Orientation (Angstroms)
    I     Atom         X            Y            Z
 ----------------------------------------------------
    1      Cl      0.000000     0.000000     0.014730
    2      Cl      0.000000     0.000000     2.027583
 ----------------------------------------------------
 Nuclear Repulsion Energy =    75.9778293487 hartrees
 There are       17 alpha and       17 beta electrons
 old dipole drv.
            1           2           3           4           5           6
    1   0.0000003   0.0000006   0.0000003   0.0000009  -0.0000011  -0.0000005
    2   0.0000001   0.0000002   0.0000007  -0.0000009   0.0000017  -0.0000004
    3  -0.0000261   0.0001764   0.0002249   0.0001910  -0.0001906  -0.0002172
 New transposed dipole drv.
            1           2           3
    1   0.0000003   0.0000001  -0.0000261
    2   0.0000006   0.0000002   0.0001764
    3   0.0000003   0.0000007   0.0002249
    4   0.0000009  -0.0000009   0.0001910
    5  -0.0000011   0.0000017  -0.0001906
    6  -0.0000005  -0.0000004  -0.0002172
FINAL TENSOR RESULT:
Order 2, Length 6
Order 1, Length 6
  -0.0008879   0.0000004   0.0000000   0.0008886  -0.0000005   0.0000000
Order 1, Length 6
   0.0000004  -0.0008890   0.0000003  -0.0000004   0.0008890  -0.0000003
Order 1, Length 6
   0.0000000   0.0000003   0.1845008   0.0000007   0.0000003  -0.1845009
Order 1, Length 6
   0.0008886  -0.0000004   0.0000007  -0.0008893   0.0000005   0.0000000
Order 1, Length 6
  -0.0000005   0.0008890   0.0000003   0.0000005  -0.0008889  -0.0000003
Order 1, Length 6
   0.0000000  -0.0000003  -0.1845009   0.0000000  -0.0000003   0.1845010


 # Finishing finite difference calculation for IDERIV #
 ######################################################
 ######################################################
 Requested basis set is G3large
 There are 38 shells and 132 basis functions
 **********************************************************************
 **                                                                  **
 **                       VIBRATIONAL ANALYSIS                       **
 **                       --------------------                       **
 **                                                                  **
 **        VIBRATIONAL FREQUENCIES (CM**-1) AND NORMAL MODES         **
 **     FORCE CONSTANTS (mDYN/ANGSTROM) AND REDUCED MASSES (AMU)     **
 **                  INFRARED INTENSITIES (KM/MOL)                   **
 **                                                                  **
 **********************************************************************
 

 Mode:                 1
 Frequency:       528.06
 Force Cnst:      5.7450
 Red. Mass:      34.9689
 IR Active:          YES
 IR Intens:        0.000
 Raman Active:       YES
               X      Y      Z
 Cl         0.000  0.000  0.707
 Cl         0.000  0.000 -0.707
 TransDip   0.000  0.000  0.000

 STANDARD THERMODYNAMIC QUANTITIES AT   298.18 K  AND     1.00 ATM

   This Molecule has  0 Imaginary Frequencies
   Zero point vibrational energy:        0.755 kcal/mol

   Atom    1 Element Cl Has Mass   34.96885
   Atom    2 Element Cl Has Mass   34.96885
   Molecular Mass:    69.937700 amu
   Principal axes and moments of inertia in atomic units:
                             1           2           3
    Eigenvalues --        0.00000   252.97248   252.97248
          X               0.00000     0.00000     1.00000
          Y               0.00000     1.00000     0.00000
          Z               1.00000     0.00000     0.00000
   Rotational Symmetry Number is   1
   The Molecule is a Symmetric Top
   Translational Enthalpy:        0.889 kcal/mol
   Rotational Enthalpy:           0.889 kcal/mol
   Vibrational Enthalpy:          0.883 kcal/mol
   gas constant (RT):             0.593 kcal/mol
   Translational Entropy:        38.653  cal/mol.K
   Rotational Entropy:          -42.776  cal/mol.K
   Vibrational Entropy:           0.592  cal/mol.K

   Total Enthalpy:                3.253 kcal/mol
   Total Entropy:                -3.532  cal/mol.K
 Total job time:  565.74s(wall), 561.46s(cpu) 
 Wed Jul 24 16:11:16 2013

        *************************************************************
        *                                                           *
        *  Thank you very much for using Q-Chem.  Have a nice day.  *
        *                                                           *
        *************************************************************


0 sent ACK to 0 
now end server 0 ... 
