Process 0 of 1 is on cl202.stfx.acenet.ca - thread support 1
initial socket setup ...start
initial socket setup ...done 
now start server 0 ... 

cmd = /usr/bin/ssh clhead /usr/local/qchem/bin/get_hostid 290575091 > /scratch/tmp/4825355.1.medium.q/qchem17421/lic.dat
                  Welcome to Q-Chem
     A Quantum Leap Into The Future Of Chemistry

 Y. Shao, L. Fusti-Molnar, Y. Jung, J. Kussmann, C. Ochsenfeld,
 S. T. Brown, A. T. B. Gilbert, L. V. Slipchenko,S. V. Levchenko,
 D. P. O'Neill, R. A. DiStasio Jr., R. C. Lochan, T. Wang,
 G. J. O. Beran, N. A. Besley, J. M. Herbert, C. Y. Lin,
 T. Van Voorhis, S. H. Chien, A. Sodt, R. P. Steele, 
 V. A. Rassolov, P. E. Maslen, P. P. Korambath, R. D. Adamson,
 B. Austin, J. Baker, E. F. C. Byrd, H. Dachsel, R. J. Doerksen,
 A. Dreuw, B. D. Dunietz, A. D. Dutoi, T. R. Furlani,
 S. R. Gwaltney, A. Heyden, S. Hirata, C.-P. Hsu, G. Kedziora,
 R. Z. Khaliullin, P. Klunzinger, A. M. Lee, M. S. Lee, W. Liang,
 I. Lotan, N. Nair, B. Peters, E. I. Proynov, P. A. Pieniazek, 
 Y. M. Rhee, J. Ritchie, E. Rosta, C. D. Sherrill, 
 A. C. Simmonett, J. E. Subotnik, H. L. Woodcock III,
 W. Zhang, A. T. Bell, A. K. Chakraborty, D. M. Chipman,
 F. J. Keil, A. Warshel, W. J. Hehre, H. F. Schaefer III,
 J. Kong, A. I. Krylov, P. M. W. Gill, M. Head-Gordon,
 Q-Chem, Version 3.1, Q-Chem, Inc., Pittsburgh, PA (2007).

 Additional authors for Version 3.1: 
 Z. Gan, Y. Zhao, N. E. Schultz, D. Truhlar, E. Epifanovsky and M. Oana.

 Additional authors for Version 3.2: 
 R. Baer, B. R. Brooks, D. Casanova, J.-D. Chai, C.-L. Cheng, 
 C. Cramer, D. Crittenden, A. Ghysels, G. Hawkins, E. G. Hohenstein, 
 C. Kelley, W. Kurlancheek, D. Liotard, E. Livshits, P. Manohar, 
 A. Marenich, D. Neuhauser, R. Olson, M. A. Rohrdanz, K. S. Thanthiriwatte, 
 A. J. W. Thom, V. Vanovschi, C. F. Williams, Q. Wu and Z.-Q. You. 


 Intel X86 Linux Version

 Q-chem begins on Mon Nov 14 15:14:42 2011  

 Parallel job on  1  processors
Processing $rem in /usr/local/qchem/config/preferences.

theFileMan(): MAXOPENFILES=974 MAX_SUB_FILE_NUM=16
Maximum size of a physical file is 2.0 GB, maximum size of a tmp-file is 32.0 GB


--------------------------------------------------------------
User input:
--------------------------------------------------------------

$molecule
-1,1
C
S,1,R
H,1,ch1,2,hcs
X,1,1.,2,alpha,3,180.,0
H,1,ch,4,hch2,3,90.,0
H,1,ch,4,hch2,3,-90.,0

R=1.81256567
ch=1.09351119
hcs=106.82996657
ch1=1.09887196
hch2=55.32746965
alpha=130.50070297

$end

$comment
negative
$end

$xc_functional
   X HF 1.0
   X BNL 1.0
   C LYP 1.0
$end

$rem
SYMMETRY_DECOMPOSITION	0
exchange 		general
BASIS                   g3large
omega			2000
separate_jk		true
mem_static              760
max_scf_cycles          200
scf_final_print         1
sym_ignore              true
$end

--------------------------------------------------------------
 Writing REM_CC_EA            5
 ----------------------------------------------------
       Standard Nuclear Orientation (Angstroms)
    I     Atom         X            Y            Z
 ----------------------------------------------------
    1      C       0.000000     0.000000     0.000000
    2      S       0.000000     0.000000     1.812566
    3      H       1.051805     0.000000    -0.318159
    4      H      -0.473030     0.899322    -0.404016
    5      H      -0.473030    -0.899322    -0.404016
 ----------------------------------------------------
 Nuclear Repulsion Energy =    48.1227557371 hartrees
 There are       13 alpha and       13 beta electrons
 Requested basis set is G3large
 There are 47 shells and 138 basis functions

Total QAlloc Memory Limit   2000 MB
Mega-Array Size       743 MB
MEM_STATIC part       760 MB

                       Distance Matrix (Angstroms)
             C (  1)   S (  2)   H (  3)   H (  4)
   S (  2)  1.812566
   H (  3)  1.098872  2.376191
   H (  4)  1.093511  2.438395  1.772364
   H (  5)  1.093511  2.438395  1.772364  1.798644
 
 A cutoff of  1.0D-08 yielded   1081 shell pairs
 There are   9436 function pairs ( 12275 Cartesian)
Evaluating contribution to one-electron hamiltonian from nuclear
 Smallest overlap matrix eigenvalue = 4.38E-04
 Multipole matrices computed through 2nd order

  Scale SEOQF with 1.000000e-01/1.000000e-01/1.000000e-01

 Standard Electronic Orientation quadrupole field applied
 Nucleus-field energy     =    -0.0000000055 hartrees
 Guess from superposition of atomic densities
 Warning:  Energy on first SCF cycle will be non-variational
 A restricted hybrid HF-DFT SCF calculation will be
 performed using Pulay DIIS extrapolation
 Exchange:     1.0000 Hartree-Fock + 1.0000 BNL
 Correlation:  1.0000 LYP
 Using SG-1 standard quadrature grid
 SCF converges when DIIS error is below 1.0E-05
 Warning!  Inaccurate integrated density:
   Number of electrons =    26
   Numerical integral  =    25.000026025866
   Relative error      =    -3.8460537467 %
 ---------------------------------------
  Cycle       Energy         DIIS Error
 ---------------------------------------
    1    -437.0407118946      3.17E-02
    2    -436.8708362209      4.14E-03
    3    -436.9273596688      2.11E-03
    4    -436.9363662607      4.12E-04
    5    -436.9371586253      1.24E-04
    6    -436.9372721253      3.13E-05
    7    -436.9372814129      1.35E-05
    8    -436.9372822637      3.94E-06 Convergence criterion met
 ---------------------------------------
 One-Electron    Energy =  -705.1167895188
 Total Coulomb   Energy =   251.2515565362
 Alpha Exchange  Energy =    -7.8326132985
 Beta  Exchange  Energy =    -7.8326132985
 DFT   Exchange  Energy =   -14.5728960498
 DFT Correlation Energy =    -0.9566823658
 Nuclear Repu.   Energy =    48.1227557316
 Nuclear Attr.   Energy = -1140.5385735776
 Kinetic         Energy =   435.4217840588
 SCF time:  CPU 37.24 s  wall 48.05 s
 Final Alpha MO Eigenvalues
            1           2           3           4           5           6
    1 -88.4934361 -10.5540553  -8.2918305  -6.1705798  -6.1643442  -6.1643027
            7           8           9          10          11          12
    1  -0.8027265  -0.5924706  -0.4055198  -0.3976344  -0.2584227  -0.1078372
           13          14          15          16          17          18
    1  -0.1061676   0.1588144   0.1853935   0.1881108   0.2291779   0.2662273
 Analysis of SCF Wavefunction
 
 --------------------------------------------------------------
                    Orbital Energies (a.u.)
 --------------------------------------------------------------
 
 Alpha MOs
 -- Occupied --
-88.493 -10.554  -8.292  -6.171  -6.164  -6.164  -0.803  -0.592
 -0.406  -0.398  -0.258  -0.108  -0.106
 -- Virtual --
  0.159   0.185   0.188   0.229   0.266   0.276   0.276   0.297
  0.304   0.321   0.341   0.426   0.427   0.461   0.516   0.610
  0.614   0.644   0.644   0.663   0.698   0.723   0.740   0.764
  0.766   0.887   0.889   0.943   0.969   1.069   1.076   1.090
  1.186   1.275   1.288   1.291   1.345   1.349   1.350   1.361
  1.463   1.477   1.483   1.536   1.536   1.545   1.647   1.652
  1.689   1.700   1.729   1.809   1.824   1.843   1.875   1.883
  2.001   2.377   2.386   2.567   2.925   2.927   3.021   3.416
  3.446   3.505   3.510   3.672   3.692   3.703   3.751   3.773
  4.020   4.044   4.096   4.119   4.129   4.145   4.152   4.219
  4.224   4.348   4.401   4.412   4.533   4.669   4.672   4.844
  4.855   4.858   4.935   5.249   5.249   5.430   5.446   5.556
  5.957   6.162   6.175   9.071  17.985  17.987  18.233  24.397
 24.484  24.534  24.535  24.578  25.040  28.707  28.901  28.925
 31.920  31.920  31.923  31.923  31.928  31.929  31.945  41.794
 41.819  42.005  42.032  42.082 190.565
 --------------------------------------------------------------
 
          Ground-State Mulliken Net Atomic Charges

     Atom                 Charge (a.u.)
  ----------------------------------------
      1 C                    -0.030436
      2 S                    -1.075438
      3 H                     0.042631
      4 H                     0.031651
      5 H                     0.031591
  ----------------------------------------
  Sum of atomic charges =    -1.000000

 -----------------------------------------------------------------
                    Cartesian Multipole Moments
 -----------------------------------------------------------------
    Charge (ESU x 10^10)
                -4.8032
    Dipole Moment (Debye)
         X       0.0380      Y       0.0003      Z      -8.8775
       Tot       8.8776
    Quadrupole Moments (Debye-Ang)
        XX     -27.0585     XY      -0.0009     YY     -26.9446
        XZ       0.1493     YZ       0.0007     ZZ     -42.7009
    Octapole Moments (Debye-Ang^2)
       XXX       0.5093    XXY       0.0007    XYY      -0.6946
       YYY       0.0020    XXZ     -35.3881    XYZ      -0.0021
       YYZ     -35.4511    XZZ       0.1056    YZZ      -0.0001
       ZZZ    -118.1276
    Hexadecapole Moments (Debye-Ang^3)
      XXXX     -56.2620   XXXY      -0.0040   XXYY     -18.8601
      XYYY      -0.0039   YYYY     -56.2853   XXXZ       0.3370
      XXYZ       0.0015   XYYZ      -0.0370   YYYZ       0.0047
      XXZZ     -85.0427   XYZZ      -0.0054   YYZZ     -84.7448
      XZZZ       0.8131   YZZZ      -0.0011   ZZZZ    -422.7517
 -----------------------------------------------------------------
 Total job time:  49.27s(wall), 37.39s(cpu) 
 Mon Nov 14 15:15:31 2011

        *************************************************************
        *                                                           *
        *  Thank you very much for using Q-Chem.  Have a nice day.  *
        *                                                           *
        *************************************************************


0 sent ACK to 0 
now end server 0 ... 
 
**********************************************************************
Job 2 of 3 
**********************************************************************
 
Process 0 of 1 is on cl202.stfx.acenet.ca - thread support 1
initial socket setup ...start
initial socket setup ...done 
now start server 0 ... 

cmd = /usr/bin/ssh clhead /usr/local/qchem/bin/get_hostid 583912608 > /scratch/tmp/4825355.1.medium.q/qchem17421/lic.dat
                  Welcome to Q-Chem
     A Quantum Leap Into The Future Of Chemistry

 Y. Shao, L. Fusti-Molnar, Y. Jung, J. Kussmann, C. Ochsenfeld,
 S. T. Brown, A. T. B. Gilbert, L. V. Slipchenko,S. V. Levchenko,
 D. P. O'Neill, R. A. DiStasio Jr., R. C. Lochan, T. Wang,
 G. J. O. Beran, N. A. Besley, J. M. Herbert, C. Y. Lin,
 T. Van Voorhis, S. H. Chien, A. Sodt, R. P. Steele, 
 V. A. Rassolov, P. E. Maslen, P. P. Korambath, R. D. Adamson,
 B. Austin, J. Baker, E. F. C. Byrd, H. Dachsel, R. J. Doerksen,
 A. Dreuw, B. D. Dunietz, A. D. Dutoi, T. R. Furlani,
 S. R. Gwaltney, A. Heyden, S. Hirata, C.-P. Hsu, G. Kedziora,
 R. Z. Khaliullin, P. Klunzinger, A. M. Lee, M. S. Lee, W. Liang,
 I. Lotan, N. Nair, B. Peters, E. I. Proynov, P. A. Pieniazek, 
 Y. M. Rhee, J. Ritchie, E. Rosta, C. D. Sherrill, 
 A. C. Simmonett, J. E. Subotnik, H. L. Woodcock III,
 W. Zhang, A. T. Bell, A. K. Chakraborty, D. M. Chipman,
 F. J. Keil, A. Warshel, W. J. Hehre, H. F. Schaefer III,
 J. Kong, A. I. Krylov, P. M. W. Gill, M. Head-Gordon,
 Q-Chem, Version 3.1, Q-Chem, Inc., Pittsburgh, PA (2007).

 Additional authors for Version 3.1: 
 Z. Gan, Y. Zhao, N. E. Schultz, D. Truhlar, E. Epifanovsky and M. Oana.

 Additional authors for Version 3.2: 
 R. Baer, B. R. Brooks, D. Casanova, J.-D. Chai, C.-L. Cheng, 
 C. Cramer, D. Crittenden, A. Ghysels, G. Hawkins, E. G. Hohenstein, 
 C. Kelley, W. Kurlancheek, D. Liotard, E. Livshits, P. Manohar, 
 A. Marenich, D. Neuhauser, R. Olson, M. A. Rohrdanz, K. S. Thanthiriwatte, 
 A. J. W. Thom, V. Vanovschi, C. F. Williams, Q. Wu and Z.-Q. You. 


 Intel X86 Linux Version

 Q-chem begins on Mon Nov 14 15:15:34 2011  

 Parallel job on  1  processors
Processing $rem in /usr/local/qchem/config/preferences.

theFileMan(): MAXOPENFILES=974 MAX_SUB_FILE_NUM=16
Maximum size of a physical file is 2.0 GB, maximum size of a tmp-file is 32.0 GB


--------------------------------------------------------------
User input:
--------------------------------------------------------------

$molecule
0,2
C
S,1,R
H,1,ch1,2,hcs
X,1,1.,2,alpha,3,180.,0
H,1,ch,4,hch2,3,90.,0
H,1,ch,4,hch2,3,-90.,0

R=1.81256567
ch=1.09351119
hcs=106.82996657
ch1=1.09887196
hch2=55.32746965
alpha=130.50070297

$end

$comment
neutral
$end

$xc_functional
   X HF 1.0
   X BNL 1.0
   C LYP 1.0
$end

$rem
SYMMETRY_DECOMPOSITION	0
exchange 		general
BASIS                   g3large
omega			2000
separate_jk		true
mem_static              760
max_scf_cycles          200
scf_final_print         1
sym_ignore              true
$end

--------------------------------------------------------------
 Writing REM_CC_EA            5
 ----------------------------------------------------
       Standard Nuclear Orientation (Angstroms)
    I     Atom         X            Y            Z
 ----------------------------------------------------
    1      C       0.000000     0.000000     0.000000
    2      S       0.000000     0.000000     1.812566
    3      H       1.051805     0.000000    -0.318159
    4      H      -0.473030     0.899322    -0.404016
    5      H      -0.473030    -0.899322    -0.404016
 ----------------------------------------------------
 Nuclear Repulsion Energy =    48.1227557371 hartrees
 There are       13 alpha and       12 beta electrons
 Requested basis set is G3large
 There are 47 shells and 138 basis functions

Total QAlloc Memory Limit   2000 MB
Mega-Array Size       743 MB
MEM_STATIC part       760 MB

                       Distance Matrix (Angstroms)
             C (  1)   S (  2)   H (  3)   H (  4)
   S (  2)  1.812566
   H (  3)  1.098872  2.376191
   H (  4)  1.093511  2.438395  1.772364
   H (  5)  1.093511  2.438395  1.772364  1.798644
 
 A cutoff of  1.0D-08 yielded   1081 shell pairs
 There are   9436 function pairs ( 12275 Cartesian)
Evaluating contribution to one-electron hamiltonian from nuclear
 Smallest overlap matrix eigenvalue = 4.38E-04
 Multipole matrices computed through 2nd order

  Scale SEOQF with 1.000000e-01/1.000000e-01/1.000000e-01

 Standard Electronic Orientation quadrupole field applied
 Nucleus-field energy     =    -0.0000000055 hartrees
 Guess from superposition of atomic densities
 Warning:  Energy on first SCF cycle will be non-variational
 An unrestricted hybrid HF-DFT SCF calculation will be
 performed using Pulay DIIS extrapolation
 Exchange:     1.0000 Hartree-Fock + 1.0000 BNL
 Correlation:  1.0000 LYP
 Using SG-1 standard quadrature grid
 SCF converges when DIIS error is below 1.0E-05
 ---------------------------------------
  Cycle       Energy         DIIS Error
 ---------------------------------------
    1    -437.0407118946      3.17E-02
    2    -436.8500543670      2.49E-03
    3    -436.8771760349      7.80E-04
    4    -436.8803642994      3.29E-04
    5    -436.8809245288      7.65E-05
    6    -436.8810006156      2.39E-05
    7    -436.8810131886      1.03E-05
    8    -436.8810179069      8.29E-06 Convergence criterion met
 ---------------------------------------
 One-Electron    Energy =  -698.1926441896
 Total Coulomb   Energy =   244.1542044247
 Alpha Exchange  Energy =    -7.9329022153
 Beta  Exchange  Energy =    -7.5393225742
 DFT   Exchange  Energy =   -14.5693967186
 DFT Correlation Energy =    -0.9237123656
 Nuclear Repu.   Energy =    48.1227557316
 Nuclear Attr.   Energy = -1133.4984003624
 Kinetic         Energy =   435.3057561728
 <S^2> = 0.7602
 SCF time:  CPU 44.51 s  wall 63.99 s
 Final Alpha MO Eigenvalues
            1           2           3           4           5           6
    1 -88.8132457 -10.7775105  -8.6109272  -6.4975754  -6.4852453  -6.4788244
            7           8           9          10          11          12
    1  -1.0648515  -0.8801699  -0.6359658  -0.6238786  -0.5280179  -0.4524717
           13          14          15          16          17          18
    1  -0.3977297   0.0329887   0.0640294   0.0662008   0.0753569   0.1186148
 Final Beta MO Eigenvalues
            1           2           3           4           5           6
    1 -88.8073114 -10.7779884  -8.6051522  -6.4816890  -6.4742496  -6.4739581
            7           8           9          10          11          12
    1  -1.0359273  -0.8219839  -0.6236448  -0.6118664  -0.5150166  -0.3818867
           13          14          15          16          17
    1  -0.0218637   0.0327804   0.0647625   0.0662936   0.0768317
 Analysis of SCF Wavefunction
 
 --------------------------------------------------------------
                    Orbital Energies (a.u.)
 --------------------------------------------------------------
 
 Alpha MOs
 -- Occupied --
-88.813 -10.778  -8.611  -6.498  -6.485  -6.479  -1.065  -0.880
 -0.636  -0.624  -0.528  -0.452  -0.398
 -- Virtual --
  0.033   0.064   0.066   0.075   0.119   0.121   0.125   0.142
  0.148   0.158   0.183   0.230   0.249   0.252   0.345   0.352
  0.359   0.389   0.404   0.451   0.477   0.505   0.523   0.533
  0.551   0.686   0.691   0.726   0.771   0.840   0.847   0.862
  0.968   1.022   1.024   1.037   1.083   1.087   1.091   1.104
  1.208   1.222   1.225   1.258   1.266   1.330   1.398   1.409
  1.448   1.463   1.468   1.576   1.589   1.609   1.652   1.662
  1.789   2.065   2.102   2.294   2.702   2.707   2.802   3.196
  3.204   3.266   3.275   3.447   3.454   3.471   3.516   3.541
  3.785   3.793   3.798   3.820   3.835   3.843   3.867   3.927
  3.952   4.108   4.173   4.180   4.275   4.444   4.447   4.618
  4.628   4.633   4.713   4.929   4.929   5.124   5.153   5.330
  5.668   5.942   5.955   8.757  17.653  17.674  17.921  24.073
 24.160  24.210  24.224  24.266  24.815  28.481  28.679  28.702
 31.598  31.600  31.604  31.605  31.608  31.620  31.633  41.570
 41.597  41.781  41.808  41.859 190.246
 
 Beta MOs
 -- Occupied --
-88.807 -10.778  -8.605  -6.482  -6.474  -6.474  -1.036  -0.822
 -0.624  -0.612  -0.515  -0.382
 -- Virtual --
 -0.022   0.033   0.065   0.066   0.077   0.118   0.125   0.132
  0.143   0.149   0.160   0.182   0.240   0.252   0.254   0.349
  0.375   0.385   0.414   0.421   0.452   0.480   0.525   0.532
  0.546   0.557   0.687   0.691   0.730   0.772   0.844   0.849
  0.865   0.971   1.030   1.032   1.041   1.093   1.098   1.101
  1.113   1.212   1.253   1.253   1.261   1.272   1.331   1.403
  1.410   1.452   1.467   1.472   1.580   1.592   1.610   1.654
  1.663   1.790   2.097   2.107   2.297   2.705   2.708   2.804
  3.197   3.205   3.268   3.275   3.448   3.456   3.472   3.518
  3.542   3.791   3.808   3.814   3.823   3.847   3.856   3.868
  3.938   3.953   4.110   4.173   4.181   4.277   4.446   4.449
  4.620   4.630   4.634   4.715   4.935   4.937   5.130   5.155
  5.332   5.672   5.943   5.956   8.765  17.673  17.680  17.924
 24.084  24.171  24.221  24.227  24.271  24.815  28.481  28.678
 28.702  31.602  31.604  31.608  31.609  31.612  31.622  31.635
 41.569  41.597  41.781  41.807  41.859 190.251
 --------------------------------------------------------------
 
          Ground-State Mulliken Net Atomic Charges

     Atom                 Charge (a.u.)    Spin (a.u.)
  --------------------------------------------------------
      1 C                    -0.035225      -0.047809
      2 S                    -0.210327       0.994427
      3 H                     0.084165       0.019462
      4 H                     0.079872       0.006506
      5 H                     0.081514       0.027413
  --------------------------------------------------------
  Sum of atomic charges =     0.000000
  Sum of spin   charges =     1.000000

 -----------------------------------------------------------------
                    Cartesian Multipole Moments
 -----------------------------------------------------------------
    Charge (ESU x 10^10)
                 0.0000
    Dipole Moment (Debye)
         X       0.0389      Y      -0.0316      Z      -1.7428
       Tot       1.7435
    Quadrupole Moments (Debye-Ang)
        XX     -20.3352     XY       1.3291     YY     -20.3824
        XZ       0.0655     YZ       0.0682     ZZ     -23.3284
    Octapole Moments (Debye-Ang^2)
       XXX       0.6969    XXY      -0.0047    XYY      -0.8772
       YYY      -0.0030    XXZ     -24.4311    XYZ       2.4513
       YYZ     -24.8916    XZZ      -0.1015    YZZ      -0.0669
       ZZZ     -72.4278
    Hexadecapole Moments (Debye-Ang^3)
      XXXX     -31.5741   XXXY       1.7220   XXYY     -10.7407
      XYYY       1.7478   YYYY     -32.1099   XXXZ      -0.3806
      XXYZ       0.0464   XYYZ       0.3571   YYYZ       0.1496
      XXZZ     -55.8131   XYZZ       5.2867   YYZZ     -56.3196
      XZZZ       0.1364   YZZZ      -0.1160   ZZZZ    -286.7534
 -----------------------------------------------------------------
 Total job time:  64.17s(wall), 44.66s(cpu) 
 Mon Nov 14 15:16:38 2011

        *************************************************************
        *                                                           *
        *  Thank you very much for using Q-Chem.  Have a nice day.  *
        *                                                           *
        *************************************************************


0 sent ACK to 0 
now end server 0 ... 
 
**********************************************************************
Job 3 of 3 
**********************************************************************
 
Process 0 of 1 is on cl202.stfx.acenet.ca - thread support 1
initial socket setup ...start
initial socket setup ...done 
now start server 0 ... 

cmd = /usr/bin/ssh clhead /usr/local/qchem/bin/get_hostid 1362493256 > /scratch/tmp/4825355.1.medium.q/qchem17421/lic.dat
                  Welcome to Q-Chem
     A Quantum Leap Into The Future Of Chemistry

 Y. Shao, L. Fusti-Molnar, Y. Jung, J. Kussmann, C. Ochsenfeld,
 S. T. Brown, A. T. B. Gilbert, L. V. Slipchenko,S. V. Levchenko,
 D. P. O'Neill, R. A. DiStasio Jr., R. C. Lochan, T. Wang,
 G. J. O. Beran, N. A. Besley, J. M. Herbert, C. Y. Lin,
 T. Van Voorhis, S. H. Chien, A. Sodt, R. P. Steele, 
 V. A. Rassolov, P. E. Maslen, P. P. Korambath, R. D. Adamson,
 B. Austin, J. Baker, E. F. C. Byrd, H. Dachsel, R. J. Doerksen,
 A. Dreuw, B. D. Dunietz, A. D. Dutoi, T. R. Furlani,
 S. R. Gwaltney, A. Heyden, S. Hirata, C.-P. Hsu, G. Kedziora,
 R. Z. Khaliullin, P. Klunzinger, A. M. Lee, M. S. Lee, W. Liang,
 I. Lotan, N. Nair, B. Peters, E. I. Proynov, P. A. Pieniazek, 
 Y. M. Rhee, J. Ritchie, E. Rosta, C. D. Sherrill, 
 A. C. Simmonett, J. E. Subotnik, H. L. Woodcock III,
 W. Zhang, A. T. Bell, A. K. Chakraborty, D. M. Chipman,
 F. J. Keil, A. Warshel, W. J. Hehre, H. F. Schaefer III,
 J. Kong, A. I. Krylov, P. M. W. Gill, M. Head-Gordon,
 Q-Chem, Version 3.1, Q-Chem, Inc., Pittsburgh, PA (2007).

 Additional authors for Version 3.1: 
 Z. Gan, Y. Zhao, N. E. Schultz, D. Truhlar, E. Epifanovsky and M. Oana.

 Additional authors for Version 3.2: 
 R. Baer, B. R. Brooks, D. Casanova, J.-D. Chai, C.-L. Cheng, 
 C. Cramer, D. Crittenden, A. Ghysels, G. Hawkins, E. G. Hohenstein, 
 C. Kelley, W. Kurlancheek, D. Liotard, E. Livshits, P. Manohar, 
 A. Marenich, D. Neuhauser, R. Olson, M. A. Rohrdanz, K. S. Thanthiriwatte, 
 A. J. W. Thom, V. Vanovschi, C. F. Williams, Q. Wu and Z.-Q. You. 


 Intel X86 Linux Version

 Q-chem begins on Mon Nov 14 15:16:42 2011  

 Parallel job on  1  processors
Processing $rem in /usr/local/qchem/config/preferences.

theFileMan(): MAXOPENFILES=974 MAX_SUB_FILE_NUM=16
Maximum size of a physical file is 2.0 GB, maximum size of a tmp-file is 32.0 GB


--------------------------------------------------------------
User input:
--------------------------------------------------------------

$molecule
1,3
C
S,1,R
H,1,ch1,2,hcs
X,1,1.,2,alpha,3,180.,0
H,1,ch,4,hch2,3,90.,0
H,1,ch,4,hch2,3,-90.,0

R=1.81256567
ch=1.09351119
hcs=106.82996657
ch1=1.09887196
hch2=55.32746965
alpha=130.50070297

$end

$comment
positive
$end

$xc_functional
   X HF 1.0
   X BNL 1.0
   C LYP 1.0
$end

$rem
SYMMETRY_DECOMPOSITION	0
exchange 		general
BASIS                   g3large
omega			2000
separate_jk		true
mem_static              760
max_scf_cycles          200
scf_final_print         1
sym_ignore              true
$end

--------------------------------------------------------------
 Writing REM_CC_EA            5
 ----------------------------------------------------
       Standard Nuclear Orientation (Angstroms)
    I     Atom         X            Y            Z
 ----------------------------------------------------
    1      C       0.000000     0.000000     0.000000
    2      S       0.000000     0.000000     1.812566
    3      H       1.051805     0.000000    -0.318159
    4      H      -0.473030     0.899322    -0.404016
    5      H      -0.473030    -0.899322    -0.404016
 ----------------------------------------------------
 Nuclear Repulsion Energy =    48.1227557371 hartrees
 There are       13 alpha and       11 beta electrons
 Requested basis set is G3large
 There are 47 shells and 138 basis functions

Total QAlloc Memory Limit   2000 MB
Mega-Array Size       743 MB
MEM_STATIC part       760 MB

                       Distance Matrix (Angstroms)
             C (  1)   S (  2)   H (  3)   H (  4)
   S (  2)  1.812566
   H (  3)  1.098872  2.376191
   H (  4)  1.093511  2.438395  1.772364
   H (  5)  1.093511  2.438395  1.772364  1.798644
 
 A cutoff of  1.0D-08 yielded   1081 shell pairs
 There are   9436 function pairs ( 12275 Cartesian)
Evaluating contribution to one-electron hamiltonian from nuclear
 Smallest overlap matrix eigenvalue = 4.38E-04
 Multipole matrices computed through 2nd order

  Scale SEOQF with 1.000000e-01/1.000000e-01/1.000000e-01

 Standard Electronic Orientation quadrupole field applied
 Nucleus-field energy     =    -0.0000000055 hartrees
 Guess from superposition of atomic densities
 Warning:  Energy on first SCF cycle will be non-variational
 An unrestricted hybrid HF-DFT SCF calculation will be
 performed using Pulay DIIS extrapolation
 Exchange:     1.0000 Hartree-Fock + 1.0000 BNL
 Correlation:  1.0000 LYP
 Using SG-1 standard quadrature grid
 SCF converges when DIIS error is below 1.0E-05
 Warning!  Inaccurate integrated density:
   Number of electrons =    24
   Numerical integral  =    25.000026025866
   Relative error      =     4.1667751078 %
 ---------------------------------------
  Cycle       Energy         DIIS Error
 ---------------------------------------
    1    -437.0407118946      3.17E-02
    2    -436.4312443697      3.68E-03
    3    -436.5151389416      1.78E-03
    4    -436.5316782293      6.33E-04
    5    -436.5391105744      2.85E-04
    6    -436.5409619089      1.07E-04
    7    -436.5412050434      3.37E-05
    8    -436.5412401377      7.41E-06 Convergence criterion met
 ---------------------------------------
 One-Electron    Energy =  -690.2675810087
 Total Coulomb   Energy =   236.2716835680
 Alpha Exchange  Energy =    -8.0209106746
 Beta  Exchange  Energy =    -7.2028912162
 DFT   Exchange  Energy =   -14.5587313593
 DFT Correlation Energy =    -0.8855651785
 Nuclear Repu.   Energy =    48.1227557316
 Nuclear Attr.   Energy = -1125.2303091924
 Kinetic         Energy =   434.9627281838
 <S^2> = 2.0154
 SCF time:  CPU 46.02 s  wall 49.55 s
 Final Alpha MO Eigenvalues
            1           2           3           4           5           6
    1 -89.1958515 -11.0283677  -8.9882187  -6.8717614  -6.8716813  -6.8571179
            7           8           9          10          11          12
    1  -1.3881243  -1.1746710  -0.8970624  -0.8937044  -0.8286718  -0.7700607
           13          14          15          16          17          18
    1  -0.7658390  -0.1288445  -0.1101786  -0.0761567  -0.0759769  -0.0507299
 Final Beta MO Eigenvalues
            1           2           3           4           5           6
    1 -89.1826720 -11.0290014  -8.9754918  -6.8491223  -6.8408421  -6.8408074
            7           8           9          10          11          12
    1  -1.3004256  -1.0765343  -0.8559719  -0.8487048  -0.8035484  -0.3087470
           13          14          15          16
    1  -0.3073416  -0.1239573  -0.1005771  -0.0745881
 Analysis of SCF Wavefunction
 
 --------------------------------------------------------------
                    Orbital Energies (a.u.)
 --------------------------------------------------------------
 
 Alpha MOs
 -- Occupied --
-89.196 -11.028  -8.988  -6.872  -6.872  -6.857  -1.388  -1.175
 -0.897  -0.894  -0.829  -0.770  -0.766
 -- Virtual --
 -0.129  -0.110  -0.076  -0.076  -0.051  -0.038  -0.033  -0.030
 -0.026  -0.026   0.027   0.041   0.061   0.062   0.071   0.075
  0.137   0.142   0.175   0.232   0.245   0.272   0.272   0.326
  0.342   0.477   0.478   0.488   0.568   0.599   0.600   0.615
  0.710   0.735   0.752   0.760   0.792   0.795   0.819   0.830
  0.878   0.879   0.933   1.027   1.035   1.097   1.133   1.143
  1.180   1.196   1.212   1.328   1.334   1.352   1.422   1.426
  1.563   1.748   1.758   1.990   2.460   2.463   2.562   2.932
  2.954   3.003   3.009   3.169   3.207   3.226   3.250   3.277
  3.410   3.422   3.486   3.493   3.534   3.568   3.598   3.625
  3.625   3.829   3.922   3.924   3.997   4.195   4.197   4.371
  4.378   4.378   4.468   4.558   4.558   4.784   4.808   5.075
  5.342   5.699   5.710   8.391  17.281  17.284  17.553  23.689
 23.777  23.841  23.842  23.895  24.563  28.227  28.429  28.452
 31.218  31.219  31.231  31.231  31.242  31.242  31.261  41.317
 41.347  41.530  41.556  41.609 189.865
 
 Beta MOs
 -- Occupied --
-89.183 -11.029  -8.975  -6.849  -6.841  -6.841  -1.300  -1.077
 -0.856  -0.849  -0.804
 -- Virtual --
 -0.309  -0.307  -0.124  -0.101  -0.075  -0.074  -0.048  -0.028
 -0.025  -0.024  -0.022  -0.021   0.026   0.046   0.070   0.071
  0.121   0.125   0.172   0.176   0.177   0.233   0.252   0.302
  0.303   0.331   0.347   0.479   0.480   0.493   0.569   0.604
  0.606   0.621   0.717   0.745   0.763   0.771   0.819   0.822
  0.836   0.836   0.937   0.938   0.941   1.031   1.040   1.099
  1.137   1.147   1.190   1.201   1.218   1.334   1.340   1.355
  1.424   1.428   1.564   1.787   1.796   1.994   2.466   2.468
  2.567   2.934   2.957   3.005   3.011   3.173   3.211   3.228
  3.256   3.283   3.450   3.461   3.511   3.518   3.539   3.569
  3.603   3.635   3.637   3.833   3.924   3.926   4.002   4.200
  4.202   4.375   4.382   4.382   4.472   4.572   4.573   4.793
  4.817   5.079   5.349   5.702   5.714   8.409  17.311  17.313
 17.560  23.715  23.802  23.857  23.858  23.908  24.563  28.226
 28.429  28.452  31.228  31.229  31.238  31.239  31.248  31.248
 31.267  41.316  41.348  41.530  41.555  41.609 189.878
 --------------------------------------------------------------
 
          Ground-State Mulliken Net Atomic Charges

     Atom                 Charge (a.u.)    Spin (a.u.)
  --------------------------------------------------------
      1 C                     0.032205      -0.077791
      2 S                     0.540122       1.954017
      3 H                     0.142315       0.043801
      4 H                     0.142702       0.040679
      5 H                     0.142656       0.039294
  --------------------------------------------------------
  Sum of atomic charges =     1.000000
  Sum of spin   charges =     2.000000

 -----------------------------------------------------------------
                    Cartesian Multipole Moments
 -----------------------------------------------------------------
    Charge (ESU x 10^10)
                 4.8032
    Dipole Moment (Debye)
         X       0.0524      Y       0.0000      Z       4.7723
       Tot       4.7726
    Quadrupole Moments (Debye-Ang)
        XX     -15.8194     XY      -0.0001     YY     -15.6685
        XZ       0.0204     YZ      -0.0005     ZZ      -6.5623
    Octapole Moments (Debye-Ang^2)
       XXX       1.0715    XXY       0.0001    XYY      -1.1701
       YYY       0.0002    XXZ     -18.2742    XYZ       0.0001
       YYZ     -18.4473    XZZ      -0.2352    YZZ      -0.0019
       ZZZ     -36.3397
    Hexadecapole Moments (Debye-Ang^3)
      XXXX     -20.9011   XXXY      -0.0003   XXYY      -7.1318
      XYYY      -0.0003   YYYY     -20.9579   XXXZ      -0.7318
      XXYZ      -0.0001   XYYZ       0.6084   YYYZ      -0.0003
      XXZZ     -39.9308   XYZZ       0.0000   YYZZ     -39.7165
      XZZZ      -0.2213   YZZZ      -0.0061   ZZZZ    -190.8554
 -----------------------------------------------------------------
 Total job time:  49.78s(wall), 46.17s(cpu) 
 Mon Nov 14 15:17:31 2011

        *************************************************************
        *                                                           *
        *  Thank you very much for using Q-Chem.  Have a nice day.  *
        *                                                           *
        *************************************************************


0 sent ACK to 0 
now end server 0 ... 
