Process 0 of 1 is on cl214.stfx.acenet.ca - thread support 1
initial socket setup ...start
initial socket setup ...done 
now start server 0 ... 

cmd = /usr/bin/ssh clhead /usr/local/qchem/bin/get_hostid 1990515941 > /scratch/tmp/6027674.1.medium.q/qchem17249/lic.dat
                  Welcome to Q-Chem
     A Quantum Leap Into The Future Of Chemistry

 Y. Shao, L. Fusti-Molnar, Y. Jung, J. Kussmann, C. Ochsenfeld,
 S. T. Brown, A. T. B. Gilbert, L. V. Slipchenko,S. V. Levchenko,
 D. P. O'Neill, R. A. DiStasio Jr., R. C. Lochan, T. Wang,
 G. J. O. Beran, N. A. Besley, J. M. Herbert, C. Y. Lin,
 T. Van Voorhis, S. H. Chien, A. Sodt, R. P. Steele, 
 V. A. Rassolov, P. E. Maslen, P. P. Korambath, R. D. Adamson,
 B. Austin, J. Baker, E. F. C. Byrd, H. Dachsel, R. J. Doerksen,
 A. Dreuw, B. D. Dunietz, A. D. Dutoi, T. R. Furlani,
 S. R. Gwaltney, A. Heyden, S. Hirata, C.-P. Hsu, G. Kedziora,
 R. Z. Khaliullin, P. Klunzinger, A. M. Lee, M. S. Lee, W. Liang,
 I. Lotan, N. Nair, B. Peters, E. I. Proynov, P. A. Pieniazek, 
 Y. M. Rhee, J. Ritchie, E. Rosta, C. D. Sherrill, 
 A. C. Simmonett, J. E. Subotnik, H. L. Woodcock III,
 W. Zhang, A. T. Bell, A. K. Chakraborty, D. M. Chipman,
 F. J. Keil, A. Warshel, W. J. Hehre, H. F. Schaefer III,
 J. Kong, A. I. Krylov, P. M. W. Gill, M. Head-Gordon,
 Q-Chem, Version 3.1, Q-Chem, Inc., Pittsburgh, PA (2007).

 Additional authors for Version 3.1: 
 Z. Gan, Y. Zhao, N. E. Schultz, D. Truhlar, E. Epifanovsky and M. Oana.

 Additional authors for Version 3.2: 
 R. Baer, B. R. Brooks, D. Casanova, J.-D. Chai, C.-L. Cheng, 
 C. Cramer, D. Crittenden, A. Ghysels, G. Hawkins, E. G. Hohenstein, 
 C. Kelley, W. Kurlancheek, D. Liotard, E. Livshits, P. Manohar, 
 A. Marenich, D. Neuhauser, R. Olson, M. A. Rohrdanz, K. S. Thanthiriwatte, 
 A. J. W. Thom, V. Vanovschi, C. F. Williams, Q. Wu and Z.-Q. You. 


 Intel X86 Linux Version

 Q-chem begins on Mon Jun  3 17:03:40 2013  

 Parallel job on  1  processors
Processing $rem in /usr/local/qchem/config/preferences.

theFileMan(): MAXOPENFILES=974 MAX_SUB_FILE_NUM=16
Maximum size of a physical file is 2.0 GB, maximum size of a tmp-file is 32.0 GB


--------------------------------------------------------------
User input:
--------------------------------------------------------------

$molecule
-1,3
N
O,1,r

r=1.15869834

$end

$comment
negative
$end

$xc_functional
C PBE   1.00
X wPBE  1.00
$end

$rem
SYMMETRY_DECOMPOSITION	0
exchange 		general
LRC_DFT                 true
BASIS                   g3large
omega			600
mem_static              760
max_scf_cycles          200
scf_final_print         1
sym_ignore              true
$end

--------------------------------------------------------------
 Writing REM_CC_EA            2
 ----------------------------------------------------
       Standard Nuclear Orientation (Angstroms)
    I     Atom         X            Y            Z
 ----------------------------------------------------
    1      N       0.000000     0.000000     0.000000
    2      O       0.000000     0.000000     1.158698
 ----------------------------------------------------
 Nuclear Repulsion Energy =    25.5751844823 hartrees
 There are        9 alpha and        7 beta electrons
 Requested basis set is G3large
 There are 20 shells and 84 basis functions

Total QAlloc Memory Limit   2000 MB
Mega-Array Size       743 MB
MEM_STATIC part       760 MB

                       Distance Matrix (Angstroms)
             N (  1)
   O (  2)  1.158698
 
 A cutoff of  1.0D-08 yielded    206 shell pairs
 There are   3662 function pairs (  4809 Cartesian)
Evaluating contribution to one-electron hamiltonian from nuclear
 Smallest overlap matrix eigenvalue = 2.14E-03
 Multipole matrices computed through 2nd order

  Scale SEOQF with 1.000000e-01/1.000000e-01/1.000000e-01

 Standard Electronic Orientation quadrupole field applied
 Nucleus-field energy     =    -0.0000000012 hartrees
 Guess from superposition of atomic densities
 Warning:  Energy on first SCF cycle will be non-variational
 Long-range K will be added via erf
 Coulomb attenuation parameter = 0.6 bohr**(-1)
 An unrestricted Kohn-Sham SCF calculation will be
 performed using Pulay DIIS extrapolation
 Exchange:  wPBE + LR-HF      Correlation:  PBE
 Using SG-1 standard quadrature grid
 SCF converges when DIIS error is below 1.0E-05
 Requested basis set is G3large
 There are 20 shells and 84 basis functions
 A cutoff of  1.0D-08 yielded    206 shell pairs
 There are   3662 function pairs (  4809 Cartesian)
 Warning!  Inaccurate integrated density:
   Number of electrons =    16
   Numerical integral  =    14.999983069313
   Relative error      =    -6.2501058168 %
 ---------------------------------------
  Cycle       Energy         DIIS Error
 ---------------------------------------
    1    -129.9338171452      4.91E-02
    2    -129.7948244862      6.96E-03
    3    -129.8347381970      4.76E-03
    4    -129.8481171410      9.54E-04
    5    -129.8489265217      4.28E-04
    6    -129.8492107617      1.59E-04
    7    -129.8492833875      4.92E-05
    8    -129.8493049465      1.61E-05
    9    -129.8493082165      4.98E-06 Convergence criterion met
 ---------------------------------------
 One-Electron    Energy =  -233.2446986455
 Total Coulomb   Energy =    93.4611079839
 Alpha Exchange  Energy =    -2.5222979892
 Beta  Exchange  Energy =    -1.9494487288
 DFT   Exchange  Energy =   -10.6502867267
 DFT Correlation Energy =    -0.5188685913
 Nuclear Repu.   Energy =    25.5751844811
 Nuclear Attr.   Energy =  -363.1133761879
 Kinetic         Energy =   129.8686775424
 <S^2> = 2.0099
 SCF time:  CPU 9.76 s  wall 12.24 s
 Final Alpha MO Eigenvalues
            1           2           3           4           5           6
    1 -18.8007069 -14.0402848  -1.0900980  -0.5464584  -0.3625294  -0.3625194
            7           8           9          10          11          12
    1  -0.3090891  -0.0254047  -0.0253756   0.3056775   0.3524837   0.3680041
           13          14
    1   0.3680175   0.4585551
 Final Beta MO Eigenvalues
            1           2           3           4           5           6
    1 -18.7839202 -14.0149798  -1.0499923  -0.4581641  -0.2613264  -0.2612818
            7           8           9          10          11          12
    1  -0.2585467   0.3083801   0.3437208   0.3437336   0.3607749   0.4361642
 Analysis of SCF Wavefunction
 
 --------------------------------------------------------------
                    Orbital Energies (a.u.)
 --------------------------------------------------------------
 
 Alpha MOs
 -- Occupied --
-18.801 -14.040  -1.090  -0.546  -0.363  -0.363  -0.309  -0.025
 -0.025
 -- Virtual --
  0.306   0.352   0.368   0.368   0.459   0.488   0.488   0.656
  0.834   1.151   1.151   1.169   1.354   1.373   1.373   1.421
  1.442   1.442   1.584   1.584   1.898   2.005   2.005   2.295
  2.540   2.540   2.876   3.989   3.989   4.034   4.034   4.140
  4.140   4.202   4.439   4.439   5.084   5.111   5.111   5.159
  5.169   5.169   5.490   5.490   5.509   5.509   5.911   5.955
  5.955   7.156   7.156   7.188   7.188   7.595   7.595   7.696
  8.140  36.137  37.735  37.735  38.375  40.825  40.933  41.027
 41.027  41.153  44.052  44.114  44.221  44.221  44.371  46.091
 46.091  46.851  50.480
 
 Beta MOs
 -- Occupied --
-18.784 -14.015  -1.050  -0.458  -0.261  -0.261  -0.259
 -- Virtual --
  0.308   0.344   0.344   0.361   0.436   0.436   0.464   0.530
  0.530   0.658   0.866   1.193   1.208   1.208   1.369   1.429
  1.429   1.461   1.472   1.472   1.634   1.634   1.918   2.057
  2.057   2.321   2.571   2.571   2.900   4.065   4.065   4.077
  4.077   4.221   4.221   4.237   4.476   4.476   5.120   5.164
  5.164   5.192   5.290   5.290   5.534   5.534   5.558   5.558
  5.938   5.990   5.990   7.194   7.194   7.259   7.260   7.632
  7.632   7.716   8.167  36.166  37.778  37.778  38.390  40.881
 40.988  41.056  41.056  41.172  44.096  44.157  44.244  44.244
 44.389  46.121  46.121  46.861  50.496
 --------------------------------------------------------------
 
          Ground-State Mulliken Net Atomic Charges

     Atom                 Charge (a.u.)    Spin (a.u.)
  --------------------------------------------------------
      1 N                    -0.722629       1.504188
      2 O                    -0.277371       0.495812
  --------------------------------------------------------
  Sum of atomic charges =    -1.000000
  Sum of spin   charges =     2.000000

 -----------------------------------------------------------------
                    Cartesian Multipole Moments
 -----------------------------------------------------------------
    Charge (ESU x 10^10)
                -4.8032
    Dipole Moment (Debye)
         X      -0.0004      Y      -0.0002      Z      -1.7931
       Tot       1.7931
    Quadrupole Moments (Debye-Ang)
        XX     -13.8420     XY       0.0006     YY     -13.8418
        XZ       0.0005     YZ       0.0002     ZZ     -17.9190
    Octapole Moments (Debye-Ang^2)
       XXX      -0.0015    XXY      -0.0002    XYY      -0.0005
       YYY      -0.0007    XXZ      -6.2743    XYZ      -0.0009
       YYZ      -6.2746    XZZ      -0.0002    YZZ      -0.0001
       ZZZ     -26.0513
    Hexadecapole Moments (Debye-Ang^3)
      XXXX     -17.5172   XXXY       0.0020   XXYY      -5.8388
      XYYY       0.0020   YYYY     -17.5158   XXXZ       0.0015
      XXYZ       0.0002   XYYZ       0.0005   YYYZ       0.0007
      XXZZ     -14.5870   XYZZ      -0.0003   YYZZ     -14.5871
      XZZZ       0.0013   YZZZ       0.0006   ZZZZ     -73.9908
 -----------------------------------------------------------------
 Total job time:  12.40s(wall), 9.85s(cpu) 
 Mon Jun  3 17:03:53 2013

        *************************************************************
        *                                                           *
        *  Thank you very much for using Q-Chem.  Have a nice day.  *
        *                                                           *
        *************************************************************


0 sent ACK to 0 
now end server 0 ... 
 
**********************************************************************
Job 2 of 3 
**********************************************************************
 
Process 0 of 1 is on cl214.stfx.acenet.ca - thread support 1
initial socket setup ...start
initial socket setup ...done 
now start server 0 ... 

cmd = /usr/bin/ssh clhead /usr/local/qchem/bin/get_hostid 1725944233 > /scratch/tmp/6027674.1.medium.q/qchem17249/lic.dat
                  Welcome to Q-Chem
     A Quantum Leap Into The Future Of Chemistry

 Y. Shao, L. Fusti-Molnar, Y. Jung, J. Kussmann, C. Ochsenfeld,
 S. T. Brown, A. T. B. Gilbert, L. V. Slipchenko,S. V. Levchenko,
 D. P. O'Neill, R. A. DiStasio Jr., R. C. Lochan, T. Wang,
 G. J. O. Beran, N. A. Besley, J. M. Herbert, C. Y. Lin,
 T. Van Voorhis, S. H. Chien, A. Sodt, R. P. Steele, 
 V. A. Rassolov, P. E. Maslen, P. P. Korambath, R. D. Adamson,
 B. Austin, J. Baker, E. F. C. Byrd, H. Dachsel, R. J. Doerksen,
 A. Dreuw, B. D. Dunietz, A. D. Dutoi, T. R. Furlani,
 S. R. Gwaltney, A. Heyden, S. Hirata, C.-P. Hsu, G. Kedziora,
 R. Z. Khaliullin, P. Klunzinger, A. M. Lee, M. S. Lee, W. Liang,
 I. Lotan, N. Nair, B. Peters, E. I. Proynov, P. A. Pieniazek, 
 Y. M. Rhee, J. Ritchie, E. Rosta, C. D. Sherrill, 
 A. C. Simmonett, J. E. Subotnik, H. L. Woodcock III,
 W. Zhang, A. T. Bell, A. K. Chakraborty, D. M. Chipman,
 F. J. Keil, A. Warshel, W. J. Hehre, H. F. Schaefer III,
 J. Kong, A. I. Krylov, P. M. W. Gill, M. Head-Gordon,
 Q-Chem, Version 3.1, Q-Chem, Inc., Pittsburgh, PA (2007).

 Additional authors for Version 3.1: 
 Z. Gan, Y. Zhao, N. E. Schultz, D. Truhlar, E. Epifanovsky and M. Oana.

 Additional authors for Version 3.2: 
 R. Baer, B. R. Brooks, D. Casanova, J.-D. Chai, C.-L. Cheng, 
 C. Cramer, D. Crittenden, A. Ghysels, G. Hawkins, E. G. Hohenstein, 
 C. Kelley, W. Kurlancheek, D. Liotard, E. Livshits, P. Manohar, 
 A. Marenich, D. Neuhauser, R. Olson, M. A. Rohrdanz, K. S. Thanthiriwatte, 
 A. J. W. Thom, V. Vanovschi, C. F. Williams, Q. Wu and Z.-Q. You. 


 Intel X86 Linux Version

 Q-chem begins on Mon Jun  3 17:03:55 2013  

 Parallel job on  1  processors
Processing $rem in /usr/local/qchem/config/preferences.

theFileMan(): MAXOPENFILES=974 MAX_SUB_FILE_NUM=16
Maximum size of a physical file is 2.0 GB, maximum size of a tmp-file is 32.0 GB


--------------------------------------------------------------
User input:
--------------------------------------------------------------

$molecule
0,2
N
O,1,r

r=1.15869834

$end

$comment
neutral
$end

$xc_functional
C PBE   1.00
X wPBE  1.00
$end


$rem
SYMMETRY_DECOMPOSITION	0
LRC_DFT                 true
exchange 		general
BASIS                   g3large
omega			600
mem_static              760
max_scf_cycles          200
scf_final_print         1
sym_ignore              true
$end

--------------------------------------------------------------
 Writing REM_CC_EA            2
 ----------------------------------------------------
       Standard Nuclear Orientation (Angstroms)
    I     Atom         X            Y            Z
 ----------------------------------------------------
    1      N       0.000000     0.000000     0.000000
    2      O       0.000000     0.000000     1.158698
 ----------------------------------------------------
 Nuclear Repulsion Energy =    25.5751844823 hartrees
 There are        8 alpha and        7 beta electrons
 Requested basis set is G3large
 There are 20 shells and 84 basis functions

Total QAlloc Memory Limit   2000 MB
Mega-Array Size       743 MB
MEM_STATIC part       760 MB

                       Distance Matrix (Angstroms)
             N (  1)
   O (  2)  1.158698
 
 A cutoff of  1.0D-08 yielded    206 shell pairs
 There are   3662 function pairs (  4809 Cartesian)
Evaluating contribution to one-electron hamiltonian from nuclear
 Smallest overlap matrix eigenvalue = 2.14E-03
 Multipole matrices computed through 2nd order

  Scale SEOQF with 1.000000e-01/1.000000e-01/1.000000e-01

 Standard Electronic Orientation quadrupole field applied
 Nucleus-field energy     =    -0.0000000012 hartrees
 Guess from superposition of atomic densities
 Warning:  Energy on first SCF cycle will be non-variational
 Long-range K will be added via erf
 Coulomb attenuation parameter = 0.6 bohr**(-1)
 An unrestricted Kohn-Sham SCF calculation will be
 performed using Pulay DIIS extrapolation
 Exchange:  wPBE + LR-HF      Correlation:  PBE
 Using SG-1 standard quadrature grid
 SCF converges when DIIS error is below 1.0E-05
 Requested basis set is G3large
 There are 20 shells and 84 basis functions
 A cutoff of  1.0D-08 yielded    206 shell pairs
 There are   3662 function pairs (  4809 Cartesian)
 ---------------------------------------
  Cycle       Energy         DIIS Error
 ---------------------------------------
    1    -129.9338171452      4.91E-02
    2    -129.8170458035      5.62E-03
    3    -129.8346541027      4.03E-03
    4    -129.8434468912      1.60E-03
    5    -129.8451779393      2.54E-04
    6    -129.8454219163      8.40E-05
    7    -129.8454661010      2.97E-05
    8    -129.8454759151      8.06E-06 Convergence criterion met
 ---------------------------------------
 One-Electron    Energy =  -227.6106544646
 Total Coulomb   Energy =    87.4605666842
 Alpha Exchange  Energy =    -2.2783523788
 Beta  Exchange  Energy =    -1.9761612547
 DFT   Exchange  Energy =   -10.5254012170
 DFT Correlation Energy =    -0.4906577653
 Nuclear Repu.   Energy =    25.5751844811
 Nuclear Attr.   Energy =  -357.0515379838
 Kinetic         Energy =   129.4408835192
 <S^2> = 0.7544
 SCF time:  CPU 8.79 s  wall 11.26 s
 Final Alpha MO Eigenvalues
            1           2           3           4           5           6
    1 -19.2051709 -14.4580281  -1.4653794  -0.8902973  -0.7294615  -0.6751390
            7           8           9          10          11          12
    1  -0.6661478  -0.3936959   0.0129190   0.1111336   0.1547710   0.1645170
           13
    1   0.1663565
 Final Beta MO Eigenvalues
            1           2           3           4           5           6
    1 -19.1963209 -14.4426664  -1.4440942  -0.8429488  -0.6659777  -0.6397525
            7           8           9          10          11          12
    1  -0.6279799   0.0283134   0.0689992   0.1124303   0.1574491   0.1687817
 Analysis of SCF Wavefunction
 
 --------------------------------------------------------------
                    Orbital Energies (a.u.)
 --------------------------------------------------------------
 
 Alpha MOs
 -- Occupied --
-19.205 -14.458  -1.465  -0.890  -0.729  -0.675  -0.666  -0.394
 -- Virtual --
  0.013   0.111   0.155   0.165   0.166   0.251   0.277   0.281
  0.413   0.524   0.850   0.851   0.859   1.041   1.043   1.061
  1.110   1.146   1.149   1.242   1.257   1.587   1.675   1.676
  1.959   2.207   2.208   2.539   3.626   3.627   3.669   3.670
  3.767   3.775   3.837   4.070   4.071   4.705   4.743   4.746
  4.793   4.795   4.800   5.127   5.127   5.143   5.143   5.546
  5.590   5.591   6.780   6.782   6.817   6.819   7.229   7.230
  7.323   7.767  35.724  37.319  37.323  37.960  40.410  40.518
 40.610  40.612  40.738  43.654  43.716  43.820  43.823  43.971
 45.690  45.691  46.449  50.079
 
 Beta MOs
 -- Occupied --
-19.196 -14.443  -1.444  -0.843  -0.666  -0.640  -0.628
 -- Virtual --
  0.028   0.069   0.112   0.157   0.169   0.180   0.252   0.282
  0.290   0.415   0.544   0.861   0.868   0.897   1.064   1.071
  1.073   1.131   1.152   1.171   1.260   1.289   1.596   1.701
  1.702   1.973   2.211   2.235   2.552   3.668   3.668   3.691
  3.693   3.795   3.844   3.858   4.076   4.106   4.724   4.755
  4.793   4.810   4.866   4.873   5.142   5.149   5.159   5.188
  5.556   5.608   5.612   6.786   6.817   6.855   6.855   7.233
  7.263   7.334   7.781  35.742  37.334  37.360  37.969  40.444
 40.550  40.615  40.641  40.750  43.677  43.738  43.823  43.844
 43.981  45.696  45.716  46.454  50.087
 --------------------------------------------------------------
 
          Ground-State Mulliken Net Atomic Charges

     Atom                 Charge (a.u.)    Spin (a.u.)
  --------------------------------------------------------
      1 N                    -0.072119       0.732795
      2 O                     0.072119       0.267205
  --------------------------------------------------------
  Sum of atomic charges =     0.000000
  Sum of spin   charges =     1.000000

 -----------------------------------------------------------------
                    Cartesian Multipole Moments
 -----------------------------------------------------------------
    Charge (ESU x 10^10)
                 0.0000
    Dipole Moment (Debye)
         X      -0.0004      Y      -0.0004      Z      -0.0265
       Tot       0.0265
    Quadrupole Moments (Debye-Ang)
        XX     -10.0619     XY      -0.5372     YY     -10.3216
        XZ       0.0005     YZ       0.0006     ZZ     -11.3238
    Octapole Moments (Debye-Ang^2)
       XXX      -0.0004    XXY      -0.0002    XYY      -0.0001
       YYY      -0.0005    XXZ      -5.6396    XYZ      -0.1422
       YYZ      -5.7083    XZZ       0.0001    YZZ       0.0003
       ZZZ     -18.3963
    Hexadecapole Moments (Debye-Ang^3)
      XXXX      -7.9595   XXXY      -0.3879   XXYY      -2.7157
      XYYY      -0.3879   YYYY      -8.3345   XXXZ       0.0006
      XXYZ       0.0003   XYYZ       0.0002   YYYZ       0.0008
      XXZZ      -9.5390   XYZZ      -0.4829   YYZZ      -9.7723
      XZZZ       0.0009   YZZZ       0.0013   ZZZZ     -50.6429
 -----------------------------------------------------------------
 Total job time:  11.38s(wall), 8.87s(cpu) 
 Mon Jun  3 17:04:07 2013

        *************************************************************
        *                                                           *
        *  Thank you very much for using Q-Chem.  Have a nice day.  *
        *                                                           *
        *************************************************************


0 sent ACK to 0 
now end server 0 ... 
 
**********************************************************************
Job 3 of 3 
**********************************************************************
 
Process 0 of 1 is on cl214.stfx.acenet.ca - thread support 1
initial socket setup ...start
initial socket setup ...done 
now start server 0 ... 

cmd = /usr/bin/ssh clhead /usr/local/qchem/bin/get_hostid 693861218 > /scratch/tmp/6027674.1.medium.q/qchem17249/lic.dat
                  Welcome to Q-Chem
     A Quantum Leap Into The Future Of Chemistry

 Y. Shao, L. Fusti-Molnar, Y. Jung, J. Kussmann, C. Ochsenfeld,
 S. T. Brown, A. T. B. Gilbert, L. V. Slipchenko,S. V. Levchenko,
 D. P. O'Neill, R. A. DiStasio Jr., R. C. Lochan, T. Wang,
 G. J. O. Beran, N. A. Besley, J. M. Herbert, C. Y. Lin,
 T. Van Voorhis, S. H. Chien, A. Sodt, R. P. Steele, 
 V. A. Rassolov, P. E. Maslen, P. P. Korambath, R. D. Adamson,
 B. Austin, J. Baker, E. F. C. Byrd, H. Dachsel, R. J. Doerksen,
 A. Dreuw, B. D. Dunietz, A. D. Dutoi, T. R. Furlani,
 S. R. Gwaltney, A. Heyden, S. Hirata, C.-P. Hsu, G. Kedziora,
 R. Z. Khaliullin, P. Klunzinger, A. M. Lee, M. S. Lee, W. Liang,
 I. Lotan, N. Nair, B. Peters, E. I. Proynov, P. A. Pieniazek, 
 Y. M. Rhee, J. Ritchie, E. Rosta, C. D. Sherrill, 
 A. C. Simmonett, J. E. Subotnik, H. L. Woodcock III,
 W. Zhang, A. T. Bell, A. K. Chakraborty, D. M. Chipman,
 F. J. Keil, A. Warshel, W. J. Hehre, H. F. Schaefer III,
 J. Kong, A. I. Krylov, P. M. W. Gill, M. Head-Gordon,
 Q-Chem, Version 3.1, Q-Chem, Inc., Pittsburgh, PA (2007).

 Additional authors for Version 3.1: 
 Z. Gan, Y. Zhao, N. E. Schultz, D. Truhlar, E. Epifanovsky and M. Oana.

 Additional authors for Version 3.2: 
 R. Baer, B. R. Brooks, D. Casanova, J.-D. Chai, C.-L. Cheng, 
 C. Cramer, D. Crittenden, A. Ghysels, G. Hawkins, E. G. Hohenstein, 
 C. Kelley, W. Kurlancheek, D. Liotard, E. Livshits, P. Manohar, 
 A. Marenich, D. Neuhauser, R. Olson, M. A. Rohrdanz, K. S. Thanthiriwatte, 
 A. J. W. Thom, V. Vanovschi, C. F. Williams, Q. Wu and Z.-Q. You. 


 Intel X86 Linux Version

 Q-chem begins on Mon Jun  3 17:04:09 2013  

 Parallel job on  1  processors
Processing $rem in /usr/local/qchem/config/preferences.

theFileMan(): MAXOPENFILES=974 MAX_SUB_FILE_NUM=16
Maximum size of a physical file is 2.0 GB, maximum size of a tmp-file is 32.0 GB


--------------------------------------------------------------
User input:
--------------------------------------------------------------

$molecule
1,1
N
O,1,r

r=1.15869834

$end

$comment
positive
$end

$xc_functional
C PBE   1.00
X wPBE  1.00
$end

$rem
SYMMETRY_DECOMPOSITION	0
LRC_DFT                 true
exchange 		general
BASIS                   g3large
omega			600
mem_static              760
max_scf_cycles          200
scf_final_print         1
sym_ignore              true
$end

--------------------------------------------------------------
 Writing REM_CC_EA            2
 ----------------------------------------------------
       Standard Nuclear Orientation (Angstroms)
    I     Atom         X            Y            Z
 ----------------------------------------------------
    1      N       0.000000     0.000000     0.000000
    2      O       0.000000     0.000000     1.158698
 ----------------------------------------------------
 Nuclear Repulsion Energy =    25.5751844823 hartrees
 There are        7 alpha and        7 beta electrons
 Requested basis set is G3large
 There are 20 shells and 84 basis functions

Total QAlloc Memory Limit   2000 MB
Mega-Array Size       743 MB
MEM_STATIC part       760 MB

                       Distance Matrix (Angstroms)
             N (  1)
   O (  2)  1.158698
 
 A cutoff of  1.0D-08 yielded    206 shell pairs
 There are   3662 function pairs (  4809 Cartesian)
Evaluating contribution to one-electron hamiltonian from nuclear
 Smallest overlap matrix eigenvalue = 2.14E-03
 Multipole matrices computed through 2nd order

  Scale SEOQF with 1.000000e-01/1.000000e-01/1.000000e-01

 Standard Electronic Orientation quadrupole field applied
 Nucleus-field energy     =    -0.0000000012 hartrees
 Guess from superposition of atomic densities
 Warning:  Energy on first SCF cycle will be non-variational
 Long-range K will be added via erf
 Coulomb attenuation parameter = 0.6 bohr**(-1)
 A restricted Kohn-Sham SCF calculation will be
 performed using Pulay DIIS extrapolation
 Exchange:  wPBE + LR-HF      Correlation:  PBE
 Using SG-1 standard quadrature grid
 SCF converges when DIIS error is below 1.0E-05
 Requested basis set is G3large
 There are 20 shells and 84 basis functions
 A cutoff of  1.0D-08 yielded    206 shell pairs
 There are   3662 function pairs (  4809 Cartesian)
 Warning!  Inaccurate integrated density:
   Number of electrons =    14
   Numerical integral  =    14.999983069313
   Relative error      =     7.1427362094 %
 ---------------------------------------
  Cycle       Energy         DIIS Error
 ---------------------------------------
    1    -129.9338171452      4.91E-02
    2    -129.3439883226      1.12E-02
    3    -129.4089875021      8.71E-03
    4    -129.4373507602      5.11E-03
    5    -129.4512405077      3.92E-04
    6    -129.4515722547      1.34E-04
    7    -129.4516423177      4.19E-05
    8    -129.4516499051      9.32E-06 Convergence criterion met
 ---------------------------------------
 One-Electron    Energy =  -220.9125076876
 Total Coulomb   Energy =    80.6681310167
 Alpha Exchange  Energy =    -1.9968561684
 Beta  Exchange  Energy =    -1.9968561684
 DFT   Exchange  Energy =   -10.3307536908
 DFT Correlation Energy =    -0.4579916878
 Nuclear Repu.   Energy =    25.5751844811
 Nuclear Attr.   Energy =  -349.5431243383
 Kinetic         Energy =   128.6306166508
 SCF time:  CPU 7.46 s  wall 9.96 s
 Final Alpha MO Eigenvalues
            1           2           3           4           5           6
    1 -19.7012572 -14.9786571  -1.9127741  -1.2949886  -1.1029332  -1.1029186
            7           8           9          10          11          12
    1  -1.0863933  -0.3943828  -0.3943751  -0.1092006  -0.0572204  -0.0529088
 Analysis of SCF Wavefunction
 
 --------------------------------------------------------------
                    Orbital Energies (a.u.)
 --------------------------------------------------------------
 
 Alpha MOs
 -- Occupied --
-19.701 -14.979  -1.913  -1.295  -1.103  -1.103  -1.086
 -- Virtual --
 -0.394  -0.394  -0.109  -0.057  -0.053  -0.053   0.029   0.059
  0.059   0.138   0.172   0.516   0.532   0.532   0.671   0.671
  0.742   0.768   0.818   0.818   0.872   0.872   1.239   1.300
  1.300   1.585   1.832   1.832   2.155   3.216   3.216   3.252
  3.252   3.342   3.342   3.414   3.641   3.641   4.256   4.316
  4.316   4.359   4.359   4.378   4.706   4.706   4.713   4.713
  5.117   5.165   5.165   6.338   6.338   6.378   6.378   6.797
  6.797   6.880   7.324  35.212  36.808  36.808  37.444  39.896
 40.003  40.095  40.095  40.222  43.167  43.228  43.333  43.333
 43.482  45.200  45.200  45.958  49.588
 --------------------------------------------------------------
 
          Ground-State Mulliken Net Atomic Charges

     Atom                 Charge (a.u.)
  ----------------------------------------
      1 N                     0.453877
      2 O                     0.546123
  ----------------------------------------
  Sum of atomic charges =     1.000000

 -----------------------------------------------------------------
                    Cartesian Multipole Moments
 -----------------------------------------------------------------
    Charge (ESU x 10^10)
                 4.8032
    Dipole Moment (Debye)
         X       0.0000      Y       0.0000      Z       2.2635
       Tot       2.2635
    Quadrupole Moments (Debye-Ang)
        XX      -8.0138     XY       0.0001     YY      -8.0138
        XZ      -0.0001     YZ      -0.0001     ZZ      -5.8606
    Octapole Moments (Debye-Ang^2)
       XXX       0.0000    XXY       0.0000    XYY       0.0000
       YYY       0.0000    XXZ      -4.7680    XYZ      -0.0004
       YYZ      -4.7681    XZZ      -0.0002    YZZ      -0.0001
       ZZZ     -11.1878
    Hexadecapole Moments (Debye-Ang^3)
      XXXX      -5.1213   XXXY       0.0001   XXYY      -1.7071
      XYYY       0.0001   YYYY      -5.1212   XXXZ       0.0000
      XXYZ       0.0000   XYYZ       0.0000   YYYZ       0.0000
      XXZZ      -7.1935   XYZZ      -0.0004   YYZZ      -7.1937
      XZZZ      -0.0004   YZZZ      -0.0002   ZZZZ     -34.9588
 -----------------------------------------------------------------
 Total job time:  10.08s(wall), 7.54s(cpu) 
 Mon Jun  3 17:04:20 2013

        *************************************************************
        *                                                           *
        *  Thank you very much for using Q-Chem.  Have a nice day.  *
        *                                                           *
        *************************************************************


0 sent ACK to 0 
now end server 0 ... 
