Process 0 of 1 is on cl052.dal.acenet.ca - thread support 1
initial socket setup ...start
initial socket setup ...done 
now start server 0 ... 

cmd = /usr/bin/ssh glooscap.ace-net.ca /usr/local/qchem/bin/get_hostid 442126647 > /tmp/179722.1.long.q/qchem1609/lic.dat
                  Welcome to Q-Chem
     A Quantum Leap Into The Future Of Chemistry

 Y. Shao, L. Fusti-Molnar, Y. Jung, J. Kussmann, C. Ochsenfeld,
 S. T. Brown, A. T. B. Gilbert, L. V. Slipchenko,S. V. Levchenko,
 D. P. O'Neill, R. A. DiStasio Jr., R. C. Lochan, T. Wang,
 G. J. O. Beran, N. A. Besley, J. M. Herbert, C. Y. Lin,
 T. Van Voorhis, S. H. Chien, A. Sodt, R. P. Steele, 
 V. A. Rassolov, P. E. Maslen, P. P. Korambath, R. D. Adamson,
 B. Austin, J. Baker, E. F. C. Byrd, H. Dachsel, R. J. Doerksen,
 A. Dreuw, B. D. Dunietz, A. D. Dutoi, T. R. Furlani,
 S. R. Gwaltney, A. Heyden, S. Hirata, C.-P. Hsu, G. Kedziora,
 R. Z. Khaliullin, P. Klunzinger, A. M. Lee, M. S. Lee, W. Liang,
 I. Lotan, N. Nair, B. Peters, E. I. Proynov, P. A. Pieniazek, 
 Y. M. Rhee, J. Ritchie, E. Rosta, C. D. Sherrill, 
 A. C. Simmonett, J. E. Subotnik, H. L. Woodcock III,
 W. Zhang, A. T. Bell, A. K. Chakraborty, D. M. Chipman,
 F. J. Keil, A. Warshel, W. J. Hehre, H. F. Schaefer III,
 J. Kong, A. I. Krylov, P. M. W. Gill, M. Head-Gordon,
 Q-Chem, Version 3.1, Q-Chem, Inc., Pittsburgh, PA (2007).

 Additional authors for Version 3.1: 
 Z. Gan, Y. Zhao, N. E. Schultz, D. Truhlar, E. Epifanovsky and M. Oana.

 Additional authors for Version 3.2: 
 R. Baer, B. R. Brooks, D. Casanova, J.-D. Chai, C.-L. Cheng, 
 C. Cramer, D. Crittenden, A. Ghysels, G. Hawkins, E. G. Hohenstein, 
 C. Kelley, W. Kurlancheek, D. Liotard, E. Livshits, P. Manohar, 
 A. Marenich, D. Neuhauser, R. Olson, M. A. Rohrdanz, K. S. Thanthiriwatte, 
 A. J. W. Thom, V. Vanovschi, C. F. Williams, Q. Wu and Z.-Q. You. 


 Intel X86 Linux Version

 Q-chem begins on Tue Apr 12 12:08:57 2011  

 Parallel job on  1  processors
Processing $rem in /usr/local/qchem/config/preferences.

theFileMan(): MAXOPENFILES=974 MAX_SUB_FILE_NUM=16
Maximum size of a physical file is 2.0 GB, maximum size of a tmp-file is 32.0 GB


--------------------------------------------------------------
User input:
--------------------------------------------------------------

$molecule
-1,2
 C        27.589041       23.466286       25.344061
 C        26.339153       23.225647       24.775341
 C        25.423603       24.268255       24.563448
 C        25.808182       25.560291       24.954315
 C        27.058195       25.800951       25.523088
 C        27.973625       24.758410       25.735035
 H        28.281313       22.632208       25.481283
 H        26.068596       22.204544       24.496038
 H        25.116135       26.394463       24.817167
 H        27.328890       26.822035       25.802298
 H        23.708551       24.814869       23.583281
 H        24.079388       23.185360       23.458334
 H        29.688467       24.211771       26.715748
 H        29.317875       25.841635       26.839811
 N        29.254854       25.009876       26.258593
 N        24.142208       24.016731       24.040218

$end

$comment
negative
$end

$xc_functional
   X HF 1.0
   X BNL 1.0
   C LYP 1.0
$end

$rem
SYMMETRY_DECOMPOSITION	0
exchange 		general
BASIS                   g3large
omega			270
separate_jk		true
mem_static              760
max_scf_cycles          200
scf_final_print         1
sym_ignore              true
$end

--------------------------------------------------------------
 Writing REM_CC_EA           16
 ----------------------------------------------------
       Standard Nuclear Orientation (Angstroms)
    I     Atom         X            Y            Z
 ----------------------------------------------------
    1      C      27.589041    23.466286    25.344061
    2      C      26.339153    23.225647    24.775341
    3      C      25.423603    24.268255    24.563448
    4      C      25.808182    25.560291    24.954315
    5      C      27.058195    25.800951    25.523088
    6      C      27.973625    24.758410    25.735035
    7      H      28.281313    22.632208    25.481283
    8      H      26.068596    22.204544    24.496038
    9      H      25.116135    26.394463    24.817167
   10      H      27.328890    26.822035    25.802298
   11      H      23.708551    24.814869    23.583281
   12      H      24.079388    23.185360    23.458334
   13      H      29.688467    24.211771    26.715748
   14      H      29.317875    25.841635    26.839811
   15      N      29.254854    25.009876    26.258593
   16      N      24.142208    24.016731    24.040218
 ----------------------------------------------------
 Nuclear Repulsion Energy =   343.5292271490 hartrees
 There are       30 alpha and       29 beta electrons
 Requested basis set is G3large
 There are 128 shells and 416 basis functions

Total QAlloc Memory Limit   2000 MB
Mega-Array Size       743 MB
MEM_STATIC part       760 MB
 A cutoff of  1.0D-08 yielded   6560 shell pairs
 There are  69931 function pairs ( 87060 Cartesian)
Evaluating contribution to one-electron hamiltonian from nuclear
 Smallest overlap matrix eigenvalue = 7.44E-07

 Q-Chem warning in module mkSTV.C, line 194:

 Overlap eigenvalue is smaller than square root of threshold

 Linear dependence detected in AO basis
 Number of orthogonalized atomic orbitals = 415
 Maximum deviation from orthogonality = 1.050E-10
 Multipole matrices computed through 2nd order

  Scale SEOQF with 1.000000e-03/1.000000e-03/1.000000e-03

 Standard Electronic Orientation quadrupole field applied
 Nucleus-field energy     =     0.0000000004 hartrees
 Guess from superposition of atomic densities
 Warning:  Energy on first SCF cycle will be non-variational
 An unrestricted hybrid HF-DFT SCF calculation will be
 performed using Pulay DIIS extrapolation
 Exchange:     1.0000 Hartree-Fock + 1.0000 BNL
 Correlation:  1.0000 LYP
 Using SG-1 standard quadrature grid
 SCF converges when DIIS error is below 1.0E-05
 Warning!  Inaccurate integrated density:
   Number of electrons =    59
   Numerical integral  =    58.000897553966
   Relative error      =    -1.6933939763 %
 ---------------------------------------
  Cycle       Energy         DIIS Error
 ---------------------------------------
    1    -341.2331929928      2.47E-02
    2    -338.5284483709      3.21E-03
    3    -338.4400709847      3.93E-03
    4    -338.7807977464      7.02E-04
    5    -338.7937741161      2.80E-04
    6    -338.7958649150      7.13E-05
    7    -338.7965504825      5.84E-05
    8    -338.7969975475      5.10E-05
    9    -338.7974008266      5.06E-05
   10    -338.7977236103      5.23E-05
   11    -338.7946890917      1.05E-04
   12    -338.7941710453      1.30E-04
   13    -338.7940734082      1.58E-04
   14    -338.7942457915      1.04E-04
   15    -338.7944788559      4.01E-05
   16    -338.7946347683      8.56E-06 Convergence criterion met
 ---------------------------------------
 One-Electron    Energy = -1153.4539768162
 Total Coulomb   Energy =   516.3066651522
 Alpha Exchange  Energy =    -4.2404272438
 Beta  Exchange  Energy =    -4.1131919720
 DFT   Exchange  Energy =   -34.8423271987
 DFT Correlation Energy =    -1.9806038393
 Nuclear Repu.   Energy =   343.5292271494
 Nuclear Attr.   Energy = -1490.8454251524
 Kinetic         Energy =   337.3914483363
 <S^2> = 0.7590
 SCF time:  CPU 2360.73 s  wall 2363.50 s
 Final Alpha MO Eigenvalues
            1           2           3           4           5           6
    1 -13.8154131 -13.8154043  -9.7482164  -9.7481297  -9.6908804  -9.6907861
            7           8           9          10          11          12
    1  -9.6901433  -9.6900863  -0.8078681  -0.8023840  -0.7004297  -0.6178638
           13          14          15          16          17          18
    1  -0.5936505  -0.5094895  -0.4883823  -0.4344116  -0.4221799  -0.3979370
           19          20          21          22          23          24
    1  -0.3887762  -0.3202558  -0.3076515  -0.2994519  -0.2951817  -0.2789684
           25          26          27          28          29          30
    1  -0.2549403  -0.2208062  -0.1866591  -0.1523132  -0.0895078   0.0510056
           31          32          33          34          35
    1   0.1345967   0.1346285   0.1456799   0.1542212   0.1575962
 Final Beta MO Eigenvalues
            1           2           3           4           5           6
    1 -13.8154374 -13.8154287  -9.7495021  -9.7494127  -9.6872093  -9.6871121
            7           8           9          10          11          12
    1  -9.6862988  -9.6862250  -0.8073755  -0.8022698  -0.6963222  -0.6103109
           13          14          15          16          17          18
    1  -0.5905947  -0.5017816  -0.4869855  -0.4335167  -0.4195238  -0.3956130
           19          20          21          22          23          24
    1  -0.3860824  -0.3165329  -0.3046077  -0.2934575  -0.2912237  -0.2754671
           25          26          27          28          29          30
    1  -0.2518647  -0.2179433  -0.1813180  -0.1246578  -0.0771065   0.1320280
           31          32          33          34
    1   0.1326582   0.1425817   0.1510566   0.1554150
 Analysis of SCF Wavefunction
 
 --------------------------------------------------------------
                    Orbital Energies (a.u.)
 --------------------------------------------------------------
 
 Alpha MOs
 -- Occupied --
-13.815 -13.815  -9.748  -9.748  -9.691  -9.691  -9.690  -9.690
 -0.808  -0.802  -0.700  -0.618  -0.594  -0.509  -0.488  -0.434
 -0.422  -0.398  -0.389  -0.320  -0.308  -0.299  -0.295  -0.279
 -0.255  -0.221  -0.187  -0.152  -0.090   0.051
 -- Virtual --
  0.135   0.135   0.146   0.154   0.158   0.183   0.188   0.208
  0.230   0.234   0.248   0.264   0.270   0.276   0.278   0.281
  0.283   0.287   0.296   0.304   0.310   0.314   0.325   0.327
  0.330   0.336   0.338   0.345   0.354   0.359   0.361   0.373
  0.377   0.384   0.393   0.411   0.420   0.424   0.433   0.434
  0.439   0.453   0.458   0.480   0.489   0.490   0.494   0.499
  0.515   0.525   0.550   0.590   0.607   0.609   0.621   0.680
  0.725   0.730   0.763   0.764   0.766   0.769   0.772   0.775
  0.791   0.807   0.816   0.824   0.828   0.831   0.834   0.850
  0.876   0.891   0.893   0.896   0.896   0.905   0.908   0.917
  0.936   0.948   0.953   0.964   0.964   0.973   0.978   1.016
  1.018   1.028   1.035   1.038   1.046   1.056   1.079   1.079
  1.090   1.100   1.105   1.156   1.176   1.184   1.214   1.231
  1.274   1.280   1.292   1.294   1.307   1.320   1.332   1.348
  1.363   1.377   1.398   1.424   1.425   1.434   1.468   1.489
  1.502   1.515   1.532   1.540   1.568   1.571   1.573   1.585
  1.603   1.610   1.643   1.657   1.660   1.663   1.703   1.718
  1.740   1.745   1.766   1.795   1.870   1.920   1.928   1.939
  1.964   1.999   2.001   2.029   2.035   2.049   2.082   2.090
  2.091   2.122   2.139   2.182   2.275   2.393   2.458   2.485
  2.571   2.690   2.780   2.783   2.785   2.850   2.878   2.891
  2.913   2.949   2.964   2.972   2.983   3.007   3.024   3.039
  3.042   3.048   3.075   3.077   3.095   3.122   3.128   3.135
  3.142   3.162   3.183   3.195   3.196   3.225   3.301   3.323
  3.325   3.343   3.376   3.400   3.433   3.433   3.446   3.451
  3.455   3.469   3.478   3.480   3.518   3.519   3.535   3.571
  3.592   3.616   3.621   3.628   3.641   3.646   3.654   3.667
  3.679   3.709   3.715   3.743   3.744   3.778   3.800   3.820
  3.839   3.867   3.874   3.915   3.917   3.934   3.961   3.974
  3.989   3.992   4.012   4.045   4.123   4.133   4.135   4.139
  4.142   4.166   4.185   4.203   4.221   4.223   4.230   4.239
  4.250   4.309   4.316   4.336   4.383   4.418   4.495   4.506
  4.536   4.563   4.583   4.599   4.614   4.624   4.647   4.650
  4.662   4.680   4.699   4.725   4.749   4.760   4.767   4.786
  4.853   4.905   4.930   4.937   5.039   5.049   5.065   5.092
  5.140   5.189   5.190   5.209   5.257   5.354   5.376   5.382
  5.420   5.452   5.453   5.475   5.513   5.516   5.580   5.593
  5.649   5.795   5.805   5.827   5.897   5.900   6.033   6.047
  6.050   6.120   6.204   6.285   6.536   6.591   6.600   6.646
  6.741  24.079  24.623  24.655  24.899  24.906  25.391  27.422
 27.585  27.596  27.666  27.683  27.894  28.124  28.243  28.259
 28.410  28.435  28.438  28.669  28.690  28.763  28.789  28.824
 29.341  36.067  36.091  37.715  37.722  38.414  38.424  38.595
 38.687  40.648  40.652  40.720  40.722  40.818  40.820  40.842
 40.845  40.926  40.929  41.007  41.015  41.072  41.076  41.082
 41.082  41.102  41.107  41.145  41.189  41.233  41.250  41.345
 41.355  41.380  41.397  41.410  41.411  41.412  41.430  41.444
 41.451  41.480  41.484  41.536  41.575  41.597  41.616  41.680
 41.708
 
 Beta MOs
 -- Occupied --
-13.815 -13.815  -9.750  -9.749  -9.687  -9.687  -9.686  -9.686
 -0.807  -0.802  -0.696  -0.610  -0.591  -0.502  -0.487  -0.434
 -0.420  -0.396  -0.386  -0.317  -0.305  -0.293  -0.291  -0.275
 -0.252  -0.218  -0.181  -0.125  -0.077
 -- Virtual --
  0.132   0.133   0.143   0.151   0.155   0.180   0.184   0.205
  0.227   0.231   0.235   0.246   0.263   0.268   0.274   0.277
  0.280   0.282   0.284   0.294   0.303   0.313   0.321   0.323
  0.327   0.330   0.333   0.336   0.342   0.353   0.357   0.360
  0.373   0.374   0.382   0.394   0.409   0.417   0.423   0.433
  0.438   0.439   0.456   0.465   0.479   0.488   0.488   0.494
  0.498   0.517   0.526   0.552   0.593   0.608   0.609   0.621
  0.680   0.725   0.735   0.767   0.767   0.772   0.772   0.773
  0.779   0.796   0.810   0.819   0.826   0.829   0.834   0.839
  0.851   0.878   0.894   0.895   0.896   0.900   0.908   0.909
  0.918   0.940   0.953   0.954   0.967   0.970   0.975   0.980
  1.018   1.020   1.029   1.038   1.038   1.052   1.059   1.082
  1.083   1.092   1.102   1.108   1.157   1.176   1.187   1.217
  1.232   1.278   1.283   1.294   1.297   1.310   1.321   1.334
  1.352   1.364   1.379   1.399   1.424   1.426   1.436   1.473
  1.493   1.504   1.517   1.533   1.540   1.571   1.574   1.574
  1.587   1.606   1.613   1.645   1.659   1.662   1.670   1.703
  1.718   1.743   1.747   1.769   1.799   1.872   1.924   1.929
  1.942   1.965   2.003   2.004   2.033   2.036   2.051   2.087
  2.093   2.094   2.123   2.141   2.185   2.278   2.395   2.460
  2.487   2.571   2.693   2.783   2.790   2.790   2.855   2.883
  2.900   2.922   2.952   2.965   2.980   2.985   3.010   3.029
  3.046   3.049   3.051   3.078   3.085   3.101   3.126   3.138
  3.146   3.149   3.165   3.192   3.201   3.203   3.228   3.307
  3.326   3.327   3.346   3.383   3.404   3.435   3.437   3.452
  3.457   3.462   3.472   3.485   3.487   3.520   3.525   3.537
  3.575   3.598   3.619   3.623   3.633   3.644   3.650   3.656
  3.674   3.680   3.715   3.723   3.746   3.748   3.783   3.805
  3.825   3.842   3.871   3.877   3.920   3.922   3.937   3.966
  3.977   3.991   4.003   4.015   4.049   4.126   4.136   4.140
  4.143   4.143   4.170   4.188   4.204   4.224   4.224   4.233
  4.244   4.253   4.310   4.317   4.339   4.387   4.421   4.495
  4.509   4.541   4.565   4.587   4.603   4.616   4.628   4.653
  4.654   4.667   4.686   4.703   4.729   4.755   4.768   4.769
  4.789   4.854   4.908   4.934   4.939   5.042   5.052   5.067
  5.096   5.140   5.192   5.193   5.211   5.258   5.357   5.378
  5.384   5.421   5.454   5.454   5.475   5.514   5.517   5.581
  5.594   5.650   5.796   5.807   5.829   5.898   5.901   6.036
  6.050   6.050   6.121   6.206   6.286   6.536   6.591   6.600
  6.647   6.744  24.083  24.629  24.657  24.899  24.911  25.394
 27.426  27.592  27.597  27.667  27.690  27.898  28.125  28.245
 28.260  28.412  28.437  28.439  28.671  28.691  28.765  28.790
 28.825  29.342  36.067  36.091  37.715  37.722  38.414  38.424
 38.595  38.687  40.648  40.652  40.720  40.722  40.818  40.820
 40.842  40.845  40.926  40.929  41.008  41.014  41.077  41.081
 41.086  41.088  41.107  41.108  41.148  41.192  41.235  41.253
 41.345  41.358  41.380  41.401  41.416  41.416  41.418  41.435
 41.445  41.453  41.481  41.486  41.539  41.578  41.600  41.619
 41.682  41.709
 --------------------------------------------------------------
 
          Ground-State Mulliken Net Atomic Charges

     Atom                 Charge (a.u.)    Spin (a.u.)
  --------------------------------------------------------
      1 C                    -0.127084       0.275453
      2 C                    -0.118021       0.254222
      3 C                    -0.445136      -0.010446
      4 C                    -0.125792       0.275998
      5 C                    -0.116229       0.254584
      6 C                    -0.442814      -0.010696
      7 H                     0.098904      -0.016501
      8 H                     0.099173      -0.015762
      9 H                     0.099044      -0.016530
     10 H                     0.099079      -0.015785
     11 H                     0.164259       0.010296
     12 H                     0.167132       0.007164
     13 H                     0.164089       0.010504
     14 H                     0.167304       0.007025
     15 N                    -0.342006      -0.004775
     16 N                    -0.341903      -0.004749
  --------------------------------------------------------
  Sum of atomic charges =    -1.000000
  Sum of spin   charges =     1.000000

 -----------------------------------------------------------------
                    Cartesian Multipole Moments
 -----------------------------------------------------------------
    Charge (ESU x 10^10)
                -4.8032
    Dipole Moment (Debye)
         X    -128.2389      Y    -117.7399      Z    -120.7973
       Tot     211.8959
    Quadrupole Moments (Debye-Ang)
        XX   -3489.1648     XY   -3145.1783     YY   -2945.6768
        XZ   -3219.3248     YZ   -2959.6764     ZZ   -3095.4858
    Octapole Moments (Debye-Ang^2)
       XXX  -96646.1650    XXY  -85619.2110    XYY  -78728.1524
       YYY  -75125.9826    XXZ  -87440.6901    XYZ  -78919.6029
       YYZ  -74013.0398    XZZ  -82353.7274    YZZ  -75808.5140
       ZZZ  -80742.3877
    Hexadecapole Moments (Debye-Ang^3)
      XXXX ************   XXXY ************   XXYY ************
      XYYY ************   YYYY ************   XXXZ ************
      XXYZ ************   XYYZ ************   YYYZ ************
      XXZZ ************   XYZZ ************   YYZZ ************
      XZZZ ************   YZZZ ************   ZZZZ ************
 -----------------------------------------------------------------
 Total job time:  2364.99s(wall), 2362.21s(cpu) 
 Tue Apr 12 12:48:22 2011

        *************************************************************
        *                                                           *
        *  Thank you very much for using Q-Chem.  Have a nice day.  *
        *                                                           *
        *************************************************************


0 sent ACK to 0 
now end server 0 ... 
 
**********************************************************************
Job 2 of 3 
**********************************************************************
 
Process 0 of 1 is on cl052.dal.acenet.ca - thread support 1
initial socket setup ...start
initial socket setup ...done 
now start server 0 ... 

cmd = /usr/bin/ssh glooscap.ace-net.ca /usr/local/qchem/bin/get_hostid 641727376 > /tmp/179722.1.long.q/qchem1609/lic.dat
                  Welcome to Q-Chem
     A Quantum Leap Into The Future Of Chemistry

 Y. Shao, L. Fusti-Molnar, Y. Jung, J. Kussmann, C. Ochsenfeld,
 S. T. Brown, A. T. B. Gilbert, L. V. Slipchenko,S. V. Levchenko,
 D. P. O'Neill, R. A. DiStasio Jr., R. C. Lochan, T. Wang,
 G. J. O. Beran, N. A. Besley, J. M. Herbert, C. Y. Lin,
 T. Van Voorhis, S. H. Chien, A. Sodt, R. P. Steele, 
 V. A. Rassolov, P. E. Maslen, P. P. Korambath, R. D. Adamson,
 B. Austin, J. Baker, E. F. C. Byrd, H. Dachsel, R. J. Doerksen,
 A. Dreuw, B. D. Dunietz, A. D. Dutoi, T. R. Furlani,
 S. R. Gwaltney, A. Heyden, S. Hirata, C.-P. Hsu, G. Kedziora,
 R. Z. Khaliullin, P. Klunzinger, A. M. Lee, M. S. Lee, W. Liang,
 I. Lotan, N. Nair, B. Peters, E. I. Proynov, P. A. Pieniazek, 
 Y. M. Rhee, J. Ritchie, E. Rosta, C. D. Sherrill, 
 A. C. Simmonett, J. E. Subotnik, H. L. Woodcock III,
 W. Zhang, A. T. Bell, A. K. Chakraborty, D. M. Chipman,
 F. J. Keil, A. Warshel, W. J. Hehre, H. F. Schaefer III,
 J. Kong, A. I. Krylov, P. M. W. Gill, M. Head-Gordon,
 Q-Chem, Version 3.1, Q-Chem, Inc., Pittsburgh, PA (2007).

 Additional authors for Version 3.1: 
 Z. Gan, Y. Zhao, N. E. Schultz, D. Truhlar, E. Epifanovsky and M. Oana.

 Additional authors for Version 3.2: 
 R. Baer, B. R. Brooks, D. Casanova, J.-D. Chai, C.-L. Cheng, 
 C. Cramer, D. Crittenden, A. Ghysels, G. Hawkins, E. G. Hohenstein, 
 C. Kelley, W. Kurlancheek, D. Liotard, E. Livshits, P. Manohar, 
 A. Marenich, D. Neuhauser, R. Olson, M. A. Rohrdanz, K. S. Thanthiriwatte, 
 A. J. W. Thom, V. Vanovschi, C. F. Williams, Q. Wu and Z.-Q. You. 


 Intel X86 Linux Version

 Q-chem begins on Tue Apr 12 12:48:44 2011  

 Parallel job on  1  processors
Processing $rem in /usr/local/qchem/config/preferences.

theFileMan(): MAXOPENFILES=974 MAX_SUB_FILE_NUM=16
Maximum size of a physical file is 2.0 GB, maximum size of a tmp-file is 32.0 GB


--------------------------------------------------------------
User input:
--------------------------------------------------------------

$molecule
0,1
 C        27.589041       23.466286       25.344061
 C        26.339153       23.225647       24.775341
 C        25.423603       24.268255       24.563448
 C        25.808182       25.560291       24.954315
 C        27.058195       25.800951       25.523088
 C        27.973625       24.758410       25.735035
 H        28.281313       22.632208       25.481283
 H        26.068596       22.204544       24.496038
 H        25.116135       26.394463       24.817167
 H        27.328890       26.822035       25.802298
 H        23.708551       24.814869       23.583281
 H        24.079388       23.185360       23.458334
 H        29.688467       24.211771       26.715748
 H        29.317875       25.841635       26.839811
 N        29.254854       25.009876       26.258593
 N        24.142208       24.016731       24.040218

$end

$comment
neutral
$end

$xc_functional
   X HF 1.0
   X BNL 1.0
   C LYP 1.0
$end

$rem
SYMMETRY_DECOMPOSITION	0
exchange 		general
BASIS                   g3large
omega			270
separate_jk		true
mem_static              760
max_scf_cycles          200
scf_final_print         1
sym_ignore              true
$end

--------------------------------------------------------------
 Writing REM_CC_EA           16
 ----------------------------------------------------
       Standard Nuclear Orientation (Angstroms)
    I     Atom         X            Y            Z
 ----------------------------------------------------
    1      C      27.589041    23.466286    25.344061
    2      C      26.339153    23.225647    24.775341
    3      C      25.423603    24.268255    24.563448
    4      C      25.808182    25.560291    24.954315
    5      C      27.058195    25.800951    25.523088
    6      C      27.973625    24.758410    25.735035
    7      H      28.281313    22.632208    25.481283
    8      H      26.068596    22.204544    24.496038
    9      H      25.116135    26.394463    24.817167
   10      H      27.328890    26.822035    25.802298
   11      H      23.708551    24.814869    23.583281
   12      H      24.079388    23.185360    23.458334
   13      H      29.688467    24.211771    26.715748
   14      H      29.317875    25.841635    26.839811
   15      N      29.254854    25.009876    26.258593
   16      N      24.142208    24.016731    24.040218
 ----------------------------------------------------
 Nuclear Repulsion Energy =   343.5292271490 hartrees
 There are       29 alpha and       29 beta electrons
 Requested basis set is G3large
 There are 128 shells and 416 basis functions

Total QAlloc Memory Limit   2000 MB
Mega-Array Size       743 MB
MEM_STATIC part       760 MB
 A cutoff of  1.0D-08 yielded   6560 shell pairs
 There are  69931 function pairs ( 87060 Cartesian)
Evaluating contribution to one-electron hamiltonian from nuclear
 Smallest overlap matrix eigenvalue = 7.44E-07

 Q-Chem warning in module mkSTV.C, line 194:

 Overlap eigenvalue is smaller than square root of threshold

 Linear dependence detected in AO basis
 Number of orthogonalized atomic orbitals = 415
 Maximum deviation from orthogonality = 1.050E-10
 Multipole matrices computed through 2nd order

  Scale SEOQF with 1.000000e-03/1.000000e-03/1.000000e-03

 Standard Electronic Orientation quadrupole field applied
 Nucleus-field energy     =     0.0000000004 hartrees
 Guess from superposition of atomic densities
 Warning:  Energy on first SCF cycle will be non-variational
 A restricted hybrid HF-DFT SCF calculation will be
 performed using Pulay DIIS extrapolation
 Exchange:     1.0000 Hartree-Fock + 1.0000 BNL
 Correlation:  1.0000 LYP
 Using SG-1 standard quadrature grid
 SCF converges when DIIS error is below 1.0E-05
 ---------------------------------------
  Cycle       Energy         DIIS Error
 ---------------------------------------
    1    -341.2331929928      2.47E-02
    2    -338.7228519136      2.35E-03
    3    -338.7862510356      1.78E-03
    4    -338.8451616022      2.16E-04
    5    -338.8460719928      8.11E-05
    6    -338.8462128740      4.17E-05
    7    -338.8462348954      5.94E-06 Convergence criterion met
 ---------------------------------------
 One-Electron    Energy = -1142.9066945363
 Total Coulomb   Energy =   505.4625602285
 Alpha Exchange  Energy =    -4.1210733146
 Beta  Exchange  Energy =    -4.1210733146
 DFT   Exchange  Energy =   -34.7338253471
 DFT Correlation Energy =    -1.9553557607
 Nuclear Repu.   Energy =   343.5292271494
 Nuclear Attr.   Energy = -1480.0322068290
 Kinetic         Energy =   337.1255122928
 SCF time:  CPU 752.08 s  wall 753.13 s
 Final Alpha MO Eigenvalues
            1           2           3           4           5           6
    1 -13.9740211 -13.9740095  -9.9340542  -9.9339651  -9.8971716  -9.8970618
            7           8           9          10          11          12
    1  -9.8966869  -9.8966204  -0.9783924  -0.9682381  -0.8869165  -0.8111168
           13          14          15          16          17          18
    1  -0.7761881  -0.6929762  -0.6675309  -0.6046479  -0.6019919  -0.5689769
           19          20          21          22          23          24
    1  -0.5516559  -0.5079101  -0.4943155  -0.4833804  -0.4814904  -0.4614626
           25          26          27          28          29          30
    1  -0.4267231  -0.4091690  -0.3542309  -0.3328727  -0.2568109   0.0274009
           31          32          33          34
    1   0.0316134   0.0393375   0.0526745   0.0540383
 Analysis of SCF Wavefunction
 
 --------------------------------------------------------------
                    Orbital Energies (a.u.)
 --------------------------------------------------------------
 
 Alpha MOs
 -- Occupied --
-13.974 -13.974  -9.934  -9.934  -9.897  -9.897  -9.897  -9.897
 -0.978  -0.968  -0.887  -0.811  -0.776  -0.693  -0.668  -0.605
 -0.602  -0.569  -0.552  -0.508  -0.494  -0.483  -0.481  -0.461
 -0.427  -0.409  -0.354  -0.333  -0.257
 -- Virtual --
  0.027   0.032   0.039   0.053   0.054   0.055   0.073   0.086
  0.086   0.100   0.109   0.124   0.129   0.132   0.138   0.144
  0.154   0.157   0.166   0.169   0.172   0.179   0.192   0.193
  0.201   0.202   0.208   0.216   0.221   0.223   0.224   0.235
  0.241   0.251   0.257   0.270   0.275   0.280   0.282   0.291
  0.296   0.303   0.310   0.322   0.342   0.344   0.349   0.351
  0.356   0.365   0.367   0.383   0.426   0.439   0.448   0.457
  0.518   0.552   0.565   0.593   0.593   0.596   0.604   0.606
  0.611   0.624   0.635   0.657   0.665   0.666   0.674   0.677
  0.691   0.710   0.726   0.727   0.734   0.738   0.742   0.744
  0.760   0.762   0.772   0.797   0.797   0.799   0.812   0.817
  0.846   0.854   0.874   0.874   0.876   0.876   0.887   0.904
  0.914   0.917   0.918   0.933   0.998   1.018   1.021   1.047
  1.073   1.103   1.120   1.124   1.125   1.140   1.156   1.164
  1.169   1.195   1.216   1.229   1.255   1.262   1.265   1.295
  1.317   1.332   1.345   1.358   1.374   1.395   1.398   1.404
  1.414   1.430   1.430   1.481   1.488   1.491   1.492   1.535
  1.562   1.570   1.577   1.600   1.628   1.690   1.752   1.764
  1.766   1.804   1.820   1.830   1.853   1.868   1.887   1.911
  1.924   1.925   1.964   1.965   2.003   2.092   2.211   2.285
  2.310   2.396   2.508   2.591   2.608   2.611   2.664   2.690
  2.707   2.722   2.769   2.788   2.797   2.802   2.829   2.838
  2.856   2.857   2.862   2.887   2.888   2.907   2.935   2.937
  2.944   2.953   2.973   2.993   3.006   3.013   3.040   3.120
  3.136   3.139   3.157   3.186   3.218   3.244   3.249   3.258
  3.263   3.266   3.279   3.289   3.291   3.330   3.335   3.353
  3.388   3.403   3.432   3.440   3.452   3.459   3.468   3.477
  3.488   3.499   3.522   3.536   3.565   3.569   3.595   3.618
  3.636   3.663   3.694   3.694   3.733   3.736   3.755   3.784
  3.801   3.804   3.817   3.836   3.876   3.951   3.952   3.955
  3.958   3.959   3.987   4.004   4.038   4.041   4.045   4.054
  4.058   4.063   4.145   4.150   4.152   4.196   4.237   4.313
  4.320   4.353   4.388   4.403   4.416   4.431   4.442   4.461
  4.473   4.474   4.495   4.517   4.543   4.563   4.568   4.592
  4.602   4.684   4.738   4.748   4.753   4.858   4.871   4.887
  4.910   4.968   5.010   5.013   5.024   5.075   5.175   5.199
  5.208   5.260   5.286   5.288   5.312   5.338   5.343   5.404
  5.427   5.477   5.621   5.624   5.651   5.733   5.735   5.843
  5.863   5.880   5.940   6.017   6.108   6.373   6.434   6.444
  6.477   6.552  23.880  24.420  24.461  24.702  24.707  25.194
 27.222  27.379  27.403  27.474  27.477  27.694  27.926  28.046
 28.064  28.208  28.234  28.241  28.470  28.489  28.561  28.590
 28.628  29.142  35.908  35.932  37.557  37.563  38.256  38.266
 38.436  38.528  40.489  40.493  40.561  40.563  40.659  40.661
 40.683  40.686  40.767  40.770  40.814  40.823  40.867  40.874
 40.878  40.884  40.901  40.914  40.943  40.989  41.036  41.050
 41.154  41.156  41.188  41.196  41.205  41.207  41.210  41.226
 41.249  41.259  41.285  41.285  41.334  41.372  41.392  41.411
 41.483  41.510
 --------------------------------------------------------------
 
          Ground-State Mulliken Net Atomic Charges

     Atom                 Charge (a.u.)
  ----------------------------------------
      1 C                     0.008228
      2 C                     0.013639
      3 C                    -0.422163
      4 C                     0.007886
      5 C                     0.013311
      6 C                    -0.420905
      7 H                     0.158809
      8 H                     0.158643
      9 H                     0.158830
     10 H                     0.158560
     11 H                     0.195627
     12 H                     0.195665
     13 H                     0.195648
     14 H                     0.195659
     15 N                    -0.308741
     16 N                    -0.308697
  ----------------------------------------
  Sum of atomic charges =     0.000000

 -----------------------------------------------------------------
                    Cartesian Multipole Moments
 -----------------------------------------------------------------
    Charge (ESU x 10^10)
                 0.0000
    Dipole Moment (Debye)
         X       0.0010      Y       0.0005      Z      -0.0003
       Tot       0.0012
    Quadrupole Moments (Debye-Ang)
        XX     -47.0866     XY      -1.8948     YY     -42.9246
        XZ      10.9840     YZ       2.7990     ZZ     -46.1753
    Octapole Moments (Debye-Ang^2)
       XXX   -3773.6000    XXY   -1257.1213    XYY   -1240.2197
       YYY   -3157.6240    XXZ    -598.8414    XYZ     295.5290
       YYZ    -942.7858    XZZ    -680.6083    YZZ    -991.1249
       ZZZ   -3483.3025
    Hexadecapole Moments (Debye-Ang^3)
      XXXX -202380.3305   XXXY  -96706.0541   XXYY  -64123.5433
      XYYY  -87807.3969   YYYY -155141.1336   XXXZ  -71538.4374
      XXYZ  -15283.2784   XYYZ  -20983.0203   YYYZ  -74407.7308
      XXZZ  -33357.7323   XYZZ  -14148.8171   YYZZ  -48096.5643
      XZZZ  -72312.0652   YZZZ  -80115.4279   ZZZZ -175409.5846
 -----------------------------------------------------------------
 Total job time:  754.54s(wall), 753.46s(cpu) 
 Tue Apr 12 13:01:18 2011

        *************************************************************
        *                                                           *
        *  Thank you very much for using Q-Chem.  Have a nice day.  *
        *                                                           *
        *************************************************************


0 sent ACK to 0 
now end server 0 ... 
 
**********************************************************************
Job 3 of 3 
**********************************************************************
 
Process 0 of 1 is on cl052.dal.acenet.ca - thread support 1
initial socket setup ...start
initial socket setup ...done 
now start server 0 ... 

cmd = /usr/bin/ssh glooscap.ace-net.ca /usr/local/qchem/bin/get_hostid 1933559522 > /tmp/179722.1.long.q/qchem1609/lic.dat
                  Welcome to Q-Chem
     A Quantum Leap Into The Future Of Chemistry

 Y. Shao, L. Fusti-Molnar, Y. Jung, J. Kussmann, C. Ochsenfeld,
 S. T. Brown, A. T. B. Gilbert, L. V. Slipchenko,S. V. Levchenko,
 D. P. O'Neill, R. A. DiStasio Jr., R. C. Lochan, T. Wang,
 G. J. O. Beran, N. A. Besley, J. M. Herbert, C. Y. Lin,
 T. Van Voorhis, S. H. Chien, A. Sodt, R. P. Steele, 
 V. A. Rassolov, P. E. Maslen, P. P. Korambath, R. D. Adamson,
 B. Austin, J. Baker, E. F. C. Byrd, H. Dachsel, R. J. Doerksen,
 A. Dreuw, B. D. Dunietz, A. D. Dutoi, T. R. Furlani,
 S. R. Gwaltney, A. Heyden, S. Hirata, C.-P. Hsu, G. Kedziora,
 R. Z. Khaliullin, P. Klunzinger, A. M. Lee, M. S. Lee, W. Liang,
 I. Lotan, N. Nair, B. Peters, E. I. Proynov, P. A. Pieniazek, 
 Y. M. Rhee, J. Ritchie, E. Rosta, C. D. Sherrill, 
 A. C. Simmonett, J. E. Subotnik, H. L. Woodcock III,
 W. Zhang, A. T. Bell, A. K. Chakraborty, D. M. Chipman,
 F. J. Keil, A. Warshel, W. J. Hehre, H. F. Schaefer III,
 J. Kong, A. I. Krylov, P. M. W. Gill, M. Head-Gordon,
 Q-Chem, Version 3.1, Q-Chem, Inc., Pittsburgh, PA (2007).

 Additional authors for Version 3.1: 
 Z. Gan, Y. Zhao, N. E. Schultz, D. Truhlar, E. Epifanovsky and M. Oana.

 Additional authors for Version 3.2: 
 R. Baer, B. R. Brooks, D. Casanova, J.-D. Chai, C.-L. Cheng, 
 C. Cramer, D. Crittenden, A. Ghysels, G. Hawkins, E. G. Hohenstein, 
 C. Kelley, W. Kurlancheek, D. Liotard, E. Livshits, P. Manohar, 
 A. Marenich, D. Neuhauser, R. Olson, M. A. Rohrdanz, K. S. Thanthiriwatte, 
 A. J. W. Thom, V. Vanovschi, C. F. Williams, Q. Wu and Z.-Q. You. 


 Intel X86 Linux Version

 Q-chem begins on Tue Apr 12 13:01:40 2011  

 Parallel job on  1  processors
Processing $rem in /usr/local/qchem/config/preferences.

theFileMan(): MAXOPENFILES=974 MAX_SUB_FILE_NUM=16
Maximum size of a physical file is 2.0 GB, maximum size of a tmp-file is 32.0 GB


--------------------------------------------------------------
User input:
--------------------------------------------------------------

$molecule
1,2
 C        27.589041       23.466286       25.344061
 C        26.339153       23.225647       24.775341
 C        25.423603       24.268255       24.563448
 C        25.808182       25.560291       24.954315
 C        27.058195       25.800951       25.523088
 C        27.973625       24.758410       25.735035
 H        28.281313       22.632208       25.481283
 H        26.068596       22.204544       24.496038
 H        25.116135       26.394463       24.817167
 H        27.328890       26.822035       25.802298
 H        23.708551       24.814869       23.583281
 H        24.079388       23.185360       23.458334
 H        29.688467       24.211771       26.715748
 H        29.317875       25.841635       26.839811
 N        29.254854       25.009876       26.258593
 N        24.142208       24.016731       24.040218

$end

$comment
positive
$end

$xc_functional
   X HF 1.0
   X BNL 1.0
   C LYP 1.0
$end

$rem
SYMMETRY_DECOMPOSITION	0
exchange 		general
BASIS                   g3large
omega			270
separate_jk		true
mem_static              760
max_scf_cycles          200
scf_final_print         1
sym_ignore              true
$end

--------------------------------------------------------------
 Writing REM_CC_EA           16
 ----------------------------------------------------
       Standard Nuclear Orientation (Angstroms)
    I     Atom         X            Y            Z
 ----------------------------------------------------
    1      C      27.589041    23.466286    25.344061
    2      C      26.339153    23.225647    24.775341
    3      C      25.423603    24.268255    24.563448
    4      C      25.808182    25.560291    24.954315
    5      C      27.058195    25.800951    25.523088
    6      C      27.973625    24.758410    25.735035
    7      H      28.281313    22.632208    25.481283
    8      H      26.068596    22.204544    24.496038
    9      H      25.116135    26.394463    24.817167
   10      H      27.328890    26.822035    25.802298
   11      H      23.708551    24.814869    23.583281
   12      H      24.079388    23.185360    23.458334
   13      H      29.688467    24.211771    26.715748
   14      H      29.317875    25.841635    26.839811
   15      N      29.254854    25.009876    26.258593
   16      N      24.142208    24.016731    24.040218
 ----------------------------------------------------
 Nuclear Repulsion Energy =   343.5292271490 hartrees
 There are       29 alpha and       28 beta electrons
 Requested basis set is G3large
 There are 128 shells and 416 basis functions

Total QAlloc Memory Limit   2000 MB
Mega-Array Size       743 MB
MEM_STATIC part       760 MB
 A cutoff of  1.0D-08 yielded   6560 shell pairs
 There are  69931 function pairs ( 87060 Cartesian)
Evaluating contribution to one-electron hamiltonian from nuclear
 Smallest overlap matrix eigenvalue = 7.44E-07

 Q-Chem warning in module mkSTV.C, line 194:

 Overlap eigenvalue is smaller than square root of threshold

 Linear dependence detected in AO basis
 Number of orthogonalized atomic orbitals = 415
 Maximum deviation from orthogonality = 1.050E-10
 Multipole matrices computed through 2nd order

  Scale SEOQF with 1.000000e-03/1.000000e-03/1.000000e-03

 Standard Electronic Orientation quadrupole field applied
 Nucleus-field energy     =     0.0000000004 hartrees
 Guess from superposition of atomic densities
 Warning:  Energy on first SCF cycle will be non-variational
 An unrestricted hybrid HF-DFT SCF calculation will be
 performed using Pulay DIIS extrapolation
 Exchange:     1.0000 Hartree-Fock + 1.0000 BNL
 Correlation:  1.0000 LYP
 Using SG-1 standard quadrature grid
 SCF converges when DIIS error is below 1.0E-05
 Warning!  Inaccurate integrated density:
   Number of electrons =    57
   Numerical integral  =    58.000897553966
   Relative error      =     1.7559606210 %
 ---------------------------------------
  Cycle       Energy         DIIS Error
 ---------------------------------------
    1    -341.2331929928      2.47E-02
    2    -338.5116251930      1.78E-03
    3    -338.5630327542      1.08E-03
    4    -338.5839325938      3.03E-04
    5    -338.5859014644      1.06E-04
    6    -338.5861510375      3.74E-05
    7    -338.5862020370      1.15E-05
    8    -338.5862066697      4.74E-06 Convergence criterion met
 ---------------------------------------
 One-Electron    Energy = -1131.3214528458
 Total Coulomb   Energy =   493.8181015957
 Alpha Exchange  Energy =    -4.1305992324
 Beta  Exchange  Energy =    -3.9797875284
 DFT   Exchange  Energy =   -34.5786242925
 DFT Correlation Energy =    -1.9230715158
 Nuclear Repu.   Energy =   343.5292271494
 Nuclear Attr.   Energy = -1468.1537503975
 Kinetic         Energy =   336.8322975518
 <S^2> = 0.7654
 SCF time:  CPU 1067.79 s  wall 1069.20 s
 Final Alpha MO Eigenvalues
            1           2           3           4           5           6
    1 -14.1915581 -14.1915265 -10.1538129 -10.1537227 -10.0977217 -10.0976101
            7           8           9          10          11          12
    1 -10.0972634 -10.0971999  -1.1860538  -1.1755489  -1.0922801  -1.0076520
           13          14          15          16          17          18
    1  -0.9853739  -0.8933110  -0.8660918  -0.8009626  -0.8009371  -0.7713678
           19          20          21          22          23          24
    1  -0.7481726  -0.7003038  -0.6940213  -0.6891433  -0.6752587  -0.6634946
           25          26          27          28          29          30
    1  -0.6365676  -0.6031054  -0.5650018  -0.5280757  -0.4719402  -0.1363547
           31          32          33          34
    1  -0.1211974  -0.0956221  -0.0889113  -0.0745790
 Final Beta MO Eigenvalues
            1           2           3           4           5           6
    1 -14.1859948 -14.1859660 -10.1508797 -10.1508022 -10.0968596 -10.0967455
            7           8           9          10          11          12
    1 -10.0964533 -10.0964056  -1.1788106  -1.1676284  -1.0857734  -1.0053932
           13          14          15          16          17          18
    1  -0.9740890  -0.8890386  -0.8618460  -0.7979224  -0.7971791  -0.7660742
           19          20          21          22          23          24
    1  -0.7434056  -0.6968963  -0.6900655  -0.6750308  -0.6740323  -0.6555414
           25          26          27          28          29          30
    1  -0.6144680  -0.6005229  -0.5252381  -0.5188583  -0.2633854  -0.1223803
           31          32          33
    1  -0.0989054  -0.0951453  -0.0861926
 Analysis of SCF Wavefunction
 
 --------------------------------------------------------------
                    Orbital Energies (a.u.)
 --------------------------------------------------------------
 
 Alpha MOs
 -- Occupied --
-14.192 -14.192 -10.154 -10.154 -10.098 -10.098 -10.097 -10.097
 -1.186  -1.176  -1.092  -1.008  -0.985  -0.893  -0.866  -0.801
 -0.801  -0.771  -0.748  -0.700  -0.694  -0.689  -0.675  -0.663
 -0.637  -0.603  -0.565  -0.528  -0.472
 -- Virtual --
 -0.136  -0.121  -0.096  -0.089  -0.075  -0.062  -0.055  -0.040
 -0.031  -0.027  -0.018  -0.011  -0.008   0.004   0.004   0.017
  0.029   0.031   0.034   0.041   0.042   0.046   0.049   0.052
  0.062   0.072   0.074   0.077   0.082   0.091   0.093   0.094
  0.100   0.108   0.123   0.125   0.133   0.135   0.145   0.155
  0.158   0.162   0.166   0.172   0.180   0.194   0.199   0.202
  0.209   0.215   0.217   0.224   0.271   0.272   0.277   0.283
  0.351   0.364   0.397   0.414   0.417   0.421   0.434   0.436
  0.437   0.451   0.452   0.487   0.492   0.492   0.498   0.509
  0.522   0.530   0.543   0.551   0.564   0.569   0.572   0.573
  0.585   0.592   0.602   0.619   0.622   0.625   0.628   0.652
  0.671   0.674   0.690   0.696   0.701   0.707   0.712   0.721
  0.728   0.735   0.742   0.757   0.824   0.838   0.846   0.869
  0.893   0.921   0.944   0.944   0.946   0.961   0.975   0.988
  0.991   1.018   1.045   1.048   1.072   1.084   1.092   1.110
  1.130   1.154   1.158   1.177   1.193   1.212   1.218   1.219
  1.230   1.245   1.246   1.303   1.305   1.310   1.311   1.360
  1.384   1.402   1.403   1.415   1.443   1.502   1.566   1.575
  1.578   1.616   1.635   1.643   1.663   1.678   1.696   1.724
  1.734   1.734   1.769   1.775   1.820   1.903   2.017   2.092
  2.118   2.209   2.306   2.385   2.417   2.418   2.471   2.499
  2.512   2.521   2.578   2.591   2.595   2.612   2.634   2.641
  2.656   2.660   2.670   2.688   2.689   2.707   2.736   2.739
  2.746   2.749   2.766   2.790   2.801   2.813   2.833   2.923
  2.938   2.938   2.957   2.985   3.015   3.045   3.045   3.055
  3.065   3.066   3.082   3.092   3.094   3.132   3.139   3.151
  3.183   3.204   3.229   3.246   3.256   3.258   3.272   3.274
  3.290   3.301   3.328   3.341   3.367   3.370   3.396   3.415
  3.441   3.466   3.492   3.496   3.534   3.539   3.551   3.587
  3.601   3.607   3.613   3.635   3.681   3.743   3.745   3.758
  3.763   3.770   3.787   3.809   3.836   3.846   3.849   3.857
  3.862   3.867   3.949   3.954   3.959   4.015   4.053   4.120
  4.122   4.157   4.192   4.207   4.228   4.237   4.239   4.260
  4.269   4.279   4.295   4.323   4.339   4.367   4.370   4.386
  4.409   4.481   4.542   4.547   4.552   4.652   4.672   4.687
  4.710   4.759   4.813   4.816   4.825   4.873   4.969   4.997
  5.002   5.048   5.076   5.077   5.100   5.138   5.140   5.205
  5.220   5.269   5.421   5.424   5.447   5.527   5.529   5.655
  5.662   5.675   5.739   5.813   5.913   6.171   6.236   6.247
  6.274   6.352  23.675  24.219  24.251  24.493  24.501  24.986
 27.014  27.178  27.188  27.258  27.276  27.486  27.718  27.838
 27.854  28.005  28.030  28.033  28.265  28.285  28.359  28.385
 28.420  28.936  35.691  35.715  37.335  37.342  38.041  38.051
 38.221  38.313  40.268  40.273  40.342  40.344  40.437  40.439
 40.464  40.467  40.551  40.555  40.600  40.607  40.665  40.669
 40.675  40.676  40.695  40.702  40.739  40.783  40.826  40.843
 40.938  40.948  40.972  40.991  41.003  41.004  41.005  41.023
 41.038  41.045  41.074  41.079  41.130  41.169  41.190  41.209
 41.275  41.303
 
 Beta MOs
 -- Occupied --
-14.186 -14.186 -10.151 -10.151 -10.097 -10.097 -10.096 -10.096
 -1.179  -1.168  -1.086  -1.005  -0.974  -0.889  -0.862  -0.798
 -0.797  -0.766  -0.743  -0.697  -0.690  -0.675  -0.674  -0.656
 -0.614  -0.601  -0.525  -0.519
 -- Virtual --
 -0.263  -0.122  -0.099  -0.095  -0.086  -0.074  -0.062  -0.055
 -0.040  -0.030  -0.026  -0.018  -0.009  -0.007   0.005   0.005
  0.017   0.030   0.032   0.035   0.043   0.043   0.047   0.052
  0.054   0.065   0.074   0.074   0.078   0.085   0.092   0.094
  0.095   0.102   0.109   0.123   0.127   0.136   0.136   0.148
  0.155   0.158   0.164   0.167   0.174   0.182   0.194   0.201
  0.203   0.211   0.217   0.219   0.225   0.272   0.274   0.280
  0.286   0.352   0.369   0.399   0.418   0.420   0.423   0.438
  0.438   0.439   0.452   0.458   0.489   0.495   0.496   0.502
  0.512   0.526   0.535   0.547   0.555   0.567   0.571   0.574
  0.576   0.587   0.595   0.603   0.625   0.625   0.628   0.632
  0.654   0.674   0.677   0.696   0.703   0.704   0.711   0.714
  0.725   0.730   0.738   0.743   0.759   0.825   0.843   0.848
  0.872   0.898   0.924   0.947   0.948   0.948   0.964   0.978
  0.990   0.993   1.020   1.047   1.050   1.076   1.085   1.094
  1.114   1.134   1.155   1.161   1.180   1.196   1.216   1.220
  1.221   1.233   1.248   1.250   1.306   1.309   1.313   1.315
  1.362   1.388   1.403   1.405   1.419   1.446   1.505   1.571
  1.581   1.581   1.622   1.637   1.646   1.668   1.684   1.702
  1.728   1.740   1.740   1.774   1.780   1.822   1.907   2.020
  2.097   2.121   2.211   2.312   2.392   2.421   2.421   2.475
  2.502   2.516   2.527   2.582   2.598   2.599   2.616   2.638
  2.645   2.662   2.665   2.675   2.691   2.692   2.712   2.738
  2.744   2.752   2.755   2.775   2.797   2.809   2.818   2.842
  2.926   2.942   2.943   2.961   2.989   3.020   3.050   3.052
  3.062   3.070   3.070   3.086   3.097   3.098   3.136   3.142
  3.156   3.191   3.207   3.237   3.249   3.260   3.264   3.276
  3.282   3.295   3.305   3.332   3.345   3.374   3.375   3.401
  3.422   3.445   3.472   3.498   3.503   3.540   3.544   3.557
  3.592   3.606   3.612   3.622   3.642   3.686   3.753   3.756
  3.761   3.767   3.772   3.794   3.813   3.842   3.852   3.853
  3.860   3.868   3.870   3.955   3.960   3.961   4.016   4.054
  4.124   4.125   4.161   4.197   4.211   4.230   4.242   4.244
  4.265   4.276   4.282   4.300   4.327   4.346   4.370   4.375
  4.395   4.411   4.489   4.547   4.553   4.556   4.659   4.676
  4.692   4.715   4.768   4.817   4.820   4.830   4.878   4.977
  5.002   5.012   5.063   5.088   5.091   5.116   5.146   5.147
  5.210   5.231   5.281   5.427   5.429   5.454   5.534   5.536
  5.656   5.665   5.681   5.743   5.817   5.917   6.177   6.241
  6.252   6.279   6.355  23.677  24.220  24.254  24.496  24.502
 24.988  27.017  27.180  27.192  27.263  27.277  27.489  27.719
 27.839  27.856  28.006  28.031  28.034  28.266  28.286  28.360
 28.386  28.421  28.937  35.698  35.722  37.345  37.352  38.045
 38.055  38.225  38.317  40.280  40.284  40.352  40.353  40.449
 40.452  40.472  40.476  40.557  40.560  40.604  40.612  40.667
 40.671  40.676  40.678  40.697  40.704  40.741  40.785  40.829
 40.845  40.942  40.951  40.976  40.993  41.005  41.006  41.007
 41.024  41.040  41.048  41.076  41.080  41.131  41.170  41.191
 41.210  41.276  41.304
 --------------------------------------------------------------
 
          Ground-State Mulliken Net Atomic Charges

     Atom                 Charge (a.u.)    Spin (a.u.)
  --------------------------------------------------------
      1 C                     0.063293       0.047282
      2 C                     0.065685       0.041764
      3 C                    -0.366879       0.189463
      4 C                     0.064667       0.047147
      5 C                     0.067658       0.041814
      6 C                    -0.366680       0.189146
      7 H                     0.206390      -0.003262
      8 H                     0.206330      -0.002993
      9 H                     0.206377      -0.003260
     10 H                     0.206331      -0.002991
     11 H                     0.238860      -0.001229
     12 H                     0.238838      -0.001242
     13 H                     0.238888      -0.001229
     14 H                     0.238848      -0.001256
     15 N                    -0.154287       0.230484
     16 N                    -0.154322       0.230361
  --------------------------------------------------------
  Sum of atomic charges =     1.000000
  Sum of spin   charges =     1.000000

 -----------------------------------------------------------------
                    Cartesian Multipole Moments
 -----------------------------------------------------------------
    Charge (ESU x 10^10)
                 4.8032
    Dipole Moment (Debye)
         X     128.2403      Y     117.7433      Z     120.7971
       Tot     211.8986
    Quadrupole Moments (Debye-Ang)
        XX    3401.8392     XY    3144.5499     YY    2853.4167
        XZ    3244.6408     YZ    2965.9494     ZZ    3000.4962
    Octapole Moments (Debye-Ang^2)
       XXX   89648.6380    XXY   83440.7431    XYY   76228.8763
       YYY   68335.1740    XXZ   86594.4728    XYZ   79688.8335
       YYZ   71996.2911    XZZ   81090.2896    YZZ   73793.6335
       ZZZ   73575.9531
    Hexadecapole Moments (Debye-Ang^3)
      XXXX 2345805.0052   XXXY 2199549.5548   XXYY 2023071.9738
      XYYY 1826131.2051   YYYY 1615599.9311   XXXZ 2296272.0305
      XXYZ 2127405.0337   XYYZ 1935063.4002   YYYZ 1727201.0384
      XXZZ 2177190.8713   XYZZ 1994836.6042   YYZZ 1793979.2756
      XZZZ 2001276.9610   YZZZ 1812668.3318   ZZZZ 1779122.5017
 -----------------------------------------------------------------
 Total job time:  1070.63s(wall), 1069.19s(cpu) 
 Tue Apr 12 13:19:31 2011

        *************************************************************
        *                                                           *
        *  Thank you very much for using Q-Chem.  Have a nice day.  *
        *                                                           *
        *************************************************************


0 sent ACK to 0 
now end server 0 ... 
