Process 0 of 1 is on cl124.stfx.acenet.ca - thread support 1
initial socket setup ...start
initial socket setup ...done 
now start server 0 ... 

cmd = /usr/bin/ssh clhead /usr/local/qchem/bin/get_hostid 1965677848 > /scratch/tmp/6062143.1.short.q/qchem10207/lic.dat
                  Welcome to Q-Chem
     A Quantum Leap Into The Future Of Chemistry

 Y. Shao, L. Fusti-Molnar, Y. Jung, J. Kussmann, C. Ochsenfeld,
 S. T. Brown, A. T. B. Gilbert, L. V. Slipchenko,S. V. Levchenko,
 D. P. O'Neill, R. A. DiStasio Jr., R. C. Lochan, T. Wang,
 G. J. O. Beran, N. A. Besley, J. M. Herbert, C. Y. Lin,
 T. Van Voorhis, S. H. Chien, A. Sodt, R. P. Steele, 
 V. A. Rassolov, P. E. Maslen, P. P. Korambath, R. D. Adamson,
 B. Austin, J. Baker, E. F. C. Byrd, H. Dachsel, R. J. Doerksen,
 A. Dreuw, B. D. Dunietz, A. D. Dutoi, T. R. Furlani,
 S. R. Gwaltney, A. Heyden, S. Hirata, C.-P. Hsu, G. Kedziora,
 R. Z. Khaliullin, P. Klunzinger, A. M. Lee, M. S. Lee, W. Liang,
 I. Lotan, N. Nair, B. Peters, E. I. Proynov, P. A. Pieniazek, 
 Y. M. Rhee, J. Ritchie, E. Rosta, C. D. Sherrill, 
 A. C. Simmonett, J. E. Subotnik, H. L. Woodcock III,
 W. Zhang, A. T. Bell, A. K. Chakraborty, D. M. Chipman,
 F. J. Keil, A. Warshel, W. J. Hehre, H. F. Schaefer III,
 J. Kong, A. I. Krylov, P. M. W. Gill, M. Head-Gordon,
 Q-Chem, Version 3.1, Q-Chem, Inc., Pittsburgh, PA (2007).

 Additional authors for Version 3.1: 
 Z. Gan, Y. Zhao, N. E. Schultz, D. Truhlar, E. Epifanovsky and M. Oana.

 Additional authors for Version 3.2: 
 R. Baer, B. R. Brooks, D. Casanova, J.-D. Chai, C.-L. Cheng, 
 C. Cramer, D. Crittenden, A. Ghysels, G. Hawkins, E. G. Hohenstein, 
 C. Kelley, W. Kurlancheek, D. Liotard, E. Livshits, P. Manohar, 
 A. Marenich, D. Neuhauser, R. Olson, M. A. Rohrdanz, K. S. Thanthiriwatte, 
 A. J. W. Thom, V. Vanovschi, C. F. Williams, Q. Wu and Z.-Q. You. 


 Intel X86 Linux Version

 Q-chem begins on Thu Jul  4 23:58:19 2013  

 Parallel job on  1  processors
Processing $rem in /usr/local/qchem/config/preferences.

theFileMan(): MAXOPENFILES=974 MAX_SUB_FILE_NUM=16
Maximum size of a physical file is 2.0 GB, maximum size of a tmp-file is 32.0 GB


--------------------------------------------------------------
User input:
--------------------------------------------------------------

$molecule
0,1
O         -0.00634        0.00000        0.01841
C         -0.00684       -0.00000        1.21897
H          0.95433        0.00000        1.77236
C         -1.23967        0.00000        2.06408
H         -2.13129        0.00000        1.44152
H         -1.23500       -0.87738        2.71445
H         -1.23500        0.87738        2.71445
$end

$comment
neutral
$end

$xc_functional
C PBE   1.00
X wPBE  1.00
$end


$rem
SYMMETRY_DECOMPOSITION	0
LRC_DFT                 true
exchange 		general
BASIS                   g3large
omega			400 
JOBTYPE                 opt
mem_static              760
max_scf_cycles          200
scf_final_print         1
sym_ignore              true
$end


--------------------------------------------------------------
 Writing REM_CC_EA            7
 ----------------------------------------------------
       Standard Nuclear Orientation (Angstroms)
    I     Atom         X            Y            Z
 ----------------------------------------------------
    1      O      -0.006340     0.000000     0.018410
    2      C      -0.006840     0.000000     1.218970
    3      H       0.954330     0.000000     1.772360
    4      C      -1.239670     0.000000     2.064080
    5      H      -2.131290     0.000000     1.441520
    6      H      -1.235000    -0.877380     2.714450
    7      H      -1.235000     0.877380     2.714450
 ----------------------------------------------------
 Nuclear Repulsion Energy =    70.0359546655 hartrees
 There are       12 alpha and       12 beta electrons
 Requested basis set is G3large
 There are 54 shells and 166 basis functions

Total QAlloc Memory Limit   2000 MB
Mega-Array Size       743 MB
MEM_STATIC part       760 MB
 A cutoff of  1.0D-11 yielded   1442 shell pairs
 There are  13670 function pairs ( 16856 Cartesian)
Evaluating contribution to one-electron hamiltonian from nuclear
 Smallest overlap matrix eigenvalue = 1.31E-04
 Multipole matrices computed through 2nd order

  Scale SEOQF with 1.000000e-01/1.000000e-01/1.000000e-01

 Standard Electronic Orientation quadrupole field applied
 Nucleus-field energy     =    -0.0000000051 hartrees
 Guess from superposition of atomic densities
 Warning:  Energy on first SCF cycle will be non-variational
 Long-range K will be added via erf
 Coulomb attenuation parameter = 0.4 bohr**(-1)
 A restricted Kohn-Sham SCF calculation will be
 performed using Pulay DIIS extrapolation
 Exchange:  wPBE + LR-HF      Correlation:  PBE
 Using SG-1 standard quadrature grid
 SCF converges when DIIS error is below 1.0E-08
 Requested basis set is G3large
 There are 54 shells and 166 basis functions
 A cutoff of  1.0D-11 yielded   1442 shell pairs
 There are  13670 function pairs ( 16856 Cartesian)
 ---------------------------------------
  Cycle       Energy         DIIS Error
 ---------------------------------------
    1    -154.3716182899      3.53E-02
    2    -153.6683698982      5.84E-03
    3    -153.6300313872      7.88E-03
    4    -153.7722732583      5.12E-04
    5    -153.7737463976      2.69E-04
    6    -153.7741661422      7.53E-05
    7    -153.7742384667      2.62E-05
    8    -153.7742543018      1.19E-05
    9    -153.7742577984      5.69E-06
   10    -153.7742584764      1.75E-06
   11    -153.7742585595      3.38E-07
   12    -153.7742585318      6.59E-08
   13    -153.7742585311      1.49E-08
   14    -153.7742585314      2.98E-09 Convergence criterion met
 ---------------------------------------
 One-Electron    Energy =  -346.8312874189
 Total Coulomb   Energy =   143.8337831237
 Alpha Exchange  Energy =    -2.4041334699
 Beta  Exchange  Energy =    -2.4041334699
 DFT   Exchange  Energy =   -15.2256032390
 DFT Correlation Energy =    -0.7788387176
 Nuclear Repu.   Energy =    70.0359546604
 Nuclear Attr.   Energy =  -500.0474340630
 Kinetic         Energy =   153.2161466440
 SCF time:  CPU 102.04 s  wall 103.23 s
 Final Alpha MO Eigenvalues
            1           2           3           4           5           6
    1 -18.9622004 -10.1996704 -10.1137641  -1.1907140  -0.9083649  -0.7218803
            7           8           9          10          11          12
    1  -0.6166472  -0.5817378  -0.5685661  -0.5244488  -0.4935977  -0.3794550
           13          14          15          16          17
    1   0.0363792   0.0554017   0.0624969   0.0642678   0.0789467
 Analysis of SCF Wavefunction
 
 --------------------------------------------------------------
                    Orbital Energies (a.u.)
 --------------------------------------------------------------
 
 Alpha MOs
 -- Occupied --
-18.962 -10.200 -10.114  -1.191  -0.908  -0.722  -0.617  -0.582
 -0.569  -0.524  -0.494  -0.379
 -- Virtual --
  0.036   0.055   0.062   0.064   0.079   0.111   0.129   0.139
  0.144   0.155   0.168   0.178   0.195   0.246   0.252   0.265
  0.306   0.331   0.336   0.369   0.386   0.406   0.484   0.511
  0.538   0.572   0.592   0.605   0.644   0.659   0.672   0.680
  0.693   0.755   0.812   0.857   0.862   0.881   0.956   1.043
  1.056   1.101   1.108   1.155   1.194   1.208   1.232   1.266
  1.273   1.296   1.354   1.367   1.430   1.479   1.500   1.516
  1.527   1.594   1.627   1.699   1.784   1.856   2.000   2.079
  2.332   2.496   2.533   2.577   2.636   2.779   2.780   2.852
  2.861   2.984   3.002   3.075   3.118   3.161   3.170   3.215
  3.223   3.226   3.294   3.423   3.453   3.455   3.483   3.543
  3.678   3.688   3.707   3.765   3.896   3.922   3.945   4.052
  4.088   4.145   4.240   4.243   4.311   4.319   4.467   4.522
  4.593   4.606   4.674   4.753   5.085   5.087   5.177   5.179
  5.288   5.502   5.549   5.578   5.733   5.744   5.900   6.379
  6.715   6.919   6.964   7.047   7.299   7.489   7.696  24.214
 24.528  27.282  27.696  28.088  28.105  28.142  28.400  40.842
 40.931  41.010  41.047  41.066  41.137  41.181  41.202  41.266
 41.310  43.710  43.764  43.866  43.947  43.959  45.717  45.825
 46.539  50.052
 --------------------------------------------------------------
 
          Ground-State Mulliken Net Atomic Charges

     Atom                 Charge (a.u.)
  ----------------------------------------
      1 O                    -0.278105
      2 C                     0.093525
      3 H                     0.071993
      4 C                    -0.159927
      5 H                     0.102768
      6 H                     0.084872
      7 H                     0.084872
  ----------------------------------------
  Sum of atomic charges =     0.000000

 -----------------------------------------------------------------
                    Cartesian Multipole Moments
 -----------------------------------------------------------------
    Charge (ESU x 10^10)
                 0.0000
    Dipole Moment (Debye)
         X      -0.5005      Y       0.0000      Z       2.9236
       Tot       2.9662
    Quadrupole Moments (Debye-Ang)
        XX     -17.3773     XY       0.0000     YY     -17.8427
        XZ      -0.8804     YZ       0.0000     ZZ     -14.1147
    Octapole Moments (Debye-Ang^2)
       XXX      25.4452    XXY       0.0000    XYY       8.6117
       YYY       0.0000    XXZ     -20.9641    XYZ       0.0000
       YYZ     -21.2031    XZZ       7.0257    YZZ       0.0000
       ZZZ     -60.8484
    Hexadecapole Moments (Debye-Ang^3)
      XXXX     -98.8410   XXXY       0.0000   XXYY     -21.4982
      XYYY       0.0000   YYYY     -23.5076   XXXZ      57.1995
      XXYZ       0.0000   XYYZ      17.1538   YYYZ       0.0000
      XXZZ     -61.9896   XYZZ       0.0000   YYZZ     -45.4535
      XZZZ      51.6194   YZZZ       0.0000   ZZZZ    -265.7092
 -----------------------------------------------------------------
 Calculating analytic gradient of the SCF energy
 Gradient of AOints
            1           2           3           4           5           6
    1  -1.2751832  -2.5554521  -3.2821653   3.2070341   3.2173879   0.3441893
    2  -0.0000001   0.0000002   0.0000001  -0.0000002  -0.0000000   2.4805105
    3  14.1015443  -6.6374048  -1.6392151  -2.9473761   1.5196050  -2.1985766
            7
    1   0.3441892
    2  -2.4805105
    3  -2.1985766
 Gradient of XC Energy
            1           2           3           4           5           6
    1  -0.0022054   0.0055599   0.1474839   0.0024915  -0.1478808  -0.0027245
    2   0.0000000  -0.0000000  -0.0000000   0.0000000   0.0000000  -0.1359739
    3  -0.4123654   0.2407787   0.0770432  -0.0145378  -0.0987012   0.1038913
            7
    1  -0.0027245
    2   0.1359739
    3   0.1038913
 Gradient of SCF Energy
            1           2           3           4           5           6
    1   0.0000714  -0.0000123   0.0002203  -0.0000946  -0.0001434  -0.0000207
    2   0.0000000  -0.0000000  -0.0000000   0.0000000   0.0000000  -0.0002098
    3  -0.0011744   0.0008029   0.0000781   0.0000854  -0.0001518   0.0001799
            7
    1  -0.0000207
    2   0.0002098
    3   0.0001799
 Max gradient component =       1.174E-03
 RMS gradient           =       3.308E-04
 Gradient time:  CPU 35.52 s  wall 35.74 s
 Geometry Optimization Parameters
   NAtoms,    NIC,     NZ,  NCons,   NDum,   NFix, NCnnct, MaxDiis
        7      35       0       0       0       0       0       0


** GEOMETRY OPTIMIZATION IN DELOCALIZED INTERNAL COORDINATES **
   Searching for a Minimum

   Optimization Cycle:   1

                       Coordinates (Angstroms)
     ATOM              X           Y           Z
    1  O          -0.006340    0.000000    0.018410
    2  C          -0.006840    0.000000    1.218970
    3  H           0.954330    0.000000    1.772360
    4  C          -1.239670    0.000000    2.064080
    5  H          -2.131290    0.000000    1.441520
    6  H          -1.235000   -0.877380    2.714450
    7  H          -1.235000    0.877380    2.714450
   Point Group: c1    Number of degrees of freedom:  15


   Energy is   -153.774258531


 Attempting to Generate Delocalized Internal Coordinates

 13 Hessian modes will be used to form the next step
  Hessian Eigenvalues:
     0.009882    0.077279    0.160000    0.160000    0.160000    0.160000
     0.220000    0.326962    0.329415    0.345650    0.345650    0.351079
     1.045421

 Minimum Search - Taking Simple RFO Step
 Searching for Lamda that Minimizes Along All modes
 Value Taken    Lamda =  -0.00000267
 Step Taken.  Stepsize is  0.002403

                             Maximum     Tolerance    Cnvgd?
         Gradient           0.000909      0.000300      NO
         Displacement       0.001691      0.001200      NO
         Energy change     *********      0.000001      NO


 New Cartesian Coordinates Obtained by Inverse Iteration

 Displacement from previous Coordinates is:  0.003334
 Writing REM_CC_EA            7
 ----------------------------------------------------
       Standard Nuclear Orientation (Angstroms)
    I     Atom         X            Y            Z
 ----------------------------------------------------
    1      O      -0.006789     0.000000     0.019242
    2      C      -0.007040     0.000000     1.219208
    3      H       0.953671     0.000000     1.772647
    4      C      -1.239484     0.000000     2.063757
    5      H      -2.131095     0.000000     1.441724
    6      H      -1.234536    -0.877073     2.713831
    7      H      -1.234537     0.877073     2.713831
 ----------------------------------------------------
 Nuclear Repulsion Energy =    70.0675003656 hartrees
 There are       12 alpha and       12 beta electrons
 Applying Cartesian multipole field
    Component          Value
    ---------          -----
     (2,0,0)        1.00000E-11
     (0,2,0)        2.00000E-11
     (0,0,2)       -3.00000E-11
 Nucleus-field energy     =    -0.0000000051 hartrees
 Requested basis set is G3large
 There are 54 shells and 166 basis functions
 A cutoff of  1.0D-11 yielded   1442 shell pairs
 There are  13670 function pairs ( 16856 Cartesian)
Evaluating contribution to one-electron hamiltonian from nuclear
 Smallest overlap matrix eigenvalue = 1.31E-04
 Multipole matrices computed through 2nd order
 Guess MOs from SCF MO coefficient file
Reading MOs from coefficient file
Reading MOs from coefficient file
 Long-range K will be added via erf
 Coulomb attenuation parameter = 0.4 bohr**(-1)
 A restricted Kohn-Sham SCF calculation will be
 performed using Pulay DIIS extrapolation
 Exchange:  wPBE + LR-HF      Correlation:  PBE
 Using SG-1 standard quadrature grid
 SCF converges when DIIS error is below 1.0E-08
 Requested basis set is G3large
 There are 54 shells and 166 basis functions
 A cutoff of  1.0D-11 yielded   1442 shell pairs
 There are  13670 function pairs ( 16856 Cartesian)
 ---------------------------------------
  Cycle       Energy         DIIS Error
 ---------------------------------------
    1    -153.7746984017      2.99E-05
    2    -153.7742597707      5.01E-06
    3    -153.7742597097      3.51E-06
    4    -153.7742598226      1.21E-06
    5    -153.7742598542      2.67E-07
    6    -153.7742598315      5.13E-08
    7    -153.7742598383      8.61E-09 Convergence criterion met
 ---------------------------------------
 One-Electron    Energy =  -346.8927836446
 Total Coulomb   Energy =   143.8651450028
 Alpha Exchange  Energy =    -2.4042223227
 Beta  Exchange  Energy =    -2.4042223227
 DFT   Exchange  Energy =   -15.2267640081
 DFT Correlation Energy =    -0.7789129035
 Nuclear Repu.   Energy =    70.0675003605
 Nuclear Attr.   Energy =  -500.1146182075
 Kinetic         Energy =   153.2218345629
 SCF time:  CPU 51.45 s  wall 52.03 s
 Final Alpha MO Eigenvalues
            1           2           3           4           5           6
    1 -18.9621145 -10.1994591 -10.1135351  -1.1909988  -0.9085036  -0.7219186
            7           8           9          10          11          12
    1  -0.6167632  -0.5819137  -0.5686660  -0.5244859  -0.4936925  -0.3794108
           13          14          15          16          17
    1   0.0363868   0.0554078   0.0626554   0.0643033   0.0789513
 Analysis of SCF Wavefunction
 
 --------------------------------------------------------------
                    Orbital Energies (a.u.)
 --------------------------------------------------------------
 
 Alpha MOs
 -- Occupied --
-18.962 -10.199 -10.114  -1.191  -0.909  -0.722  -0.617  -0.582
 -0.569  -0.524  -0.494  -0.379
 -- Virtual --
  0.036   0.055   0.063   0.064   0.079   0.111   0.129   0.139
  0.144   0.155   0.168   0.178   0.195   0.246   0.252   0.265
  0.306   0.331   0.336   0.369   0.386   0.406   0.484   0.511
  0.538   0.572   0.592   0.606   0.644   0.660   0.672   0.680
  0.693   0.755   0.812   0.857   0.862   0.881   0.956   1.043
  1.056   1.101   1.108   1.155   1.194   1.208   1.232   1.266
  1.273   1.296   1.355   1.367   1.431   1.479   1.500   1.516
  1.528   1.595   1.627   1.700   1.784   1.856   2.000   2.079
  2.332   2.496   2.533   2.577   2.636   2.779   2.780   2.852
  2.861   2.985   3.002   3.076   3.118   3.160   3.170   3.215
  3.223   3.226   3.294   3.424   3.454   3.455   3.483   3.543
  3.678   3.688   3.706   3.765   3.897   3.923   3.946   4.053
  4.089   4.146   4.241   4.244   4.312   4.320   4.467   4.523
  4.594   4.607   4.675   4.754   5.085   5.088   5.177   5.179
  5.288   5.503   5.550   5.579   5.734   5.746   5.902   6.381
  6.718   6.919   6.964   7.049   7.299   7.489   7.697  24.216
 24.530  27.283  27.698  28.089  28.106  28.143  28.400  40.842
 40.931  41.011  41.048  41.066  41.138  41.181  41.203  41.267
 41.311  43.711  43.764  43.866  43.947  43.959  45.718  45.826
 46.541  50.053
 --------------------------------------------------------------
 
          Ground-State Mulliken Net Atomic Charges

     Atom                 Charge (a.u.)
  ----------------------------------------
      1 O                    -0.278042
      2 C                     0.093762
      3 H                     0.071989
      4 C                    -0.160439
      5 H                     0.102810
      6 H                     0.084960
      7 H                     0.084960
  ----------------------------------------
  Sum of atomic charges =     0.000000

 -----------------------------------------------------------------
                    Cartesian Multipole Moments
 -----------------------------------------------------------------
    Charge (ESU x 10^10)
                 0.0000
    Dipole Moment (Debye)
         X      -0.4998      Y       0.0000      Z       2.9215
       Tot       2.9639
    Quadrupole Moments (Debye-Ang)
        XX     -17.3768     XY       0.0000     YY     -17.8395
        XZ      -0.8791     YZ       0.0000     ZZ     -14.1171
    Octapole Moments (Debye-Ang^2)
       XXX      25.4473    XXY       0.0000    XYY       8.6133
       YYY       0.0000    XXZ     -20.9703    XYZ       0.0000
       YYZ     -21.2046    XZZ       7.0340    YZZ       0.0000
       ZZZ     -60.8685
    Hexadecapole Moments (Debye-Ang^3)
      XXXX     -98.7924   XXXY       0.0000   XXYY     -21.4887
      XYYY       0.0000   YYYY     -23.4947   XXXZ      57.1735
      XXYZ       0.0000   XYYZ      17.1508   YYYZ       0.0000
      XXZZ     -61.9845   XYZZ       0.0000   YYZZ     -45.4464
      XZZZ      51.6285   YZZZ       0.0000   ZZZZ    -265.6941
 -----------------------------------------------------------------
 Calculating analytic gradient of the SCF energy
 Gradient of AOints
            1           2           3           4           5           6
    1  -1.2724174  -2.5620459  -3.2819409   3.2108109   3.2194590   0.3430668
    2   0.0000053  -0.0000088   0.0000022   0.0000008   0.0000001   2.4810077
    3  14.1043908  -6.6420684  -1.6395775  -2.9441247   1.5183069  -2.1984634
            7
    1   0.3430675
    2  -2.4810073
    3  -2.1984637
 Gradient of XC Energy
            1           2           3           4           5           6
    1  -0.0023509   0.0057771   0.1474691   0.0024025  -0.1479699  -0.0026639
    2  -0.0000002   0.0000003  -0.0000001  -0.0000000  -0.0000000  -0.1360089
    3  -0.4124415   0.2409749   0.0770690  -0.0147371  -0.0986465   0.1038906
            7
    1  -0.0026639
    2   0.1360089
    3   0.1038906
 Gradient of SCF Energy
            1           2           3           4           5           6
    1  -0.0000386   0.0000406  -0.0000207  -0.0000055   0.0000045   0.0000098
    2  -0.0000000   0.0000001  -0.0000000  -0.0000000   0.0000000   0.0000059
    3  -0.0000635   0.0001603  -0.0000355  -0.0000199  -0.0000071  -0.0000172
            7
    1   0.0000098
    2  -0.0000059
    3  -0.0000172
 Max gradient component =       1.603E-04
 RMS gradient           =       4.136E-05
 Gradient time:  CPU 35.75 s  wall 35.90 s
 Geometry Optimization Parameters
   NAtoms,    NIC,     NZ,  NCons,   NDum,   NFix, NCnnct, MaxDiis
        7      35       0       0       0       0       0       0

 Cartesian Hessian Update
 Hessian Updated using BFGS Update


** GEOMETRY OPTIMIZATION IN DELOCALIZED INTERNAL COORDINATES **
   Searching for a Minimum

   Optimization Cycle:   2

                       Coordinates (Angstroms)
     ATOM              X           Y           Z
    1  O          -0.006789    0.000000    0.019242
    2  C          -0.007040    0.000000    1.219208
    3  H           0.953671    0.000000    1.772647
    4  C          -1.239484    0.000000    2.063757
    5  H          -2.131095    0.000000    1.441724
    6  H          -1.234536   -0.877073    2.713831
    7  H          -1.234537    0.877073    2.713831
   Point Group: c1    Number of degrees of freedom:  15


   Energy is   -153.774259838

 Hessian Updated using BFGS Update

 12 Hessian modes will be used to form the next step
  Hessian Eigenvalues:
     0.009882    0.009882    0.074324    0.077136    0.157530    0.161281
     0.223807    0.327534    0.338012    0.350076    0.365548    0.981930

 Minimum Search - Taking Simple RFO Step
 Searching for Lamda that Minimizes Along All modes
 Value Taken    Lamda =   0.00000000
 Step Taken.  Stepsize is  0.000485

                             Maximum     Tolerance    Cnvgd?
         Gradient           0.000091      0.000300     YES
         Displacement       0.000266      0.001200     YES
         Energy change     -0.000001      0.000001      NO


                       Distance Matrix (Angstroms)
             O (  1)   C (  2)   H (  3)   C (  4)   H (  5)   H (  6)
   C (  2)  1.199966
   H (  3)  1.999227  1.108720
   C (  4)  2.387378  1.494048  2.212390
   H (  5)  2.556586  2.135678  3.102465  1.087150
   H (  6)  3.088273  2.123653  2.538372  1.091732  1.786429
   H (  7)  3.088273  2.123653  2.538373  1.091732  1.786429  1.754147

 


 ******************************
 **  OPTIMIZATION CONVERGED  **
 ******************************
 Analysis of SCF Wavefunction
 
 --------------------------------------------------------------
                    Orbital Energies (a.u.)
 --------------------------------------------------------------
 
 Alpha MOs
 -- Occupied --
-18.962 -10.199 -10.114  -1.191  -0.909  -0.722  -0.617  -0.582
 -0.569  -0.524  -0.494  -0.379
 -- Virtual --
  0.036   0.055   0.063   0.064   0.079   0.111   0.129   0.139
  0.144   0.155   0.168   0.178   0.195   0.246   0.252   0.265
  0.306   0.331   0.336   0.369   0.386   0.406   0.484   0.511
  0.538   0.572   0.592   0.606   0.644   0.660   0.672   0.680
  0.693   0.755   0.812   0.857   0.862   0.881   0.956   1.043
  1.056   1.101   1.108   1.155   1.194   1.208   1.232   1.266
  1.273   1.296   1.355   1.367   1.431   1.479   1.500   1.516
  1.528   1.595   1.627   1.700   1.784   1.856   2.000   2.079
  2.332   2.496   2.533   2.577   2.636   2.779   2.780   2.852
  2.861   2.985   3.002   3.076   3.118   3.160   3.170   3.215
  3.223   3.226   3.294   3.424   3.454   3.455   3.483   3.543
  3.678   3.688   3.706   3.765   3.897   3.923   3.946   4.053
  4.089   4.146   4.241   4.244   4.312   4.320   4.467   4.523
  4.594   4.607   4.675   4.754   5.085   5.088   5.177   5.179
  5.288   5.503   5.550   5.579   5.734   5.746   5.902   6.381
  6.718   6.919   6.964   7.049   7.299   7.489   7.697  24.216
 24.530  27.283  27.698  28.089  28.106  28.143  28.400  40.842
 40.931  41.011  41.048  41.066  41.138  41.181  41.203  41.267
 41.311  43.711  43.764  43.866  43.947  43.959  45.718  45.826
 46.541  50.053
 --------------------------------------------------------------
 
          Ground-State Mulliken Net Atomic Charges

     Atom                 Charge (a.u.)
  ----------------------------------------
      1 O                    -0.278042
      2 C                     0.093762
      3 H                     0.071989
      4 C                    -0.160439
      5 H                     0.102810
      6 H                     0.084960
      7 H                     0.084960
  ----------------------------------------
  Sum of atomic charges =     0.000000

 -----------------------------------------------------------------
                    Cartesian Multipole Moments
 -----------------------------------------------------------------
    Charge (ESU x 10^10)
                 0.0000
    Dipole Moment (Debye)
         X      -0.4998      Y       0.0000      Z       2.9215
       Tot       2.9639
    Quadrupole Moments (Debye-Ang)
        XX     -17.3768     XY       0.0000     YY     -17.8395
        XZ      -0.8791     YZ       0.0000     ZZ     -14.1171
    Octapole Moments (Debye-Ang^2)
       XXX      25.4473    XXY       0.0000    XYY       8.6133
       YYY       0.0000    XXZ     -20.9703    XYZ       0.0000
       YYZ     -21.2046    XZZ       7.0340    YZZ       0.0000
       ZZZ     -60.8685
    Hexadecapole Moments (Debye-Ang^3)
      XXXX     -98.7924   XXXY       0.0000   XXYY     -21.4887
      XYYY       0.0000   YYYY     -23.4947   XXXZ      57.1735
      XXYZ       0.0000   XYYZ      17.1508   YYYZ       0.0000
      XXZZ     -61.9845   XYZZ       0.0000   YYZZ     -45.4464
      XZZZ      51.6285   YZZZ       0.0000   ZZZZ    -265.6941
 -----------------------------------------------------------------
 Total job time:  227.27s(wall), 225.10s(cpu) 
 Fri Jul  5 00:02:06 2013

        *************************************************************
        *                                                           *
        *  Thank you very much for using Q-Chem.  Have a nice day.  *
        *                                                           *
        *************************************************************


0 sent ACK to 0 
now end server 0 ... 
 
**********************************************************************
Job 2 of 2 
**********************************************************************
 
Process 0 of 1 is on cl124.stfx.acenet.ca - thread support 1
initial socket setup ...start
initial socket setup ...done 
now start server 0 ... 

cmd = /usr/bin/ssh clhead /usr/local/qchem/bin/get_hostid 1813656665 > /scratch/tmp/6062143.1.short.q/qchem10207/lic.dat
                  Welcome to Q-Chem
     A Quantum Leap Into The Future Of Chemistry

 Y. Shao, L. Fusti-Molnar, Y. Jung, J. Kussmann, C. Ochsenfeld,
 S. T. Brown, A. T. B. Gilbert, L. V. Slipchenko,S. V. Levchenko,
 D. P. O'Neill, R. A. DiStasio Jr., R. C. Lochan, T. Wang,
 G. J. O. Beran, N. A. Besley, J. M. Herbert, C. Y. Lin,
 T. Van Voorhis, S. H. Chien, A. Sodt, R. P. Steele, 
 V. A. Rassolov, P. E. Maslen, P. P. Korambath, R. D. Adamson,
 B. Austin, J. Baker, E. F. C. Byrd, H. Dachsel, R. J. Doerksen,
 A. Dreuw, B. D. Dunietz, A. D. Dutoi, T. R. Furlani,
 S. R. Gwaltney, A. Heyden, S. Hirata, C.-P. Hsu, G. Kedziora,
 R. Z. Khaliullin, P. Klunzinger, A. M. Lee, M. S. Lee, W. Liang,
 I. Lotan, N. Nair, B. Peters, E. I. Proynov, P. A. Pieniazek, 
 Y. M. Rhee, J. Ritchie, E. Rosta, C. D. Sherrill, 
 A. C. Simmonett, J. E. Subotnik, H. L. Woodcock III,
 W. Zhang, A. T. Bell, A. K. Chakraborty, D. M. Chipman,
 F. J. Keil, A. Warshel, W. J. Hehre, H. F. Schaefer III,
 J. Kong, A. I. Krylov, P. M. W. Gill, M. Head-Gordon,
 Q-Chem, Version 3.1, Q-Chem, Inc., Pittsburgh, PA (2007).

 Additional authors for Version 3.1: 
 Z. Gan, Y. Zhao, N. E. Schultz, D. Truhlar, E. Epifanovsky and M. Oana.

 Additional authors for Version 3.2: 
 R. Baer, B. R. Brooks, D. Casanova, J.-D. Chai, C.-L. Cheng, 
 C. Cramer, D. Crittenden, A. Ghysels, G. Hawkins, E. G. Hohenstein, 
 C. Kelley, W. Kurlancheek, D. Liotard, E. Livshits, P. Manohar, 
 A. Marenich, D. Neuhauser, R. Olson, M. A. Rohrdanz, K. S. Thanthiriwatte, 
 A. J. W. Thom, V. Vanovschi, C. F. Williams, Q. Wu and Z.-Q. You. 


 Intel X86 Linux Version

 Q-chem begins on Fri Jul  5 00:02:09 2013  

 Parallel job on  1  processors
Processing $rem in /usr/local/qchem/config/preferences.

theFileMan(): MAXOPENFILES=974 MAX_SUB_FILE_NUM=16
Maximum size of a physical file is 2.0 GB, maximum size of a tmp-file is 32.0 GB


--------------------------------------------------------------
User input:
--------------------------------------------------------------

$molecule 
READ 
$end 

$xc_functional
C PBE   1.00
X wPBE  1.00
$end


$rem
SYMMETRY_DECOMPOSITION	0
LRC_DFT                 true
exchange 		general
BASIS                   g3large
omega			400 
JOBTYPE                 freq
IDERIV 1
SCF_GUESS READ
mem_static              760
max_scf_cycles          200
scf_final_print         1
sym_ignore              true
$end

--------------------------------------------------------------
 Writing REM_CC_EA            7
 ----------------------------------------------------
       Standard Nuclear Orientation (Angstroms)
    I     Atom         X            Y            Z
 ----------------------------------------------------
    1      O      -0.006789     0.000000     0.019242
    2      C      -0.007040     0.000000     1.219208
    3      H       0.953671     0.000000     1.772647
    4      C      -1.239484     0.000000     2.063757
    5      H      -2.131095     0.000000     1.441724
    6      H      -1.234536    -0.877073     2.713831
    7      H      -1.234537     0.877073     2.713831
 ----------------------------------------------------
 Nuclear Repulsion Energy =    70.0675003656 hartrees
 There are       12 alpha and       12 beta electrons
 Requested basis set is G3large
 There are 54 shells and 166 basis functions

Total QAlloc Memory Limit   2000 MB
Mega-Array Size       759 MB
MEM_STATIC part       760 MB

                       Distance Matrix (Angstroms)
             O (  1)   C (  2)   H (  3)   C (  4)   H (  5)   H (  6)
   C (  2)  1.199966
   H (  3)  1.999227  1.108720
   C (  4)  2.387378  1.494048  2.212390
   H (  5)  2.556586  2.135678  3.102465  1.087150
   H (  6)  3.088273  2.123653  2.538372  1.091732  1.786429
   H (  7)  3.088273  2.123653  2.538373  1.091732  1.786429  1.754147

 
 A cutoff of  1.0D-11 yielded   1442 shell pairs
 There are  13670 function pairs ( 16856 Cartesian)
Evaluating contribution to one-electron hamiltonian from nuclear
 Smallest overlap matrix eigenvalue = 1.31E-04
 Multipole matrices computed through 2nd order
 Guess MOs from SCF MO coefficient file
Reading MOs from coefficient file
Reading MOs from coefficient file
 Long-range K will be added via erf
 Coulomb attenuation parameter = 0.4 bohr**(-1)
 A restricted Kohn-Sham SCF calculation will be
 performed using Pulay DIIS extrapolation
 Exchange:  wPBE + LR-HF      Correlation:  PBE
 Using SG-1 standard quadrature grid
 SCF converges when DIIS error is below 1.0E-08
 ---------------------------------------
  Cycle       Energy         DIIS Error
 ---------------------------------------
    1    -153.7742598531      1.87E-09
    2    -153.7742598530      9.61E-10 Convergence criterion met
 ---------------------------------------
 One-Electron    Energy =  -346.8927860339
 Total Coulomb   Energy =   143.8651475375
 Alpha Exchange  Energy =    -2.4042223196
 Beta  Exchange  Energy =    -2.4042223196
 DFT   Exchange  Energy =   -15.2267641694
 DFT Correlation Energy =    -0.7789129135
 Nuclear Repu.   Energy =    70.0675003656
 Nuclear Attr.   Energy =  -500.1146219179
 Kinetic         Energy =   153.2218358839
 SCF time:  CPU 15.92 s  wall 16.08 s
 Final Alpha MO Eigenvalues
            1           2           3           4           5           6
    1 -18.9621145 -10.1994591 -10.1135352  -1.1909988  -0.9085037  -0.7219186
            7           8           9          10          11          12
    1  -0.6167633  -0.5819137  -0.5686660  -0.5244860  -0.4936925  -0.3794109
           13          14          15          16          17
    1   0.0363868   0.0554078   0.0626554   0.0643033   0.0789513
 Analysis of SCF Wavefunction
 
 --------------------------------------------------------------
                    Orbital Energies (a.u.)
 --------------------------------------------------------------
 
 Alpha MOs
 -- Occupied --
-18.962 -10.199 -10.114  -1.191  -0.909  -0.722  -0.617  -0.582
 -0.569  -0.524  -0.494  -0.379
 -- Virtual --
  0.036   0.055   0.063   0.064   0.079   0.111   0.129   0.139
  0.144   0.155   0.168   0.178   0.195   0.246   0.252   0.265
  0.306   0.331   0.336   0.369   0.386   0.406   0.484   0.511
  0.538   0.572   0.592   0.606   0.644   0.660   0.672   0.680
  0.693   0.755   0.812   0.857   0.862   0.881   0.956   1.043
  1.056   1.101   1.108   1.155   1.194   1.208   1.232   1.266
  1.273   1.296   1.355   1.367   1.431   1.479   1.500   1.516
  1.528   1.595   1.627   1.700   1.784   1.856   2.000   2.079
  2.332   2.496   2.533   2.577   2.636   2.779   2.780   2.852
  2.861   2.985   3.002   3.076   3.118   3.160   3.170   3.215
  3.223   3.226   3.294   3.424   3.454   3.455   3.483   3.543
  3.678   3.688   3.706   3.765   3.897   3.923   3.946   4.053
  4.089   4.146   4.241   4.244   4.312   4.320   4.467   4.523
  4.594   4.607   4.675   4.754   5.085   5.088   5.177   5.179
  5.288   5.503   5.550   5.579   5.734   5.746   5.902   6.381
  6.718   6.919   6.964   7.049   7.299   7.489   7.697  24.216
 24.530  27.283  27.698  28.089  28.106  28.143  28.400  40.842
 40.931  41.011  41.048  41.066  41.138  41.181  41.203  41.267
 41.311  43.711  43.764  43.866  43.947  43.959  45.718  45.826
 46.541  50.053
 --------------------------------------------------------------
 
          Ground-State Mulliken Net Atomic Charges

     Atom                 Charge (a.u.)
  ----------------------------------------
      1 O                    -0.278042
      2 C                     0.093762
      3 H                     0.071989
      4 C                    -0.160440
      5 H                     0.102810
      6 H                     0.084960
      7 H                     0.084960
  ----------------------------------------
  Sum of atomic charges =     0.000000

 -----------------------------------------------------------------
                    Cartesian Multipole Moments
 -----------------------------------------------------------------
    Charge (ESU x 10^10)
                 0.0000
    Dipole Moment (Debye)
         X      -0.4998      Y       0.0000      Z       2.9215
       Tot       2.9639
    Quadrupole Moments (Debye-Ang)
        XX     -17.3768     XY       0.0000     YY     -17.8395
        XZ      -0.8791     YZ       0.0000     ZZ     -14.1171
    Octapole Moments (Debye-Ang^2)
       XXX      25.4473    XXY       0.0000    XYY       8.6133
       YYY       0.0000    XXZ     -20.9703    XYZ       0.0000
       YYZ     -21.2046    XZZ       7.0340    YZZ       0.0000
       ZZZ     -60.8685
    Hexadecapole Moments (Debye-Ang^3)
      XXXX     -98.7924   XXXY       0.0000   XXYY     -21.4887
      XYYY       0.0000   YYYY     -23.4947   XXXZ      57.1735
      XXYZ       0.0000   XYYZ      17.1508   YYYZ       0.0000
      XXZZ     -61.9845   XYZZ       0.0000   YYZZ     -45.4464
      XZZZ      51.6285   YZZZ       0.0000   ZZZZ    -265.6941
 -----------------------------------------------------------------
 Calculating analytic gradient of the SCF energy
 Gradient of AOints
            1           2           3           4           5           6
    1  -1.2724180  -2.5620465  -3.2819402   3.2108114   3.2194587   0.3430670
    2   0.0000053  -0.0000088   0.0000022   0.0000008   0.0000001   2.4810078
    3  14.1043919  -6.6420696  -1.6395771  -2.9441252   1.5183072  -2.1984634
            7
    1   0.3430677
    2  -2.4810073
    3  -2.1984638
 Gradient of XC Energy
            1           2           3           4           5           6
    1  -0.0023509   0.0057771   0.1474690   0.0024025  -0.1479699  -0.0026639
    2  -0.0000002   0.0000003  -0.0000001  -0.0000000  -0.0000000  -0.1360089
    3  -0.4124416   0.2409749   0.0770690  -0.0147371  -0.0986465   0.1038906
            7
    1  -0.0026639
    2   0.1360089
    3   0.1038906
 Gradient of SCF Energy
            1           2           3           4           5           6
    1  -0.0000386   0.0000407  -0.0000207  -0.0000055   0.0000046   0.0000098
    2  -0.0000000   0.0000001  -0.0000000  -0.0000000   0.0000000   0.0000059
    3  -0.0000635   0.0001604  -0.0000355  -0.0000199  -0.0000071  -0.0000172
            7
    1   0.0000098
    2  -0.0000059
    3  -0.0000172
 Max gradient component =       1.604E-04
 RMS gradient           =       4.137E-05
 Gradient time:  CPU 37.53 s  wall 37.66 s
 ######################################################
 ######################################################
 # Starting finite difference calculation for IDERIV  #
 Finite diff step size: 1.89e-03 a.u.
 Writing REM_CC_EA            7
 ----------------------------------------------------
       Standard Nuclear Orientation (Angstroms)
    I     Atom         X            Y            Z
 ----------------------------------------------------
    1      O      -0.005789     0.000000     0.019242
    2      C      -0.007040     0.000000     1.219208
    3      H       0.953671     0.000000     1.772647
    4      C      -1.239484     0.000000     2.063757
    5      H      -2.131095     0.000000     1.441724
    6      H      -1.234536    -0.877073     2.713831
    7      H      -1.234537     0.877073     2.713831
 ----------------------------------------------------
 Nuclear Repulsion Energy =    70.0648057562 hartrees
 There are       12 alpha and       12 beta electrons

                       Distance Matrix (Angstroms)
             O (  1)   C (  2)   H (  3)   C (  4)   H (  5)   H (  6)
   C (  2)  1.199967
   H (  3)  1.998747  1.108720
   C (  4)  2.387895  1.494048  2.212390
   H (  5)  2.557417  2.135678  3.102465  1.087150
   H (  6)  3.088670  2.123653  2.538372  1.091732  1.786429
   H (  7)  3.088671  2.123653  2.538373  1.091732  1.786429  1.754147

 
 Requested basis set is G3large
 There are 54 shells and 166 basis functions
 A cutoff of  1.0D-11 yielded   1442 shell pairs
 There are  13670 function pairs ( 16856 Cartesian)
Evaluating contribution to one-electron hamiltonian from nuclear
 Smallest overlap matrix eigenvalue = 1.31E-04
 Multipole matrices computed through 2nd order
 Guess MOs from SCF MO coefficient file
Reading MOs from coefficient file
Reading MOs from coefficient file
 Long-range K will be added via erf
 Coulomb attenuation parameter = 0.4 bohr**(-1)
 A restricted Kohn-Sham SCF calculation will be
 performed using Pulay DIIS extrapolation
 Exchange:  wPBE + LR-HF      Correlation:  PBE
 Using SG-1 standard quadrature grid
 SCF converges when DIIS error is below 1.0E-08
 ---------------------------------------
  Cycle       Energy         DIIS Error
 ---------------------------------------
    1    -153.7742752585      2.40E-05
    2    -153.7742597179      2.16E-06
    3    -153.7742596942      8.33E-07
    4    -153.7742597339      4.92E-07
    5    -153.7742597222      2.09E-07
    6    -153.7742597744      3.65E-08
    7    -153.7742597743      5.53E-09 Convergence criterion met
 ---------------------------------------
 One-Electron    Energy =  -346.8872115512
 Total Coulomb   Energy =   143.8622532335
 Alpha Exchange  Energy =    -2.4042215095
 Beta  Exchange  Energy =    -2.4042215095
 DFT   Exchange  Energy =   -15.2267536030
 DFT Correlation Energy =    -0.7789105908
 Nuclear Repu.   Energy =    70.0648057562
 Nuclear Attr.   Energy =  -500.1089742698
 Kinetic         Energy =   153.2217627186
 SCF time:  CPU 50.24 s  wall 50.83 s
 Final Alpha MO Eigenvalues
            1           2           3           4           5           6
    1 -18.9621149 -10.1994561 -10.1135751  -1.1909928  -0.9085394  -0.7218905
            7           8           9          10          11          12
    1  -0.6167707  -0.5819248  -0.5686863  -0.5244967  -0.4937079  -0.3794028
           13          14          15          16          17
    1   0.0363838   0.0554121   0.0626683   0.0642984   0.0789462
 Analysis of SCF Wavefunction
 
 --------------------------------------------------------------
                    Orbital Energies (a.u.)
 --------------------------------------------------------------
 
 Alpha MOs
 -- Occupied --
-18.962 -10.199 -10.114  -1.191  -0.909  -0.722  -0.617  -0.582
 -0.569  -0.524  -0.494  -0.379
 -- Virtual --
  0.036   0.055   0.063   0.064   0.079   0.111   0.129   0.139
  0.144   0.155   0.168   0.178   0.195   0.246   0.252   0.265
  0.306   0.331   0.336   0.369   0.386   0.406   0.484   0.511
  0.538   0.572   0.592   0.605   0.644   0.660   0.672   0.680
  0.693   0.755   0.812   0.857   0.862   0.881   0.956   1.043
  1.056   1.101   1.108   1.155   1.194   1.208   1.232   1.266
  1.273   1.296   1.355   1.367   1.431   1.479   1.500   1.516
  1.528   1.595   1.627   1.700   1.784   1.856   2.000   2.079
  2.333   2.496   2.533   2.577   2.635   2.779   2.780   2.852
  2.861   2.985   3.002   3.076   3.118   3.160   3.170   3.215
  3.223   3.226   3.294   3.424   3.454   3.455   3.483   3.543
  3.678   3.688   3.707   3.765   3.897   3.923   3.946   4.053
  4.089   4.146   4.241   4.244   4.312   4.320   4.467   4.522
  4.594   4.606   4.675   4.754   5.085   5.088   5.177   5.179
  5.288   5.503   5.550   5.579   5.734   5.746   5.902   6.381
  6.718   6.919   6.964   7.049   7.299   7.489   7.697  24.216
 24.530  27.283  27.698  28.089  28.106  28.143  28.400  40.842
 40.931  41.011  41.048  41.066  41.138  41.181  41.203  41.267
 41.311  43.711  43.764  43.866  43.947  43.959  45.718  45.826
 46.541  50.053
 --------------------------------------------------------------
 
          Ground-State Mulliken Net Atomic Charges

     Atom                 Charge (a.u.)
  ----------------------------------------
      1 O                    -0.278077
      2 C                     0.093690
      3 H                     0.071958
      4 C                    -0.160353
      5 H                     0.102784
      6 H                     0.084999
      7 H                     0.084999
  ----------------------------------------
  Sum of atomic charges =     0.000000

 -----------------------------------------------------------------
                    Cartesian Multipole Moments
 -----------------------------------------------------------------
    Charge (ESU x 10^10)
                 0.0000
    Dipole Moment (Debye)
         X      -0.5024      Y       0.0000      Z       2.9217
       Tot       2.9646
    Quadrupole Moments (Debye-Ang)
        XX     -17.3767     XY       0.0000     YY     -17.8393
        XZ      -0.8818     YZ       0.0000     ZZ     -14.1156
    Octapole Moments (Debye-Ang^2)
       XXX      25.4291    XXY       0.0000    XYY       8.6072
       YYY       0.0000    XXZ     -20.9693    XYZ       0.0000
       YYZ     -21.2037    XZZ       7.0216    YZZ       0.0000
       ZZZ     -60.8617
    Hexadecapole Moments (Debye-Ang^3)
      XXXX     -98.7930   XXXY       0.0000   XXYY     -21.4881
      XYYY       0.0000   YYYY     -23.4940   XXXZ      57.1698
      XXYZ       0.0000   XYYZ      17.1484   YYYZ       0.0000
      XXZZ     -61.9801   XYZZ       0.0000   YYZZ     -45.4431
      XZZZ      51.6054   YZZZ       0.0000   ZZZZ    -265.6664
 -----------------------------------------------------------------
 Calculating analytic gradient of the SCF energy
 Gradient of AOints
            1           2           3           4           5           6
    1  -1.2851586  -2.5491360  -3.2822618   3.2110975   3.2189800   0.3432391
    2   0.0000053  -0.0000088   0.0000022   0.0000008   0.0000001   2.4810331
    3  14.1038116  -6.6424280  -1.6379309  -2.9447182   1.5184488  -2.1985914
            7
    1   0.3432398
    2  -2.4810327
    3  -2.1985918
 Gradient of XC Energy
            1           2           3           4           5           6
    1  -0.0019002   0.0053109   0.1474804   0.0024068  -0.1479600  -0.0026690
    2  -0.0000002   0.0000003  -0.0000001  -0.0000000  -0.0000000  -0.1360122
    3  -0.4124611   0.2409891   0.0770029  -0.0146777  -0.0986521   0.1038994
            7
    1  -0.0026690
    2   0.1360122
    3   0.1038994
 Gradient of SCF Energy
            1           2           3           4           5           6
    1   0.0001227  -0.0001688   0.0000035   0.0000195   0.0000169   0.0000031
    2  -0.0000000   0.0000001  -0.0000000  -0.0000000   0.0000000   0.0000061
    3  -0.0000662   0.0001408  -0.0001058   0.0000606  -0.0000123  -0.0000085
            7
    1   0.0000031
    2  -0.0000061
    3  -0.0000085
 Max gradient component =       1.688E-04
 RMS gradient           =       6.313E-05
 Gradient time:  CPU 35.77 s  wall 36.07 s
 Writing REM_CC_EA            7
 ----------------------------------------------------
       Standard Nuclear Orientation (Angstroms)
    I     Atom         X            Y            Z
 ----------------------------------------------------
    1      O      -0.007789     0.000000     0.019242
    2      C      -0.007040     0.000000     1.219208
    3      H       0.953671     0.000000     1.772647
    4      C      -1.239484     0.000000     2.063757
    5      H      -2.131095     0.000000     1.441724
    6      H      -1.234536    -0.877073     2.713831
    7      H      -1.234537     0.877073     2.713831
 ----------------------------------------------------
 Nuclear Repulsion Energy =    70.0701798579 hartrees
 There are       12 alpha and       12 beta electrons

                       Distance Matrix (Angstroms)
             O (  1)   C (  2)   H (  3)   C (  4)   H (  5)   H (  6)
   C (  2)  1.199966
   H (  3)  1.999708  1.108720
   C (  4)  2.386862  1.494048  2.212390
   H (  5)  2.555755  2.135678  3.102465  1.087150
   H (  6)  3.087875  2.123653  2.538372  1.091732  1.786429
   H (  7)  3.087875  2.123653  2.538373  1.091732  1.786429  1.754147

 
 Requested basis set is G3large
 There are 54 shells and 166 basis functions
 A cutoff of  1.0D-11 yielded   1442 shell pairs
 There are  13670 function pairs ( 16856 Cartesian)
Evaluating contribution to one-electron hamiltonian from nuclear
 Smallest overlap matrix eigenvalue = 1.31E-04
 Multipole matrices computed through 2nd order
 Guess MOs from SCF MO coefficient file
Reading MOs from coefficient file
Reading MOs from coefficient file
 Long-range K will be added via erf
 Coulomb attenuation parameter = 0.4 bohr**(-1)
 A restricted Kohn-Sham SCF calculation will be
 performed using Pulay DIIS extrapolation
 Exchange:  wPBE + LR-HF      Correlation:  PBE
 Using SG-1 standard quadrature grid
 SCF converges when DIIS error is below 1.0E-08
 ---------------------------------------
  Cycle       Energy         DIIS Error
 ---------------------------------------
    1    -153.7742275612      4.80E-05
    2    -153.7742596052      4.32E-06
    3    -153.7742595960      1.64E-06
    4    -153.7742595879      9.33E-07
    5    -153.7742596100      4.12E-07
    6    -153.7742596119      7.52E-08
    7    -153.7742596111      1.11E-08
    8    -153.7742596097      3.75E-09 Convergence criterion met
 ---------------------------------------
 One-Electron    Energy =  -346.8983319615
 Total Coulomb   Energy =   143.8680279539
 Alpha Exchange  Energy =    -2.4042230746
 Beta  Exchange  Energy =    -2.4042230746
 DFT   Exchange  Energy =   -15.2267741037
 DFT Correlation Energy =    -0.7789152071
 Nuclear Repu.   Energy =    70.0701798579
 Nuclear Attr.   Energy =  -500.1202382921
 Kinetic         Energy =   153.2219063305
 SCF time:  CPU 57.03 s  wall 57.81 s
 Final Alpha MO Eigenvalues
            1           2           3           4           5           6
    1 -18.9621140 -10.1994619 -10.1134953  -1.1910044  -0.9084680  -0.7219467
            7           8           9          10          11          12
    1  -0.6167557  -0.5819025  -0.5686455  -0.5244752  -0.4936770  -0.3794187
           13          14          15          16          17
    1   0.0363897   0.0554035   0.0626424   0.0643081   0.0789564
 Analysis of SCF Wavefunction
 
 --------------------------------------------------------------
                    Orbital Energies (a.u.)
 --------------------------------------------------------------
 
 Alpha MOs
 -- Occupied --
-18.962 -10.199 -10.113  -1.191  -0.908  -0.722  -0.617  -0.582
 -0.569  -0.524  -0.494  -0.379
 -- Virtual --
  0.036   0.055   0.063   0.064   0.079   0.111   0.129   0.139
  0.144   0.155   0.168   0.178   0.195   0.246   0.252   0.265
  0.306   0.331   0.336   0.369   0.386   0.406   0.484   0.511
  0.538   0.572   0.592   0.606   0.644   0.660   0.672   0.680
  0.693   0.755   0.812   0.857   0.862   0.881   0.956   1.043
  1.056   1.101   1.108   1.155   1.194   1.208   1.232   1.266
  1.273   1.296   1.355   1.367   1.430   1.479   1.500   1.516
  1.528   1.595   1.628   1.700   1.784   1.856   2.001   2.079
  2.332   2.496   2.532   2.577   2.636   2.779   2.780   2.852
  2.861   2.985   3.002   3.076   3.118   3.160   3.170   3.215
  3.223   3.226   3.294   3.423   3.454   3.455   3.483   3.543
  3.678   3.688   3.706   3.765   3.897   3.923   3.946   4.053
  4.089   4.146   4.241   4.244   4.312   4.320   4.467   4.523
  4.594   4.607   4.675   4.753   5.085   5.088   5.177   5.179
  5.289   5.503   5.550   5.579   5.734   5.746   5.903   6.381
  6.718   6.919   6.964   7.049   7.299   7.489   7.697  24.216
 24.530  27.283  27.697  28.089  28.106  28.143  28.400  40.842
 40.931  41.011  41.048  41.066  41.137  41.181  41.203  41.267
 41.311  43.711  43.764  43.866  43.947  43.959  45.718  45.826
 46.541  50.053
 --------------------------------------------------------------
 
          Ground-State Mulliken Net Atomic Charges

     Atom                 Charge (a.u.)
  ----------------------------------------
      1 O                    -0.278007
      2 C                     0.093834
      3 H                     0.072020
      4 C                    -0.160526
      5 H                     0.102835
      6 H                     0.084922
      7 H                     0.084922
  ----------------------------------------
  Sum of atomic charges =     0.000000

 -----------------------------------------------------------------
                    Cartesian Multipole Moments
 -----------------------------------------------------------------
    Charge (ESU x 10^10)
                 0.0000
    Dipole Moment (Debye)
         X      -0.4973      Y       0.0000      Z       2.9212
       Tot       2.9632
    Quadrupole Moments (Debye-Ang)
        XX     -17.3768     XY       0.0000     YY     -17.8397
        XZ      -0.8765     YZ       0.0000     ZZ     -14.1186
    Octapole Moments (Debye-Ang^2)
       XXX      25.4655    XXY       0.0000    XYY       8.6194
       YYY       0.0000    XXZ     -20.9712    XYZ       0.0000
       YYZ     -21.2056    XZZ       7.0465    YZZ       0.0000
       ZZZ     -60.8753
    Hexadecapole Moments (Debye-Ang^3)
      XXXX     -98.7919   XXXY       0.0000   XXYY     -21.4893
      XYYY       0.0000   YYYY     -23.4955   XXXZ      57.1773
      XXYZ       0.0000   XYYZ      17.1531   YYYZ       0.0000
      XXZZ     -61.9889   XYZZ       0.0000   YYZZ     -45.4497
      XZZZ      51.6515   YZZZ       0.0000   ZZZZ    -265.7219
 -----------------------------------------------------------------
 Calculating analytic gradient of the SCF energy
 Gradient of AOints
            1           2           3           4           5           6
    1  -1.2596765  -2.5749576  -3.2816183   3.2105254   3.2199371   0.3428946
    2   0.0000053  -0.0000088   0.0000022   0.0000007   0.0000001   2.4809824
    3  14.1049536  -6.6416948  -1.6412224  -2.9435319   1.5181661  -2.1983352
            7
    1   0.3428953
    2  -2.4809820
    3  -2.1983355
 Gradient of XC Energy
            1           2           3           4           5           6
    1  -0.0028016   0.0062434   0.1474576   0.0023981  -0.1479799  -0.0026588
    2  -0.0000002   0.0000003  -0.0000001  -0.0000000  -0.0000000  -0.1360056
    3  -0.4124212   0.2409600   0.0771350  -0.0147965  -0.0986409   0.1038818
            7
    1  -0.0026588
    2   0.1360056
    3   0.1038818
 Gradient of SCF Energy
            1           2           3           4           5           6
    1  -0.0001999   0.0002501  -0.0000448  -0.0000306  -0.0000078   0.0000165
    2  -0.0000000   0.0000001  -0.0000000  -0.0000000   0.0000000   0.0000058
    3  -0.0000619   0.0001809   0.0000347  -0.0001003  -0.0000018  -0.0000258
            7
    1   0.0000165
    2  -0.0000058
    3  -0.0000258
 Max gradient component =       2.501E-04
 RMS gradient           =       8.600E-05
 Gradient time:  CPU 33.85 s  wall 33.98 s
 Writing REM_CC_EA            7
 ----------------------------------------------------
       Standard Nuclear Orientation (Angstroms)
    I     Atom         X            Y            Z
 ----------------------------------------------------
    1      O      -0.006789     0.001000     0.019242
    2      C      -0.007040     0.000000     1.219208
    3      H       0.953671     0.000000     1.772647
    4      C      -1.239484     0.000000     2.063757
    5      H      -2.131095     0.000000     1.441724
    6      H      -1.234536    -0.877073     2.713831
    7      H      -1.234537     0.877073     2.713831
 ----------------------------------------------------
 Nuclear Repulsion Energy =    70.0674915888 hartrees
 There are       12 alpha and       12 beta electrons

                       Distance Matrix (Angstroms)
             O (  1)   C (  2)   H (  3)   C (  4)   H (  5)   H (  6)
   C (  2)  1.199966
   H (  3)  1.999228  1.108720
   C (  4)  2.387379  1.494048  2.212390
   H (  5)  2.556586  2.135678  3.102465  1.087150
   H (  6)  3.088557  2.123653  2.538372  1.091732  1.786429
   H (  7)  3.087989  2.123653  2.538373  1.091732  1.786429  1.754147

 
 Requested basis set is G3large
 There are 54 shells and 166 basis functions
 A cutoff of  1.0D-11 yielded   1442 shell pairs
 There are  13670 function pairs ( 16856 Cartesian)
Evaluating contribution to one-electron hamiltonian from nuclear
 Smallest overlap matrix eigenvalue = 1.31E-04
 Multipole matrices computed through 2nd order
 Guess MOs from SCF MO coefficient file
Reading MOs from coefficient file
Reading MOs from coefficient file
 Long-range K will be added via erf
 Coulomb attenuation parameter = 0.4 bohr**(-1)
 A restricted Kohn-Sham SCF calculation will be
 performed using Pulay DIIS extrapolation
 Exchange:  wPBE + LR-HF      Correlation:  PBE
 Using SG-1 standard quadrature grid
 SCF converges when DIIS error is below 1.0E-08
 ---------------------------------------
  Cycle       Energy         DIIS Error
 ---------------------------------------
    1    -153.7742745661      3.32E-05
    2    -153.7742597021      3.34E-06
    3    -153.7742597293      1.33E-06
    4    -153.7742597754      6.26E-07
    5    -153.7742598150      4.28E-07
    6    -153.7742598195      1.09E-07
    7    -153.7742598214      2.99E-08
    8    -153.7742598213      5.37E-09 Convergence criterion met
 ---------------------------------------
 One-Electron    Energy =  -346.8927686616
 Total Coulomb   Energy =   143.8651385552
 Alpha Exchange  Energy =    -2.4042222943
 Beta  Exchange  Energy =    -2.4042222943
 DFT   Exchange  Energy =   -15.2267638211
 DFT Correlation Energy =    -0.7789128939
 Nuclear Repu.   Energy =    70.0674915888
 Nuclear Attr.   Energy =  -500.1146025950
 Kinetic         Energy =   153.2218339334
 SCF time:  CPU 57.09 s  wall 57.70 s
 Final Alpha MO Eigenvalues
            1           2           3           4           5           6
    1 -18.9621146 -10.1994592 -10.1135352  -1.1909987  -0.9085037  -0.7219186
            7           8           9          10          11          12
    1  -0.6167632  -0.5819137  -0.5686660  -0.5244860  -0.4936925  -0.3794109
           13          14          15          16          17
    1   0.0363868   0.0554078   0.0626553   0.0643032   0.0789513
 Analysis of SCF Wavefunction
 
 --------------------------------------------------------------
                    Orbital Energies (a.u.)
 --------------------------------------------------------------
 
 Alpha MOs
 -- Occupied --
-18.962 -10.199 -10.114  -1.191  -0.909  -0.722  -0.617  -0.582
 -0.569  -0.524  -0.494  -0.379
 -- Virtual --
  0.036   0.055   0.063   0.064   0.079   0.111   0.129   0.139
  0.144   0.155   0.168   0.178   0.195   0.246   0.252   0.265
  0.306   0.331   0.336   0.369   0.386   0.406   0.484   0.511
  0.538   0.572   0.592   0.606   0.644   0.660   0.672   0.680
  0.693   0.755   0.812   0.857   0.862   0.881   0.956   1.043
  1.056   1.101   1.108   1.155   1.194   1.208   1.232   1.266
  1.273   1.296   1.355   1.367   1.431   1.479   1.500   1.516
  1.528   1.595   1.627   1.700   1.784   1.856   2.000   2.079
  2.332   2.496   2.533   2.577   2.636   2.779   2.780   2.852
  2.861   2.985   3.002   3.076   3.118   3.160   3.170   3.215
  3.223   3.226   3.294   3.424   3.454   3.455   3.483   3.543
  3.678   3.688   3.706   3.765   3.897   3.923   3.946   4.053
  4.089   4.146   4.241   4.244   4.312   4.320   4.467   4.523
  4.594   4.607   4.675   4.754   5.085   5.088   5.177   5.179
  5.288   5.503   5.550   5.579   5.734   5.746   5.902   6.381
  6.718   6.919   6.964   7.049   7.299   7.489   7.697  24.216
 24.530  27.283  27.698  28.089  28.106  28.143  28.400  40.842
 40.931  41.011  41.048  41.066  41.138  41.181  41.203  41.267
 41.311  43.711  43.764  43.866  43.947  43.959  45.718  45.826
 46.541  50.053
 --------------------------------------------------------------
 
          Ground-State Mulliken Net Atomic Charges

     Atom                 Charge (a.u.)
  ----------------------------------------
      1 O                    -0.278042
      2 C                     0.093762
      3 H                     0.071989
      4 C                    -0.160439
      5 H                     0.102810
      6 H                     0.084942
      7 H                     0.084979
  ----------------------------------------
  Sum of atomic charges =     0.000000

 -----------------------------------------------------------------
                    Cartesian Multipole Moments
 -----------------------------------------------------------------
    Charge (ESU x 10^10)
                 0.0000
    Dipole Moment (Debye)
         X      -0.4998      Y      -0.0016      Z       2.9215
       Tot       2.9639
    Quadrupole Moments (Debye-Ang)
        XX     -17.3768     XY      -0.0002     YY     -17.8395
        XZ      -0.8791     YZ       0.0013     ZZ     -14.1171
    Octapole Moments (Debye-Ang^2)
       XXX      25.4473    XXY      -0.0051    XYY       8.6133
       YYY      -0.0159    XXZ     -20.9703    XYZ      -0.0007
       YYZ     -21.2046    XZZ       7.0340    YZZ      -0.0025
       ZZZ     -60.8685
    Hexadecapole Moments (Debye-Ang^3)
      XXXX     -98.7924   XXXY      -0.0005   XXYY     -21.4887
      XYYY      -0.0003   YYYY     -23.4948   XXXZ      57.1735
      XXYZ       0.0024   XYYZ      17.1508   YYYZ       0.0014
      XXZZ     -61.9845   XYZZ      -0.0022   YYZZ     -45.4464
      XZZZ      51.6285   YZZZ       0.0082   ZZZZ    -265.6941
 -----------------------------------------------------------------
 Calculating analytic gradient of the SCF energy
 Gradient of AOints
            1           2           3           4           5           6
    1  -1.2724168  -2.5620479  -3.2819401   3.2108116   3.2194584   0.3429578
    2  -0.0114387   0.0120021  -0.0008000  -0.0001206   0.0002023   2.4810850
    3  14.1043855  -6.6420617  -1.6395782  -2.9441257   1.5183073  -2.1983150
            7
    1   0.3431771
    2  -2.4809302
    3  -2.1986123
 Gradient of XC Energy
            1           2           3           4           5           6
    1  -0.0023509   0.0057772   0.1474690   0.0024025  -0.1479699  -0.0026599
    2   0.0003726  -0.0004414   0.0000357   0.0000418  -0.0000034  -0.1360115
    3  -0.4124413   0.2409746   0.0770690  -0.0147371  -0.0986465   0.1038877
            7
    1  -0.0026679
    2   0.1360062
    3   0.1038935
 Gradient of SCF Energy
            1           2           3           4           5           6
    1  -0.0000386   0.0000407  -0.0000207  -0.0000055   0.0000046   0.0000168
    2   0.0000412  -0.0001238   0.0000397   0.0000490  -0.0000028   0.0000043
    3  -0.0000642   0.0001609  -0.0000355  -0.0000198  -0.0000071  -0.0000219
            7
    1   0.0000028
    2  -0.0000076
    3  -0.0000125
 Max gradient component =       1.609E-04
 RMS gradient           =       5.226E-05
 Gradient time:  CPU 33.90 s  wall 34.05 s
 Writing REM_CC_EA            7
 ----------------------------------------------------
       Standard Nuclear Orientation (Angstroms)
    I     Atom         X            Y            Z
 ----------------------------------------------------
    1      O      -0.006789    -0.001000     0.019242
    2      C      -0.007040     0.000000     1.219208
    3      H       0.953671     0.000000     1.772647
    4      C      -1.239484     0.000000     2.063757
    5      H      -2.131095     0.000000     1.441724
    6      H      -1.234536    -0.877073     2.713831
    7      H      -1.234537     0.877073     2.713831
 ----------------------------------------------------
 Nuclear Repulsion Energy =    70.0674915740 hartrees
 There are       12 alpha and       12 beta electrons

                       Distance Matrix (Angstroms)
             O (  1)   C (  2)   H (  3)   C (  4)   H (  5)   H (  6)
   C (  2)  1.199966
   H (  3)  1.999228  1.108720
   C (  4)  2.387379  1.494048  2.212390
   H (  5)  2.556586  2.135678  3.102465  1.087150
   H (  6)  3.087989  2.123653  2.538372  1.091732  1.786429
   H (  7)  3.088557  2.123653  2.538373  1.091732  1.786429  1.754147

 
 Requested basis set is G3large
 There are 54 shells and 166 basis functions
 A cutoff of  1.0D-11 yielded   1442 shell pairs
 There are  13670 function pairs ( 16856 Cartesian)
Evaluating contribution to one-electron hamiltonian from nuclear
 Smallest overlap matrix eigenvalue = 1.31E-04
 Multipole matrices computed through 2nd order
 Guess MOs from SCF MO coefficient file
Reading MOs from coefficient file
Reading MOs from coefficient file
 Long-range K will be added via erf
 Coulomb attenuation parameter = 0.4 bohr**(-1)
 A restricted Kohn-Sham SCF calculation will be
 performed using Pulay DIIS extrapolation
 Exchange:  wPBE + LR-HF      Correlation:  PBE
 Using SG-1 standard quadrature grid
 SCF converges when DIIS error is below 1.0E-08
 ---------------------------------------
  Cycle       Energy         DIIS Error
 ---------------------------------------
    1    -153.7742558436      4.59E-05
    2    -153.7742595816      5.09E-06
    3    -153.7742597863      2.06E-06
    4    -153.7742598064      6.23E-07
    5    -153.7742598140      1.78E-07
    6    -153.7742598150      1.38E-07
    7    -153.7742598134      3.28E-08
    8    -153.7742598155      5.00E-09 Convergence criterion met
 ---------------------------------------
 One-Electron    Energy =  -346.8927684653
 Total Coulomb   Energy =   143.8651383529
 Alpha Exchange  Energy =    -2.4042222928
 Beta  Exchange  Energy =    -2.4042222928
 DFT   Exchange  Energy =   -15.2267637993
 DFT Correlation Energy =    -0.7789128922
 Nuclear Repu.   Energy =    70.0674915740
 Nuclear Attr.   Energy =  -500.1146022941
 Kinetic         Energy =   153.2218338288
 SCF time:  CPU 57.10 s  wall 57.62 s
 Final Alpha MO Eigenvalues
            1           2           3           4           5           6
    1 -18.9621145 -10.1994592 -10.1135352  -1.1909986  -0.9085037  -0.7219186
            7           8           9          10          11          12
    1  -0.6167632  -0.5819137  -0.5686660  -0.5244860  -0.4936925  -0.3794109
           13          14          15          16          17
    1   0.0363868   0.0554078   0.0626553   0.0643032   0.0789513
 Analysis of SCF Wavefunction
 
 --------------------------------------------------------------
                    Orbital Energies (a.u.)
 --------------------------------------------------------------
 
 Alpha MOs
 -- Occupied --
-18.962 -10.199 -10.114  -1.191  -0.909  -0.722  -0.617  -0.582
 -0.569  -0.524  -0.494  -0.379
 -- Virtual --
  0.036   0.055   0.063   0.064   0.079   0.111   0.129   0.139
  0.144   0.155   0.168   0.178   0.195   0.246   0.252   0.265
  0.306   0.331   0.336   0.369   0.386   0.406   0.484   0.511
  0.538   0.572   0.592   0.606   0.644   0.660   0.672   0.680
  0.693   0.755   0.812   0.857   0.862   0.881   0.956   1.043
  1.056   1.101   1.108   1.155   1.194   1.208   1.232   1.266
  1.273   1.296   1.355   1.367   1.431   1.479   1.500   1.516
  1.528   1.595   1.627   1.700   1.784   1.856   2.000   2.079
  2.332   2.496   2.533   2.577   2.636   2.779   2.780   2.852
  2.861   2.985   3.002   3.076   3.118   3.160   3.170   3.215
  3.223   3.226   3.294   3.424   3.454   3.455   3.483   3.543
  3.678   3.688   3.706   3.765   3.897   3.923   3.946   4.053
  4.089   4.146   4.241   4.244   4.312   4.320   4.467   4.523
  4.594   4.607   4.675   4.754   5.085   5.088   5.177   5.179
  5.288   5.503   5.550   5.579   5.734   5.746   5.902   6.381
  6.718   6.919   6.964   7.049   7.299   7.489   7.697  24.216
 24.530  27.283  27.698  28.089  28.106  28.143  28.400  40.842
 40.931  41.011  41.048  41.066  41.138  41.181  41.203  41.267
 41.311  43.711  43.764  43.866  43.947  43.959  45.718  45.826
 46.541  50.053
 --------------------------------------------------------------
 
          Ground-State Mulliken Net Atomic Charges

     Atom                 Charge (a.u.)
  ----------------------------------------
      1 O                    -0.278042
      2 C                     0.093762
      3 H                     0.071989
      4 C                    -0.160439
      5 H                     0.102810
      6 H                     0.084979
      7 H                     0.084942
  ----------------------------------------
  Sum of atomic charges =     0.000000

 -----------------------------------------------------------------
                    Cartesian Multipole Moments
 -----------------------------------------------------------------
    Charge (ESU x 10^10)
                 0.0000
    Dipole Moment (Debye)
         X      -0.4998      Y       0.0016      Z       2.9215
       Tot       2.9639
    Quadrupole Moments (Debye-Ang)
        XX     -17.3768     XY       0.0002     YY     -17.8395
        XZ      -0.8791     YZ      -0.0013     ZZ     -14.1171
    Octapole Moments (Debye-Ang^2)
       XXX      25.4473    XXY       0.0051    XYY       8.6133
       YYY       0.0159    XXZ     -20.9703    XYZ       0.0007
       YYZ     -21.2046    XZZ       7.0340    YZZ       0.0025
       ZZZ     -60.8685
    Hexadecapole Moments (Debye-Ang^3)
      XXXX     -98.7924   XXXY       0.0005   XXYY     -21.4887
      XYYY       0.0003   YYYY     -23.4948   XXXZ      57.1735
      XXYZ      -0.0025   XYYZ      17.1508   YYYZ      -0.0014
      XXZZ     -61.9845   XYZZ       0.0022   YYZZ     -45.4464
      XZZZ      51.6285   YZZZ      -0.0082   ZZZZ    -265.6941
 -----------------------------------------------------------------
 Calculating analytic gradient of the SCF energy
 Gradient of AOints
            1           2           3           4           5           6
    1  -1.2724177  -2.5620471  -3.2819400   3.2108116   3.2194585   0.3431765
    2   0.0114495  -0.0120200   0.0008039   0.0001228  -0.0002022   2.4809306
    3  14.1043853  -6.6420614  -1.6395781  -2.9441257   1.5183073  -2.1986120
            7
    1   0.3429583
    2  -2.4810846
    3  -2.1983153
 Gradient of XC Energy
            1           2           3           4           5           6
    1  -0.0023509   0.0057771   0.1474690   0.0024025  -0.1479699  -0.0026679
    2  -0.0003730   0.0004421  -0.0000359  -0.0000419   0.0000034  -0.1360063
    3  -0.4124413   0.2409746   0.0770690  -0.0147371  -0.0986465   0.1038935
            7
    1  -0.0026599
    2   0.1360115
    3   0.1038877
 Gradient of SCF Energy
            1           2           3           4           5           6
    1  -0.0000386   0.0000407  -0.0000207  -0.0000056   0.0000046   0.0000028
    2  -0.0000413   0.0001241  -0.0000397  -0.0000491   0.0000028   0.0000076
    3  -0.0000642   0.0001609  -0.0000355  -0.0000198  -0.0000071  -0.0000125
            7
    1   0.0000168
    2  -0.0000043
    3  -0.0000219
 Max gradient component =       1.609E-04
 RMS gradient           =       5.230E-05
 Gradient time:  CPU 33.79 s  wall 33.92 s
 Writing REM_CC_EA            7
 ----------------------------------------------------
       Standard Nuclear Orientation (Angstroms)
    I     Atom         X            Y            Z
 ----------------------------------------------------
    1      O      -0.006789     0.000000     0.020242
    2      C      -0.007040     0.000000     1.219208
    3      H       0.953671     0.000000     1.772647
    4      C      -1.239484     0.000000     2.063757
    5      H      -2.131095     0.000000     1.441724
    6      H      -1.234536    -0.877073     2.713831
    7      H      -1.234537     0.877073     2.713831
 ----------------------------------------------------
 Nuclear Repulsion Energy =    70.0910373877 hartrees
 There are       12 alpha and       12 beta electrons

                       Distance Matrix (Angstroms)
             O (  1)   C (  2)   H (  3)   C (  4)   H (  5)   H (  6)
   C (  2)  1.198966
   H (  3)  1.998350  1.108720
   C (  4)  2.386522  1.494048  2.212390
   H (  5)  2.556029  2.135678  3.102465  1.087150
   H (  6)  3.087400  2.123653  2.538372  1.091732  1.786429
   H (  7)  3.087400  2.123653  2.538373  1.091732  1.786429  1.754147

 
 Requested basis set is G3large
 There are 54 shells and 166 basis functions
 A cutoff of  1.0D-11 yielded   1442 shell pairs
 There are  13670 function pairs ( 16856 Cartesian)
Evaluating contribution to one-electron hamiltonian from nuclear
 Smallest overlap matrix eigenvalue = 1.31E-04
 Multipole matrices computed through 2nd order
 Guess MOs from SCF MO coefficient file
Reading MOs from coefficient file
Reading MOs from coefficient file
 Long-range K will be added via erf
 Coulomb attenuation parameter = 0.4 bohr**(-1)
 A restricted Kohn-Sham SCF calculation will be
 performed using Pulay DIIS extrapolation
 Exchange:  wPBE + LR-HF      Correlation:  PBE
 Using SG-1 standard quadrature grid
 SCF converges when DIIS error is below 1.0E-08
 ---------------------------------------
  Cycle       Energy         DIIS Error
 ---------------------------------------
    1    -153.7744096606      5.17E-05
    2    -153.7742580883      7.60E-06
    3    -153.7742582665      5.35E-06
    4    -153.7742583415      1.89E-06
    5    -153.7742583927      5.84E-07
    6    -153.7742583582      1.72E-07
    7    -153.7742583742      3.73E-08
    8    -153.7742583742      1.26E-08
    9    -153.7742583721      3.51E-09 Convergence criterion met
 ---------------------------------------
 One-Electron    Energy =  -346.9382814200
 Total Coulomb   Energy =   143.8880449004
 Alpha Exchange  Energy =    -2.4042745690
 Beta  Exchange  Energy =    -2.4042745690
 DFT   Exchange  Energy =   -15.2275485297
 DFT Correlation Energy =    -0.7789615726
 Nuclear Repu.   Energy =    70.0910373877
 Nuclear Attr.   Energy =  -500.1642720267
 Kinetic         Energy =   153.2259906067
 SCF time:  CPU 64.35 s  wall 65.05 s
 Final Alpha MO Eigenvalues
            1           2           3           4           5           6
    1 -18.9620718 -10.1992808 -10.1134449  -1.1915251  -0.9084289  -0.7218375
            7           8           9          10          11          12
    1  -0.6168625  -0.5819900  -0.5687850  -0.5245093  -0.4939098  -0.3793439
           13          14          15          16          17
    1   0.0364074   0.0554193   0.0628603   0.0643678   0.0789508
 Analysis of SCF Wavefunction
 
 --------------------------------------------------------------
                    Orbital Energies (a.u.)
 --------------------------------------------------------------
 
 Alpha MOs
 -- Occupied --
-18.962 -10.199 -10.113  -1.192  -0.908  -0.722  -0.617  -0.582
 -0.569  -0.525  -0.494  -0.379
 -- Virtual --
  0.036   0.055   0.063   0.064   0.079   0.111   0.129   0.139
  0.144   0.155   0.168   0.178   0.195   0.246   0.252   0.265
  0.306   0.331   0.336   0.369   0.386   0.406   0.484   0.511
  0.538   0.572   0.592   0.606   0.644   0.660   0.672   0.680
  0.693   0.755   0.812   0.857   0.863   0.881   0.956   1.043
  1.056   1.101   1.108   1.155   1.194   1.208   1.232   1.266
  1.274   1.296   1.355   1.367   1.431   1.479   1.500   1.516
  1.528   1.595   1.628   1.700   1.784   1.857   2.001   2.080
  2.333   2.496   2.533   2.578   2.636   2.779   2.780   2.852
  2.861   2.985   3.002   3.076   3.119   3.160   3.170   3.215
  3.224   3.226   3.294   3.424   3.454   3.455   3.483   3.544
  3.678   3.689   3.706   3.766   3.897   3.923   3.946   4.053
  4.089   4.146   4.241   4.245   4.312   4.320   4.467   4.523
  4.594   4.607   4.675   4.754   5.086   5.088   5.177   5.179
  5.289   5.504   5.551   5.581   5.735   5.746   5.904   6.384
  6.721   6.919   6.965   7.052   7.299   7.489   7.697  24.216
 24.532  27.283  27.698  28.089  28.106  28.144  28.401  40.842
 40.931  41.011  41.048  41.066  41.138  41.181  41.203  41.267
 41.311  43.711  43.764  43.866  43.947  43.960  45.719  45.827
 46.543  50.055
 --------------------------------------------------------------
 
          Ground-State Mulliken Net Atomic Charges

     Atom                 Charge (a.u.)
  ----------------------------------------
      1 O                    -0.277698
      2 C                     0.093812
      3 H                     0.071781
      4 C                    -0.160500
      5 H                     0.102748
      6 H                     0.084929
      7 H                     0.084929
  ----------------------------------------
  Sum of atomic charges =     0.000000

 -----------------------------------------------------------------
                    Cartesian Multipole Moments
 -----------------------------------------------------------------
    Charge (ESU x 10^10)
                 0.0000
    Dipole Moment (Debye)
         X      -0.4993      Y       0.0000      Z       2.9160
       Tot       2.9585
    Quadrupole Moments (Debye-Ang)
        XX     -17.3786     XY       0.0000     YY     -17.8372
        XZ      -0.8782     YZ       0.0000     ZZ     -14.1260
    Octapole Moments (Debye-Ang^2)
       XXX      25.4517    XXY       0.0000    XYY       8.6143
       YYY       0.0000    XXZ     -20.9859    XYZ       0.0000
       YYZ     -21.2117    XZZ       7.0372    YZZ       0.0000
       ZZZ     -60.9117
    Hexadecapole Moments (Debye-Ang^3)
      XXXX     -98.8107   XXXY       0.0000   XXYY     -21.4901
      XYYY       0.0000   YYYY     -23.4907   XXXZ      57.1817
      XXYZ       0.0000   XYYZ      17.1532   YYYZ       0.0000
      XXZZ     -62.0085   XYZZ       0.0000   YYZZ     -45.4528
      XZZZ      51.6407   YZZZ       0.0000   ZZZZ    -265.7733
 -----------------------------------------------------------------
 Calculating analytic gradient of the SCF energy
 Gradient of AOints
            1           2           3           4           5           6
    1  -1.2739090  -2.5609652  -3.2817141   3.2108289   3.2196056   0.3430765
    2   0.0000055  -0.0000089   0.0000030  -0.0000002   0.0000001   2.4811241
    3  14.1088939  -6.6501825  -1.6373807  -2.9424259   1.5182455  -2.1985749
            7
    1   0.3430774
    2  -2.4811235
    3  -2.1985754
 Gradient of XC Energy
            1           2           3           4           5           6
    1  -0.0023332   0.0057326   0.1474377   0.0024458  -0.1479644  -0.0026592
    2  -0.0000002   0.0000003  -0.0000001   0.0000000  -0.0000000  -0.1360080
    3  -0.4127018   0.2414360   0.0769707  -0.0148403  -0.0986414   0.1038884
            7
    1  -0.0026593
    2   0.1360080
    3   0.1038884
 Gradient of SCF Energy
            1           2           3           4           5           6
    1  -0.0000407   0.0000305  -0.0000547   0.0000295   0.0000054   0.0000150
    2  -0.0000000   0.0000001  -0.0000001  -0.0000000   0.0000000   0.0000041
    3   0.0016715  -0.0013983  -0.0001203  -0.0001099  -0.0000043  -0.0000193
            7
    1   0.0000150
    2  -0.0000041
    3  -0.0000193
 Max gradient component =       1.671E-03
 RMS gradient           =       4.773E-04
 Gradient time:  CPU 34.11 s  wall 34.25 s
 Writing REM_CC_EA            7
 ----------------------------------------------------
       Standard Nuclear Orientation (Angstroms)
    I     Atom         X            Y            Z
 ----------------------------------------------------
    1      O      -0.006789     0.000000     0.018242
    2      C      -0.007040     0.000000     1.219208
    3      H       0.953671     0.000000     1.772647
    4      C      -1.239484     0.000000     2.063757
    5      H      -2.131095     0.000000     1.441724
    6      H      -1.234536    -0.877073     2.713831
    7      H      -1.234537     0.877073     2.713831
 ----------------------------------------------------
 Nuclear Repulsion Energy =    70.0439960289 hartrees
 There are       12 alpha and       12 beta electrons

                       Distance Matrix (Angstroms)
             O (  1)   C (  2)   H (  3)   C (  4)   H (  5)   H (  6)
   C (  2)  1.200966
   H (  3)  2.000105  1.108720
   C (  4)  2.388235  1.494048  2.212390
   H (  5)  2.557142  2.135678  3.102465  1.087150
   H (  6)  3.089145  2.123653  2.538372  1.091732  1.786429
   H (  7)  3.089145  2.123653  2.538373  1.091732  1.786429  1.754147

 
 Requested basis set is G3large
 There are 54 shells and 166 basis functions
 A cutoff of  1.0D-11 yielded   1442 shell pairs
 There are  13670 function pairs ( 16856 Cartesian)
Evaluating contribution to one-electron hamiltonian from nuclear
 Smallest overlap matrix eigenvalue = 1.31E-04
 Multipole matrices computed through 2nd order
 Guess MOs from SCF MO coefficient file
Reading MOs from coefficient file
Reading MOs from coefficient file
 Long-range K will be added via erf
 Coulomb attenuation parameter = 0.4 bohr**(-1)
 A restricted Kohn-Sham SCF calculation will be
 performed using Pulay DIIS extrapolation
 Exchange:  wPBE + LR-HF      Correlation:  PBE
 Using SG-1 standard quadrature grid
 SCF converges when DIIS error is below 1.0E-08
 ---------------------------------------
  Cycle       Energy         DIIS Error
 ---------------------------------------
    1    -153.7739646030      9.26E-05
    2    -153.7742575200      1.44E-05
[...]
    1   0.0065297  -0.0000009  -0.0027789  -0.0035591   0.0000763   0.0045821
    2   0.0000004  -0.0014659   0.0000028   0.0036988  -0.0008638  -0.0024823
    3   0.0004520  -0.0000074   0.0014890   0.0027605  -0.0009860  -0.0011293
    4  -0.0259208  -0.0000006   0.0185499   0.0057463   0.0012785  -0.0034334
    5  -0.0000003  -0.0008506  -0.0000025  -0.0261190   0.0011586   0.0158805
    6  -0.0212942   0.0000122   0.0137997   0.0148955  -0.0022343  -0.0144212
    7  -0.0032816   0.0000007   0.0031474   0.0000247  -0.0007047   0.0003975
    8   0.0000000   0.0021092  -0.0000038   0.0028438   0.0001092  -0.0019235
    9   0.0035689  -0.0000015  -0.0019737  -0.0015362   0.0001941   0.0005492
   10  -0.2392948   0.0000002  -0.1374286  -0.0497804   0.0003291  -0.0027208
   11  -0.0000011  -0.0487902   0.0000040  -0.0023052  -0.2223836   0.1383465
   12  -0.1331174  -0.0000023  -0.1446446  -0.0013508   0.1352679  -0.1398962
   13   0.2572427   0.0000007   0.1454322   0.0023624   0.0002095   0.0024785
   14   0.0000007   0.0454936   0.0000007   0.0220917   0.0017539   0.0130566
   15   0.1454322   0.0000007   0.1493930  -0.0134613  -0.0025590  -0.0090317
   16   0.0023624   0.0220917  -0.0134613   0.0459678  -0.0006966  -0.0004555
   17   0.0002095   0.0017539  -0.0025590  -0.0006966   0.2402348  -0.1462807
   18   0.0024785   0.0130566  -0.0090317  -0.0004555  -0.1462807   0.1512963
   19   0.0023606  -0.0220915  -0.0134633  -0.0007638  -0.0004881  -0.0008531
   20  -0.0002093   0.0017518   0.0025580   0.0004847  -0.0200089  -0.0165958
   21   0.0024786  -0.0130571  -0.0090307  -0.0008514   0.0165977   0.0126312
           19          20          21
    1  -0.0035594  -0.0000768   0.0045821
    2  -0.0036998  -0.0008672   0.0024818
    3   0.0027530   0.0009846  -0.0011294
    4   0.0057490  -0.0012773  -0.0034345
    5   0.0261199   0.0011619  -0.0158807
    6   0.0149025   0.0022361  -0.0144233
    7   0.0000260   0.0007054   0.0003989
    8  -0.0028436   0.0001289   0.0019191
    9  -0.0015362  -0.0001941   0.0005487
   10  -0.0497822  -0.0003296  -0.0027213
   11   0.0023046  -0.2224032  -0.1383404
   12  -0.0013488  -0.1352655  -0.1398950
   13   0.0023606  -0.0002093   0.0024786
   14  -0.0220915   0.0017518  -0.0130571
   15  -0.0134633   0.0025580  -0.0090307
   16  -0.0007638   0.0004847  -0.0008514
   17  -0.0004881  -0.0200089   0.0165977
   18  -0.0008531  -0.0165958   0.0126312
   19   0.0459673   0.0006991  -0.0004553
   20   0.0006991   0.2402361   0.1462773
   21  -0.0004553   0.1462773   0.1512986
 Writing REM_CC_EA            7
 ----------------------------------------------------
       Standard Nuclear Orientation (Angstroms)
    I     Atom         X            Y            Z
 ----------------------------------------------------
    1      O      -0.006789     0.000000     0.019242
    2      C      -0.007040     0.000000     1.219208
    3      H       0.953671     0.000000     1.772647
    4      C      -1.239484     0.000000     2.063757
    5      H      -2.131095     0.000000     1.441724
    6      H      -1.234536    -0.877073     2.713831
    7      H      -1.234537     0.877073     2.713831
 ----------------------------------------------------
 Nuclear Repulsion Energy =    70.0675003656 hartrees
 There are       12 alpha and       12 beta electrons
 old dipole drv.
            1           2           3           4           5           6
    1  -0.5263932   0.0000081   0.1094409   0.9036285   0.0000084  -0.1238611
    2  -0.0000003  -0.3413022  -0.0000061  -0.0000010   0.1305123   0.0000068
    3   0.0529863   0.0000027  -1.1333292  -0.1961603  -0.0000057   1.2742610
            7           8           9          10          11          12
    1  -0.1921698   0.0000040  -0.0928582  -0.2789906   0.0000013   0.1934595
    2   0.0000006   0.0781652  -0.0000064  -0.0000004   0.0456233   0.0000248
    3  -0.1178124  -0.0000082  -0.0629036   0.2455686  -0.0000178  -0.2229716
           13          14          15          16          17          18
    1  -0.0181255   0.0000097  -0.0741620   0.0559456   0.0033463  -0.0060455
    2   0.0000003   0.0920395   0.0000004   0.0379543  -0.0025110   0.0593178
    3  -0.0155896  -0.0001443   0.0204303   0.0155209   0.0880191   0.0622649
           19          20          21
    1   0.0559553  -0.0033543  -0.0060262
    2  -0.0379652  -0.0024874  -0.0593073
    3   0.0155005  -0.0880197   0.0622459
 New transposed dipole drv.
            1           2           3
    1  -0.5263932  -0.0000003   0.0529863
    2   0.0000081  -0.3413022   0.0000027
    3   0.1094409  -0.0000061  -1.1333292
    4   0.9036285  -0.0000010  -0.1961603
    5   0.0000084   0.1305123  -0.0000057
    6  -0.1238611   0.0000068   1.2742610
    7  -0.1921698   0.0000006  -0.1178124
    8   0.0000040   0.0781652  -0.0000082
    9  -0.0928582  -0.0000064  -0.0629036
   10  -0.2789906  -0.0000004   0.2455686
   11   0.0000013   0.0456233  -0.0000178
   12   0.1934595   0.0000248  -0.2229716
   13  -0.0181255   0.0000003  -0.0155896
   14   0.0000097   0.0920395  -0.0001443
   15  -0.0741620   0.0000004   0.0204303
   16   0.0559456   0.0379543   0.0155209
   17   0.0033463  -0.0025110   0.0880191
   18  -0.0060455   0.0593178   0.0622649
   19   0.0559553  -0.0379652   0.0155005
   20  -0.0033543  -0.0024874  -0.0880197
   21  -0.0060262  -0.0593073   0.0622459
FINAL TENSOR RESULT:
Order 2, Length 21
Order 1, Length 21
   0.0853686  -0.0000011  -0.0011410  -0.1108222   0.0000001  -0.0106178   0.0127720   0.0000011  -0.0371765   0.0132717  -0.0000003   0.0425512   0.0065297  -0.0000009  -0.0027789  -0.0035591   0.0000763   0.0045821  -0.0035594  -0.0000768   0.0045821
Order 1, Length 21
  -0.0000011   0.0218318   0.0000020   0.0000000  -0.0655822  -0.0000024  -0.0000002   0.0210210   0.0000044   0.0000000   0.0259522   0.0000047   0.0000004  -0.0014659   0.0000028   0.0036988  -0.0008638  -0.0024823  -0.0036998  -0.0008672   0.0024818
Order 1, Length 21
  -0.0011410   0.0000020   0.9151761  -0.0053858  -0.0000022  -0.8220103  -0.0179641  -0.0000044  -0.0448176   0.0185238   0.0000001  -0.0475806   0.0004520  -0.0000074   0.0014890   0.0027605  -0.0009860  -0.0011293   0.0027530   0.0009846  -0.0011294
Order 1, Length 21
  -0.1108222   0.0000000  -0.0053858   0.5793684  -0.0000008   0.0284650  -0.2439868  -0.0000007  -0.0820819  -0.2101310   0.0000021   0.0473275  -0.0259208  -0.0000006   0.0185499   0.0057463   0.0012785  -0.0034334   0.0057490  -0.0012773  -0.0034345
Order 1, Length 21
   0.0000001  -0.0655822  -0.0000022  -0.0000008   0.2159700   0.0000022   0.0000008  -0.0639936  -0.0000031   0.0000000  -0.0878848  -0.0000034  -0.0000003  -0.0008506  -0.0000025  -0.0261190   0.0011586   0.0158805   0.0261199   0.0011619  -0.0158807
Order 1, Length 21
  -0.0106178  -0.0000024  -0.8220103   0.0284650   0.0000022   1.0360982  -0.0761839   0.0000076  -0.0907839   0.0498350  -0.0000013  -0.1082531  -0.0212942   0.0000122   0.0137997   0.0148955  -0.0022343  -0.0144212   0.0149025   0.0022361  -0.0144233
Order 1, Length 21
   0.0127720  -0.0000002  -0.0179641  -0.2439868   0.0000008  -0.0761839   0.2537046  -0.0000008   0.1036097  -0.0192577  -0.0000007  -0.0134109  -0.0032816   0.0000007   0.0031474   0.0000247  -0.0007047   0.0003975   0.0000260   0.0007054   0.0003989
Order 1, Length 21
   0.0000011   0.0210210  -0.0000044  -0.0000007  -0.0639936   0.0000076  -0.0000008   0.0226720  -0.0000009   0.0000000   0.0179549  -0.0000028   0.0000000   0.0021092  -0.0000038   0.0028438   0.0001092  -0.0019235  -0.0028436   0.0001289   0.0019191
Order 1, Length 21
  -0.0371765   0.0000044  -0.0448176  -0.0820819  -0.0000031  -0.0907839   0.1036097  -0.0000009   0.1259728   0.0151500  -0.0000025   0.0105011   0.0035689  -0.0000015  -0.0019737  -0.0015362   0.0001941   0.0005492  -0.0015362  -0.0001941   0.0005487
Order 1, Length 21
   0.0132717   0.0000000   0.0185238  -0.2101310   0.0000000   0.0498350  -0.0192577   0.0000000   0.0151500   0.5549752   0.0000001   0.0593613  -0.2392948   0.0000002  -0.1374286  -0.0497804   0.0003291  -0.0027208  -0.0497822  -0.0003296  -0.0027213
Order 1, Length 21
  -0.0000003   0.0259522   0.0000001   0.0000021  -0.0878848  -0.0000013  -0.0000007   0.0179549  -0.0000025   0.0000001   0.5375464  -0.0000010  -0.0000011  -0.0487902   0.0000040  -0.0023052  -0.2223836   0.1383465   0.0023046  -0.2224032  -0.1383404
Order 1, Length 21
   0.0425512   0.0000047  -0.0475806   0.0473275  -0.0000034  -0.1082531  -0.0134109  -0.0000028   0.0105011   0.0593613  -0.0000010   0.5697680  -0.1331174  -0.0000023  -0.1446446  -0.0013508   0.1352679  -0.1398962  -0.0013488  -0.1352655  -0.1398950
Order 1, Length 21
   0.0065297   0.0000004   0.0004520  -0.0259208  -0.0000003  -0.0212942  -0.0032816   0.0000000   0.0035689  -0.2392948  -0.0000011  -0.1331174   0.2572427   0.0000007   0.1454322   0.0023624   0.0002095   0.0024785   0.0023606  -0.0002093   0.0024786
Order 1, Length 21
  -0.0000009  -0.0014659  -0.0000074  -0.0000006  -0.0008506   0.0000122   0.0000007   0.0021092  -0.0000015   0.0000002  -0.0487902  -0.0000023   0.0000007   0.0454936   0.0000007   0.0220917   0.0017539   0.0130566  -0.0220915   0.0017518  -0.0130571
Order 1, Length 21
  -0.0027789   0.0000028   0.0014890   0.0185499  -0.0000025   0.0137997   0.0031474  -0.0000038  -0.0019737  -0.1374286   0.0000040  -0.1446446   0.1454322   0.0000007   0.1493930  -0.0134613  -0.0025590  -0.0090317  -0.0134633   0.0025580  -0.0090307
Order 1, Length 21
  -0.0035591   0.0036988   0.0027605   0.0057463  -0.0261190   0.0148955   0.0000247   0.0028438  -0.0015362  -0.0497804  -0.0023052  -0.0013508   0.0023624   0.0220917  -0.0134613   0.0459678  -0.0006966  -0.0004555  -0.0007638   0.0004847  -0.0008514
Order 1, Length 21
   0.0000763  -0.0008638  -0.0009860   0.0012785   0.0011586  -0.0022343  -0.0007047   0.0001092   0.0001941   0.0003291  -0.2223836   0.1352679   0.0002095   0.0017539  -0.0025590  -0.0006966   0.2402348  -0.1462807  -0.0004881  -0.0200089   0.0165977
Order 1, Length 21
   0.0045821  -0.0024823  -0.0011293  -0.0034334   0.0158805  -0.0144212   0.0003975  -0.0019235   0.0005492  -0.0027208   0.1383465  -0.1398962   0.0024785   0.0130566  -0.0090317  -0.0004555  -0.1462807   0.1512963  -0.0008531  -0.0165958   0.0126312
Order 1, Length 21
  -0.0035594  -0.0036998   0.0027530   0.0057490   0.0261199   0.0149025   0.0000260  -0.0028436  -0.0015362  -0.0497822   0.0023046  -0.0013488   0.0023606  -0.0220915  -0.0134633  -0.0007638  -0.0004881  -0.0008531   0.0459673   0.0006991  -0.0004553
Order 1, Length 21
  -0.0000768  -0.0008672   0.0009846  -0.0012773   0.0011619   0.0022361   0.0007054   0.0001289  -0.0001941  -0.0003296  -0.2224032  -0.1352655  -0.0002093   0.0017518   0.0025580   0.0004847  -0.0200089  -0.0165958   0.0006991   0.2402361   0.1462773
Order 1, Length 21
   0.0045821   0.0024818  -0.0011294  -0.0034345  -0.0158807  -0.0144233   0.0003989   0.0019191   0.0005487  -0.0027213  -0.1383404  -0.1398950   0.0024786  -0.0130571  -0.0090307  -0.0008514   0.0165977   0.0126312  -0.0004553   0.1462773   0.1512986


 # Finishing finite difference calculation for IDERIV #
 ######################################################
 ######################################################
 Requested basis set is G3large
 There are 54 shells and 166 basis functions
 **********************************************************************
 **                                                                  **
 **                       VIBRATIONAL ANALYSIS                       **
 **                       --------------------                       **
 **                                                                  **
 **        VIBRATIONAL FREQUENCIES (CM**-1) AND NORMAL MODES         **
 **     FORCE CONSTANTS (mDYN/ANGSTROM) AND REDUCED MASSES (AMU)     **
 **                  INFRARED INTENSITIES (KM/MOL)                   **
 **                                                                  **
 **********************************************************************
 

 Mode:                 1                      2                      3
 Frequency:       149.13                 512.92                 780.80
 Force Cnst:      0.0162                 0.3861                 0.4024
 Red. Mass:       1.2372                 2.4910                 1.1204
 IR Active:          YES                    YES                    YES
 IR Intens:        1.433                 14.558                  2.349
 Raman Active:       YES                    YES                    YES
               X      Y      Z        X      Y      Z        X      Y      Z
 O          0.000 -0.083  0.000    0.195  0.000 -0.102    0.000  0.028  0.000
 C          0.000  0.107  0.000   -0.181  0.000 -0.100    0.000 -0.061  0.000
 H          0.000  0.319  0.000   -0.282  0.000  0.094    0.000  0.611  0.000
 C          0.000 -0.002  0.000   -0.070  0.000  0.145    0.000 -0.074  0.000
 H          0.000  0.429  0.000   -0.409  0.000  0.634    0.000  0.283  0.000
 H         -0.156 -0.344 -0.453    0.287  0.018  0.173   -0.423  0.135  0.268
 H          0.156 -0.344  0.453    0.288 -0.018  0.173    0.423  0.135 -0.268
 TransDip   0.000  0.038  0.000   -0.115  0.000  0.041    0.000  0.049  0.000

 Mode:                 4                      5                      6
 Frequency:       913.46                1144.75                1146.97
 Force Cnst:      0.9843                 1.6038                 1.3828
 Red. Mass:       2.0022                 2.0772                 1.7840
 IR Active:          YES                    YES                    YES
 IR Intens:        6.065                 23.033                  0.341
 Raman Active:       YES                    YES                    YES
               X      Y      Z        X      Y      Z        X      Y      Z
 O          0.039  0.000 -0.102   -0.048  0.000  0.013    0.000 -0.048  0.000
 C          0.118  0.000 -0.060    0.240 -0.001 -0.002    0.001  0.220  0.000
 H          0.243  0.000 -0.293    0.262  0.004 -0.022    0.001 -0.712  0.000
 C         -0.107  0.000  0.213   -0.172  0.001 -0.081   -0.001 -0.138  0.000
 H          0.160  0.000 -0.192   -0.626 -0.002  0.575   -0.003  0.300  0.003
 H         -0.573 -0.046  0.150    0.162  0.131  0.113   -0.265  0.097  0.295
 H         -0.573  0.046  0.150    0.158 -0.132  0.117    0.267  0.096 -0.294
 TransDip   0.056  0.000 -0.056    0.149  0.000 -0.039    0.001  0.019  0.000

 Mode:                 7                      8                      9
 Frequency:      1387.54                1430.53                1463.72
 Force Cnst:      1.4489                 1.4909                 1.3334
 Red. Mass:       1.2774                 1.2365                 1.0563
 IR Active:          YES                    YES                    YES
 IR Intens:       26.240                 14.247                 23.709
 Raman Active:       YES                    YES                    YES
               X      Y      Z        X      Y      Z        X      Y      Z
 O          0.010  0.000  0.015   -0.039  0.000 -0.062   -0.002  0.000 -0.031
 C          0.012  0.000  0.004    0.093  0.000 -0.017    0.005  0.000  0.008
 H          0.195  0.000 -0.307   -0.379  0.000  0.850   -0.065  0.000  0.129
 C         -0.136  0.000  0.075   -0.025  0.000  0.062   -0.050  0.000 -0.021
 H          0.180  0.000 -0.375    0.078  0.000 -0.091    0.230  0.000 -0.405
 H          0.472 -0.226 -0.247    0.058 -0.157 -0.150    0.202  0.349  0.465
 H          0.472  0.226 -0.247    0.058  0.157 -0.150    0.202 -0.349  0.465
 TransDip   0.114  0.000 -0.118    0.113  0.000 -0.043    0.055  0.000  0.146

 Mode:                10                     11                     12
 Frequency:      1474.04                1872.91                2961.97
 Force Cnst:      1.3388                20.6172                 5.6053
 Red. Mass:       1.0458                 9.9758                 1.0844
 IR Active:          YES                    YES                    YES
 IR Intens:       12.298                202.563                 91.222
 Raman Active:       YES                    YES                    YES
               X      Y      Z        X      Y      Z        X      Y      Z
 O          0.000  0.003  0.000    0.002  0.000 -0.477    0.000  0.000 -0.001
 C          0.000 -0.028  0.000   -0.055  0.000  0.706   -0.074  0.000 -0.038
 H          0.000  0.078  0.000    0.373  0.000 -0.138    0.872  0.000  0.479
 C          0.000 -0.051  0.000    0.022  0.000 -0.053    0.002  0.000  0.003
 H          0.000  0.717  0.000   -0.127  0.000  0.205   -0.004  0.000 -0.006
 H          0.470  0.053  0.122    0.060 -0.064 -0.134   -0.006  0.035 -0.021
 H         -0.470  0.053 -0.122    0.060  0.064 -0.134   -0.006 -0.035 -0.021
 TransDip   0.000  0.112  0.000   -0.086  0.000  0.448   -0.264  0.000 -0.155

 Mode:                13                     14                     15
 Frequency:      3085.76                3162.07                3207.19
 Force Cnst:      5.8184                 6.4797                 6.6978
 Red. Mass:       1.0371                 1.0999                 1.1052
 IR Active:          YES                    YES                    YES
 IR Intens:        1.135                  3.105                  4.253
 Raman Active:       YES                    YES                    YES
               X      Y      Z        X      Y      Z        X      Y      Z
 O          0.000  0.000  0.000    0.000  0.000  0.000    0.000  0.000  0.001
 C          0.005  0.000  0.001    0.000 -0.001  0.000   -0.003  0.000 -0.003
 H         -0.040  0.000 -0.017    0.000  0.001  0.000    0.030  0.000  0.014
 C         -0.032  0.000  0.040    0.000 -0.092  0.000   -0.061  0.000 -0.072
 H          0.374  0.000  0.268    0.000 -0.014  0.000    0.730  0.000  0.507
 H         -0.004  0.508 -0.366   -0.001  0.559 -0.428   -0.006 -0.260  0.181
 H         -0.004 -0.508 -0.366    0.001  0.559  0.428   -0.006  0.260  0.181
 TransDip   0.011  0.000  0.032    0.000 -0.056  0.000   -0.058  0.000 -0.031

 STANDARD THERMODYNAMIC QUANTITIES AT   298.18 K  AND     1.00 ATM

   This Molecule has  0 Imaginary Frequencies
   Zero point vibrational energy:       35.301 kcal/mol

   Atom    1 Element O  Has Mass   15.99491
   Atom    2 Element C  Has Mass   12.00000
   Atom    3 Element H  Has Mass    1.00783
   Atom    4 Element C  Has Mass   12.00000
   Atom    5 Element H  Has Mass    1.00783
   Atom    6 Element H  Has Mass    1.00783
   Atom    7 Element H  Has Mass    1.00783
   Molecular Mass:    44.026230 amu
   Principal axes and moments of inertia in atomic units:
                             1           2           3
    Eigenvalues --       31.44188   175.49454   195.86210
          X              -0.54018     0.84155     0.00000
          Y               0.00000     0.00000     1.00000
          Z               0.84155     0.54018     0.00000
   Rotational Symmetry Number is   1
   The Molecule is an Asymmetric Top
   Translational Enthalpy:        0.889 kcal/mol
   Rotational Enthalpy:           0.889 kcal/mol
   Vibrational Enthalpy:         35.969 kcal/mol
   gas constant (RT):             0.593 kcal/mol
   Translational Entropy:        37.273  cal/mol.K
   Rotational Entropy:           21.607  cal/mol.K
   Vibrational Entropy:           3.833  cal/mol.K

   Total Enthalpy:               38.339 kcal/mol
   Total Entropy:                62.714  cal/mol.K
 Total job time:  4027.23s(wall), 3980.37s(cpu) 
 Fri Jul  5 01:09:16 2013

        *************************************************************
        *                                                           *
        *  Thank you very much for using Q-Chem.  Have a nice day.  *
        *                                                           *
        *************************************************************


0 sent ACK to 0 
now end server 0 ... 
