Process 0 of 1 is on cl118.stfx.acenet.ca - thread support 1
initial socket setup ...start
initial socket setup ...done 
now start server 0 ... 

cmd = /usr/bin/ssh clhead /usr/local/qchem/bin/get_hostid 1137865423 > /scratch/tmp/6022551.1.short.q/qchem10780/lic.dat
                  Welcome to Q-Chem
     A Quantum Leap Into The Future Of Chemistry

 Y. Shao, L. Fusti-Molnar, Y. Jung, J. Kussmann, C. Ochsenfeld,
 S. T. Brown, A. T. B. Gilbert, L. V. Slipchenko,S. V. Levchenko,
 D. P. O'Neill, R. A. DiStasio Jr., R. C. Lochan, T. Wang,
 G. J. O. Beran, N. A. Besley, J. M. Herbert, C. Y. Lin,
 T. Van Voorhis, S. H. Chien, A. Sodt, R. P. Steele, 
 V. A. Rassolov, P. E. Maslen, P. P. Korambath, R. D. Adamson,
 B. Austin, J. Baker, E. F. C. Byrd, H. Dachsel, R. J. Doerksen,
 A. Dreuw, B. D. Dunietz, A. D. Dutoi, T. R. Furlani,
 S. R. Gwaltney, A. Heyden, S. Hirata, C.-P. Hsu, G. Kedziora,
 R. Z. Khaliullin, P. Klunzinger, A. M. Lee, M. S. Lee, W. Liang,
 I. Lotan, N. Nair, B. Peters, E. I. Proynov, P. A. Pieniazek, 
 Y. M. Rhee, J. Ritchie, E. Rosta, C. D. Sherrill, 
 A. C. Simmonett, J. E. Subotnik, H. L. Woodcock III,
 W. Zhang, A. T. Bell, A. K. Chakraborty, D. M. Chipman,
 F. J. Keil, A. Warshel, W. J. Hehre, H. F. Schaefer III,
 J. Kong, A. I. Krylov, P. M. W. Gill, M. Head-Gordon,
 Q-Chem, Version 3.1, Q-Chem, Inc., Pittsburgh, PA (2007).

 Additional authors for Version 3.1: 
 Z. Gan, Y. Zhao, N. E. Schultz, D. Truhlar, E. Epifanovsky and M. Oana.

 Additional authors for Version 3.2: 
 R. Baer, B. R. Brooks, D. Casanova, J.-D. Chai, C.-L. Cheng, 
 C. Cramer, D. Crittenden, A. Ghysels, G. Hawkins, E. G. Hohenstein, 
 C. Kelley, W. Kurlancheek, D. Liotard, E. Livshits, P. Manohar, 
 A. Marenich, D. Neuhauser, R. Olson, M. A. Rohrdanz, K. S. Thanthiriwatte, 
 A. J. W. Thom, V. Vanovschi, C. F. Williams, Q. Wu and Z.-Q. You. 


 Intel X86 Linux Version

 Q-chem begins on Wed May 29 17:16:05 2013  

 Parallel job on  1  processors
Processing $rem in /usr/local/qchem/config/preferences.

theFileMan(): MAXOPENFILES=974 MAX_SUB_FILE_NUM=16
Maximum size of a physical file is 2.0 GB, maximum size of a tmp-file is 32.0 GB


--------------------------------------------------------------
User input:
--------------------------------------------------------------

$molecule
-1,2
C         -0.00010        0.00000       -0.00068
H          0.00009        0.00000        1.08600
F          1.24080        0.00000       -0.46442
F         -0.62040       -1.07469       -0.46450
F         -0.62040        1.07469       -0.46450
$end

$comment
negative
$end

$xc_functional
C PBE   1.00
X wPBE  1.00
$end

$rem
SYMMETRY_DECOMPOSITION	0
exchange 		general
LRC_DFT                 true
BASIS                   g3large
omega			540
mem_static              760
max_scf_cycles          200
scf_final_print         1
sym_ignore              true
$end

--------------------------------------------------------------
 Writing REM_CC_EA            5
 ----------------------------------------------------
       Standard Nuclear Orientation (Angstroms)
    I     Atom         X            Y            Z
 ----------------------------------------------------
    1      C      -0.000100     0.000000    -0.000680
    2      H       0.000090     0.000000     1.086000
    3      F       1.240800     0.000000    -0.464420
    4      F      -0.620400    -1.074690    -0.464500
    5      F      -0.620400     1.074690    -0.464500
 ----------------------------------------------------
 Nuclear Repulsion Energy =   134.6598960097 hartrees
 There are       18 alpha and       17 beta electrons
 Requested basis set is G3large
 There are 46 shells and 178 basis functions

Total QAlloc Memory Limit   2000 MB
Mega-Array Size       743 MB
MEM_STATIC part       760 MB

                       Distance Matrix (Angstroms)
             C (  1)   H (  2)   F (  3)   F (  4)
   H (  2)  1.086680
   F (  3)  1.324722  1.985740
   F (  4)  1.324711  1.985955  2.149191
   F (  5)  1.324711  1.985955  2.149191  2.149380
 
 A cutoff of  1.0D-08 yielded    973 shell pairs
 There are  14698 function pairs ( 18925 Cartesian)
Evaluating contribution to one-electron hamiltonian from nuclear
 Smallest overlap matrix eigenvalue = 9.19E-04
 Multipole matrices computed through 2nd order

  Scale SEOQF with 1.000000e-01/1.000000e-01/1.000000e-01

 Standard Electronic Orientation quadrupole field applied
 Nucleus-field energy     =     0.0000000015 hartrees
 Guess from superposition of atomic densities
 Warning:  Energy on first SCF cycle will be non-variational
 Long-range K will be added via erf
 Coulomb attenuation parameter = 0.54 bohr**(-1)
 An unrestricted Kohn-Sham SCF calculation will be
 performed using Pulay DIIS extrapolation
 Exchange:  wPBE + LR-HF      Correlation:  PBE
 Using SG-1 standard quadrature grid
 SCF converges when DIIS error is below 1.0E-05
 Requested basis set is G3large
 There are 46 shells and 178 basis functions
 A cutoff of  1.0D-08 yielded    973 shell pairs
 There are  14698 function pairs ( 18925 Cartesian)
 Warning!  Inaccurate integrated density:
   Number of electrons =    35
   Numerical integral  =    34.000037039428
   Relative error      =    -2.8570370302 %
 ---------------------------------------
  Cycle       Energy         DIIS Error
 ---------------------------------------
    1    -338.9751499258      3.41E-02
    2    -338.0399327851      6.58E-03
    3    -338.0870571129      5.83E-03
    4    -338.1588726557      4.84E-04
    5    -338.1599816477      1.87E-04
    6    -338.1602319136      6.14E-05
    7    -338.1602875295      2.80E-05
    8    -338.1603104410      9.32E-06 Convergence criterion met
 ---------------------------------------
 One-Electron    Energy =  -741.8418109114
 Total Coulomb   Energy =   306.2070930344
 Alpha Exchange  Energy =    -4.6585580748
 Beta  Exchange  Energy =    -4.5643275150
 DFT   Exchange  Energy =   -26.7765663087
 DFT Correlation Energy =    -1.1860366767
 Nuclear Repu.   Energy =   134.6598960112
 Nuclear Attr.   Energy = -1079.3375091644
 Kinetic         Energy =   337.4956982530
 <S^2> = 0.7501
 SCF time:  CPU 63.71 s  wall 64.23 s
 Final Alpha MO Eigenvalues
            1           2           3           4           5           6
    1 -24.4399621 -24.4399164 -24.4398860 -10.2831875  -1.3901944  -1.2874400
            7           8           9          10          11          12
    1  -1.2874036  -0.7670387  -0.6505585  -0.6358726  -0.6358554  -0.5101861
           13          14          15          16          17          18
    1  -0.5101666  -0.4682405  -0.4682202  -0.4463328  -0.4053173   0.0283110
           19          20          21          22          23
    1   0.1943771   0.2112777   0.2113031   0.2797760   0.3902578
 Final Beta MO Eigenvalues
            1           2           3           4           5           6
    1 -24.4399656 -24.4399203 -24.4398899 -10.2823511  -1.3899426  -1.2873885
            7           8           9          10          11          12
    1  -1.2873528  -0.7656224  -0.6482498  -0.6355440  -0.6355272  -0.5101150
           13          14          15          16          17          18
    1  -0.5100952  -0.4682120  -0.4681918  -0.4463768  -0.4034330   0.1843140
           19          20          21          22
    1   0.2148971   0.2223346   0.2223704   0.2967932
 Analysis of SCF Wavefunction
 
 --------------------------------------------------------------
                    Orbital Energies (a.u.)
 --------------------------------------------------------------
 
 Alpha MOs
 -- Occupied --
-24.440 -24.440 -24.440 -10.283  -1.390  -1.287  -1.287  -0.767
 -0.651  -0.636  -0.636  -0.510  -0.510  -0.468  -0.468  -0.446
 -0.405   0.028
 -- Virtual --
  0.194   0.211   0.211   0.280   0.390   0.405   0.405   0.435
  0.435   0.464   0.470   0.471   0.485   0.533   0.533   0.533
  0.561   0.612   0.627   0.628   0.759   0.814   0.814   0.891
  1.046   1.046   1.120   1.253   1.339   1.339   1.425   1.425
  1.510   1.510   1.580   1.580   1.602   1.664   1.691   1.715
  1.728   1.728   2.085   2.085   2.196   2.224   2.240   2.240
  2.292   2.346   2.346   2.424   2.548   2.548   2.801   2.801
  2.846   2.893   2.995   2.995   3.073   3.502   3.502   3.527
  3.645   3.645   3.712   3.712   3.847   3.990   4.011   4.011
  4.036   4.093   4.424   4.424   4.615   4.616   5.561   6.407
  6.407   6.491   6.508   6.508   6.513   6.819   6.860   6.860
  6.864   6.874   6.874   6.876   6.893   6.893   6.917   6.938
  6.938   7.027   7.027   7.080   7.267   7.267   7.335   7.502
  7.503   7.588   7.726   7.974   7.974   9.312   9.312   9.332
  9.405   9.405   9.468   9.668   9.735   9.735   9.832   9.989
 10.052  10.052  10.303  10.303  24.745  27.986  27.986  28.109
 40.990  41.016  41.156  41.267  41.356  50.278  50.288  50.312
 50.326  50.339  50.340  50.407  50.449  50.455  50.509  50.571
 50.591  50.594  50.649  50.663  55.766  55.766  55.828  55.839
 55.839  55.865  56.184  56.328  56.328  66.796  66.796  66.854
 
 Beta MOs
 -- Occupied --
-24.440 -24.440 -24.440 -10.282  -1.390  -1.287  -1.287  -0.766
 -0.648  -0.636  -0.636  -0.510  -0.510  -0.468  -0.468  -0.446
 -0.403
 -- Virtual --
  0.184   0.215   0.222   0.222   0.297   0.401   0.406   0.406
  0.435   0.435   0.465   0.472   0.472   0.486   0.533   0.534
  0.534   0.562   0.613   0.628   0.628   0.757   0.814   0.814
  0.891   1.046   1.046   1.120   1.254   1.339   1.340   1.425
  1.425   1.510   1.510   1.579   1.579   1.602   1.664   1.690
  1.715   1.728   1.728   2.085   2.085   2.197   2.225   2.240
  2.240   2.292   2.346   2.346   2.424   2.548   2.549   2.801
  2.801   2.845   2.893   2.996   2.996   3.074   3.504   3.504
  3.529   3.646   3.646   3.713   3.713   3.848   3.990   4.012
  4.012   4.037   4.093   4.424   4.424   4.615   4.615   5.563
  6.407   6.407   6.491   6.508   6.508   6.513   6.819   6.860
  6.860   6.864   6.874   6.874   6.875   6.893   6.893   6.917
  6.938   6.938   7.027   7.027   7.080   7.267   7.267   7.335
  7.502   7.503   7.588   7.726   7.974   7.975   9.312   9.312
  9.332   9.405   9.405   9.468   9.668   9.735   9.735   9.832
  9.989  10.052  10.052  10.303  10.304  24.746  27.987  27.987
 28.111  40.990  41.018  41.157  41.268  41.357  50.278  50.288
 50.312  50.326  50.339  50.340  50.407  50.449  50.455  50.508
 50.571  50.591  50.594  50.649  50.663  55.766  55.766  55.828
 55.839  55.839  55.865  56.184  56.328  56.328  66.796  66.796
 66.854
 --------------------------------------------------------------
 
          Ground-State Mulliken Net Atomic Charges

     Atom                 Charge (a.u.)    Spin (a.u.)
  --------------------------------------------------------
      1 C                     2.674398      -2.280419
      2 H                    -2.935346       3.141307
      3 F                    -0.246330       0.046412
      4 F                    -0.246379       0.046354
      5 F                    -0.246343       0.046346
  --------------------------------------------------------
  Sum of atomic charges =    -1.000000
  Sum of spin   charges =     1.000000

 -----------------------------------------------------------------
                    Cartesian Multipole Moments
 -----------------------------------------------------------------
    Charge (ESU x 10^10)
                -4.8032
    Dipole Moment (Debye)
         X      -0.0003      Y       0.0001      Z     -10.1531
       Tot      10.1531
    Quadrupole Moments (Debye-Ang)
        XX     -36.3547     XY       0.0000     YY     -36.3546
        XZ      -0.0016     YZ      -0.0004     ZZ     -62.2962
    Octapole Moments (Debye-Ang^2)
       XXX      -1.6153    XXY      -0.0003    XYY       1.6185
       YYY      -0.0010    XXZ     -24.3619    XYZ       0.0001
       YYZ     -24.3618    XZZ      -0.0030    YZZ      -0.0007
       ZZZ    -127.3621
    Hexadecapole Moments (Debye-Ang^3)
      XXXX    -197.1907   XXXY       0.0001   XXYY     -65.7331
      XYYY      -0.0002   YYYY    -197.2052   XXXZ      -0.1384
      XXYZ      -0.0006   XYYZ       0.1185   YYYZ      -0.0018
      XXZZ    -124.9946   XYZZ       0.0000   YYZZ    -124.9966
      XZZZ      -0.0228   YZZZ      -0.0018   ZZZZ    -637.0987
 -----------------------------------------------------------------
 Total job time:  64.45s(wall), 63.91s(cpu) 
 Wed May 29 17:17:09 2013

        *************************************************************
        *                                                           *
        *  Thank you very much for using Q-Chem.  Have a nice day.  *
        *                                                           *
        *************************************************************


0 sent ACK to 0 
now end server 0 ... 
 
**********************************************************************
Job 2 of 3 
**********************************************************************
 
Process 0 of 1 is on cl118.stfx.acenet.ca - thread support 1
initial socket setup ...start
initial socket setup ...done 
now start server 0 ... 

cmd = /usr/bin/ssh clhead /usr/local/qchem/bin/get_hostid 1931083896 > /scratch/tmp/6022551.1.short.q/qchem10780/lic.dat
                  Welcome to Q-Chem
     A Quantum Leap Into The Future Of Chemistry

 Y. Shao, L. Fusti-Molnar, Y. Jung, J. Kussmann, C. Ochsenfeld,
 S. T. Brown, A. T. B. Gilbert, L. V. Slipchenko,S. V. Levchenko,
 D. P. O'Neill, R. A. DiStasio Jr., R. C. Lochan, T. Wang,
 G. J. O. Beran, N. A. Besley, J. M. Herbert, C. Y. Lin,
 T. Van Voorhis, S. H. Chien, A. Sodt, R. P. Steele, 
 V. A. Rassolov, P. E. Maslen, P. P. Korambath, R. D. Adamson,
 B. Austin, J. Baker, E. F. C. Byrd, H. Dachsel, R. J. Doerksen,
 A. Dreuw, B. D. Dunietz, A. D. Dutoi, T. R. Furlani,
 S. R. Gwaltney, A. Heyden, S. Hirata, C.-P. Hsu, G. Kedziora,
 R. Z. Khaliullin, P. Klunzinger, A. M. Lee, M. S. Lee, W. Liang,
 I. Lotan, N. Nair, B. Peters, E. I. Proynov, P. A. Pieniazek, 
 Y. M. Rhee, J. Ritchie, E. Rosta, C. D. Sherrill, 
 A. C. Simmonett, J. E. Subotnik, H. L. Woodcock III,
 W. Zhang, A. T. Bell, A. K. Chakraborty, D. M. Chipman,
 F. J. Keil, A. Warshel, W. J. Hehre, H. F. Schaefer III,
 J. Kong, A. I. Krylov, P. M. W. Gill, M. Head-Gordon,
 Q-Chem, Version 3.1, Q-Chem, Inc., Pittsburgh, PA (2007).

 Additional authors for Version 3.1: 
 Z. Gan, Y. Zhao, N. E. Schultz, D. Truhlar, E. Epifanovsky and M. Oana.

 Additional authors for Version 3.2: 
 R. Baer, B. R. Brooks, D. Casanova, J.-D. Chai, C.-L. Cheng, 
 C. Cramer, D. Crittenden, A. Ghysels, G. Hawkins, E. G. Hohenstein, 
 C. Kelley, W. Kurlancheek, D. Liotard, E. Livshits, P. Manohar, 
 A. Marenich, D. Neuhauser, R. Olson, M. A. Rohrdanz, K. S. Thanthiriwatte, 
 A. J. W. Thom, V. Vanovschi, C. F. Williams, Q. Wu and Z.-Q. You. 


 Intel X86 Linux Version

 Q-chem begins on Wed May 29 17:17:12 2013  

 Parallel job on  1  processors
Processing $rem in /usr/local/qchem/config/preferences.

theFileMan(): MAXOPENFILES=974 MAX_SUB_FILE_NUM=16
Maximum size of a physical file is 2.0 GB, maximum size of a tmp-file is 32.0 GB


--------------------------------------------------------------
User input:
--------------------------------------------------------------

$molecule
0,1
C         -0.00010        0.00000       -0.00068
H          0.00009        0.00000        1.08600
F          1.24080        0.00000       -0.46442
F         -0.62040       -1.07469       -0.46450
F         -0.62040        1.07469       -0.46450
$end

$comment
neutral
$end

$xc_functional
C PBE   1.00
X wPBE  1.00
$end


$rem
SYMMETRY_DECOMPOSITION	0
LRC_DFT                 true
exchange 		general
BASIS                   g3large
omega			540
mem_static              760
max_scf_cycles          200
scf_final_print         1
sym_ignore              true
$end

--------------------------------------------------------------
 Writing REM_CC_EA            5
 ----------------------------------------------------
       Standard Nuclear Orientation (Angstroms)
    I     Atom         X            Y            Z
 ----------------------------------------------------
    1      C      -0.000100     0.000000    -0.000680
    2      H       0.000090     0.000000     1.086000
    3      F       1.240800     0.000000    -0.464420
    4      F      -0.620400    -1.074690    -0.464500
    5      F      -0.620400     1.074690    -0.464500
 ----------------------------------------------------
 Nuclear Repulsion Energy =   134.6598960097 hartrees
 There are       17 alpha and       17 beta electrons
 Requested basis set is G3large
 There are 46 shells and 178 basis functions

Total QAlloc Memory Limit   2000 MB
Mega-Array Size       743 MB
MEM_STATIC part       760 MB

                       Distance Matrix (Angstroms)
             C (  1)   H (  2)   F (  3)   F (  4)
   H (  2)  1.086680
   F (  3)  1.324722  1.985740
   F (  4)  1.324711  1.985955  2.149191
   F (  5)  1.324711  1.985955  2.149191  2.149380
 
 A cutoff of  1.0D-08 yielded    973 shell pairs
 There are  14698 function pairs ( 18925 Cartesian)
Evaluating contribution to one-electron hamiltonian from nuclear
 Smallest overlap matrix eigenvalue = 9.19E-04
 Multipole matrices computed through 2nd order

  Scale SEOQF with 1.000000e-01/1.000000e-01/1.000000e-01

 Standard Electronic Orientation quadrupole field applied
 Nucleus-field energy     =     0.0000000015 hartrees
 Guess from superposition of atomic densities
 Warning:  Energy on first SCF cycle will be non-variational
 Long-range K will be added via erf
 Coulomb attenuation parameter = 0.54 bohr**(-1)
 A restricted Kohn-Sham SCF calculation will be
 performed using Pulay DIIS extrapolation
 Exchange:  wPBE + LR-HF      Correlation:  PBE
 Using SG-1 standard quadrature grid
 SCF converges when DIIS error is below 1.0E-05
 Requested basis set is G3large
 There are 46 shells and 178 basis functions
 A cutoff of  1.0D-08 yielded    973 shell pairs
 There are  14698 function pairs ( 18925 Cartesian)
 ---------------------------------------
  Cycle       Energy         DIIS Error
 ---------------------------------------
    1    -338.9751499258      3.41E-02
    2    -338.0674074856      6.77E-03
    3    -338.1152098515      6.05E-03
    4    -338.1925150188      5.00E-04
    5    -338.1932918683      1.79E-04
    6    -338.1934039598      5.58E-05
    7    -338.1934136157      2.40E-05
    8    -338.1933983181      3.65E-06 Convergence criterion met
 ---------------------------------------
 One-Electron    Energy =  -736.9436739383
 Total Coulomb   Energy =   301.1600277026
 Alpha Exchange  Energy =    -4.5642583363
 Beta  Exchange  Energy =    -4.5642583363
 DFT   Exchange  Energy =   -26.7633143115
 DFT Correlation Energy =    -1.1778171096
 Nuclear Repu.   Energy =   134.6598960112
 Nuclear Attr.   Energy = -1074.3400259585
 Kinetic         Energy =   337.3963520202
 SCF time:  CPU 51.02 s  wall 51.48 s
 Final Alpha MO Eigenvalues
            1           2           3           4           5           6
    1 -24.5830261 -24.5830160 -24.5829968 -10.4436780  -1.5345322  -1.4308957
            7           8           9          10          11          12
    1  -1.4308673  -0.9154786  -0.8012763  -0.7788584  -0.7788447  -0.6513547
           13          14          15          16          17          18
    1  -0.6513344  -0.6104114  -0.6103991  -0.5875127  -0.5587922   0.0419988
           19          20          21          22
    1   0.0977798   0.0977856   0.0981084   0.1553032
 Analysis of SCF Wavefunction
 
 --------------------------------------------------------------
                    Orbital Energies (a.u.)
 --------------------------------------------------------------
 
 Alpha MOs
 -- Occupied --
-24.583 -24.583 -24.583 -10.444  -1.535  -1.431  -1.431  -0.915
 -0.801  -0.779  -0.779  -0.651  -0.651  -0.610  -0.610  -0.588
 -0.559
 -- Virtual --
  0.042   0.098   0.098   0.098   0.155   0.237   0.274   0.274
  0.302   0.302   0.333   0.338   0.338   0.366   0.404   0.404
  0.410   0.433   0.472   0.499   0.499   0.589   0.659   0.659
  0.746   0.890   0.891   0.977   1.099   1.183   1.183   1.269
  1.269   1.372   1.372   1.441   1.442   1.469   1.529   1.535
  1.552   1.589   1.589   1.945   1.945   2.053   2.079   2.098
  2.098   2.151   2.204   2.204   2.283   2.400   2.400   2.652
  2.652   2.682   2.746   2.840   2.840   2.925   3.346   3.346
  3.375   3.497   3.497   3.560   3.560   3.694   3.841   3.859
  3.859   3.879   3.930   4.278   4.278   4.443   4.443   5.392
  6.266   6.266   6.349   6.366   6.366   6.372   6.676   6.718
  6.718   6.723   6.732   6.732   6.734   6.751   6.751   6.775
  6.796   6.796   6.884   6.884   6.938   7.125   7.125   7.192
  7.358   7.359   7.442   7.582   7.830   7.830   9.170   9.170
  9.190   9.263   9.263   9.326   9.526   9.592   9.593   9.690
  9.847   9.909   9.909  10.161  10.161  24.586  27.826  27.827
 27.949  40.830  40.855  40.996  41.106  41.196  50.135  50.146
 50.170  50.183  50.196  50.197  50.264  50.306  50.312  50.365
 50.428  50.448  50.451  50.506  50.520  55.623  55.623  55.685
 55.696  55.696  55.722  56.041  56.185  56.185  66.653  66.653
 66.711
 --------------------------------------------------------------
 
          Ground-State Mulliken Net Atomic Charges

     Atom                 Charge (a.u.)
  ----------------------------------------
      1 C                     0.348412
      2 H                     0.165072
      3 F                    -0.171128
      4 F                    -0.171189
      5 F                    -0.171168
  ----------------------------------------
  Sum of atomic charges =     0.000000

 -----------------------------------------------------------------
                    Cartesian Multipole Moments
 -----------------------------------------------------------------
    Charge (ESU x 10^10)
                 0.0000
    Dipole Moment (Debye)
         X      -0.0004      Y       0.0001      Z       1.7137
       Tot       1.7137
    Quadrupole Moments (Debye-Ang)
        XX     -22.3127     XY       0.0001     YY     -22.3128
        XZ       0.0003     YZ      -0.0001     ZZ     -19.6982
    Octapole Moments (Debye-Ang^2)
       XXX      -1.2318    XXY       0.0000    XYY       1.2336
       YYY       0.0001    XXZ       6.9656    XYZ       0.0000
       YYZ       6.9655    XZZ       0.0007    YZZ       0.0000
       ZZZ      19.8177
    Hexadecapole Moments (Debye-Ang^3)
      XXXX     -83.6533   XXXY       0.0002   XXYY     -27.8874
      XYYY       0.0001   YYYY     -83.6687   XXXZ       0.0534
      XXYZ       0.0000   XYYZ      -0.0556   YYYZ      -0.0001
      XXZZ     -20.3332   XYZZ       0.0001   YYZZ     -20.3356
      XZZZ      -0.0011   YZZZ       0.0000   ZZZZ     -36.6194
 -----------------------------------------------------------------
 Total job time:  51.68s(wall), 51.21s(cpu) 
 Wed May 29 17:18:04 2013

        *************************************************************
        *                                                           *
        *  Thank you very much for using Q-Chem.  Have a nice day.  *
        *                                                           *
        *************************************************************


0 sent ACK to 0 
now end server 0 ... 
 
**********************************************************************
Job 3 of 3 
**********************************************************************
 
Process 0 of 1 is on cl118.stfx.acenet.ca - thread support 1
initial socket setup ...start
initial socket setup ...done 
now start server 0 ... 

cmd = /usr/bin/ssh clhead /usr/local/qchem/bin/get_hostid 1613731994 > /scratch/tmp/6022551.1.short.q/qchem10780/lic.dat
                  Welcome to Q-Chem
     A Quantum Leap Into The Future Of Chemistry

 Y. Shao, L. Fusti-Molnar, Y. Jung, J. Kussmann, C. Ochsenfeld,
 S. T. Brown, A. T. B. Gilbert, L. V. Slipchenko,S. V. Levchenko,
 D. P. O'Neill, R. A. DiStasio Jr., R. C. Lochan, T. Wang,
 G. J. O. Beran, N. A. Besley, J. M. Herbert, C. Y. Lin,
 T. Van Voorhis, S. H. Chien, A. Sodt, R. P. Steele, 
 V. A. Rassolov, P. E. Maslen, P. P. Korambath, R. D. Adamson,
 B. Austin, J. Baker, E. F. C. Byrd, H. Dachsel, R. J. Doerksen,
 A. Dreuw, B. D. Dunietz, A. D. Dutoi, T. R. Furlani,
 S. R. Gwaltney, A. Heyden, S. Hirata, C.-P. Hsu, G. Kedziora,
 R. Z. Khaliullin, P. Klunzinger, A. M. Lee, M. S. Lee, W. Liang,
 I. Lotan, N. Nair, B. Peters, E. I. Proynov, P. A. Pieniazek, 
 Y. M. Rhee, J. Ritchie, E. Rosta, C. D. Sherrill, 
 A. C. Simmonett, J. E. Subotnik, H. L. Woodcock III,
 W. Zhang, A. T. Bell, A. K. Chakraborty, D. M. Chipman,
 F. J. Keil, A. Warshel, W. J. Hehre, H. F. Schaefer III,
 J. Kong, A. I. Krylov, P. M. W. Gill, M. Head-Gordon,
 Q-Chem, Version 3.1, Q-Chem, Inc., Pittsburgh, PA (2007).

 Additional authors for Version 3.1: 
 Z. Gan, Y. Zhao, N. E. Schultz, D. Truhlar, E. Epifanovsky and M. Oana.

 Additional authors for Version 3.2: 
 R. Baer, B. R. Brooks, D. Casanova, J.-D. Chai, C.-L. Cheng, 
 C. Cramer, D. Crittenden, A. Ghysels, G. Hawkins, E. G. Hohenstein, 
 C. Kelley, W. Kurlancheek, D. Liotard, E. Livshits, P. Manohar, 
 A. Marenich, D. Neuhauser, R. Olson, M. A. Rohrdanz, K. S. Thanthiriwatte, 
 A. J. W. Thom, V. Vanovschi, C. F. Williams, Q. Wu and Z.-Q. You. 


 Intel X86 Linux Version

 Q-chem begins on Wed May 29 17:18:07 2013  

 Parallel job on  1  processors
Processing $rem in /usr/local/qchem/config/preferences.

theFileMan(): MAXOPENFILES=974 MAX_SUB_FILE_NUM=16
Maximum size of a physical file is 2.0 GB, maximum size of a tmp-file is 32.0 GB


--------------------------------------------------------------
User input:
--------------------------------------------------------------

$molecule
1,2
C         -0.00010        0.00000       -0.00068
H          0.00009        0.00000        1.08600
F          1.24080        0.00000       -0.46442
F         -0.62040       -1.07469       -0.46450
F         -0.62040        1.07469       -0.46450
$end

$comment
positive
$end

$xc_functional
C PBE   1.00
X wPBE  1.00
$end

$rem
SYMMETRY_DECOMPOSITION	0
LRC_DFT                 true
exchange 		general
BASIS                   g3large
omega			540
mem_static              760
max_scf_cycles          200
scf_final_print         1
sym_ignore              true
$end

--------------------------------------------------------------
 Writing REM_CC_EA            5
 ----------------------------------------------------
       Standard Nuclear Orientation (Angstroms)
    I     Atom         X            Y            Z
 ----------------------------------------------------
    1      C      -0.000100     0.000000    -0.000680
    2      H       0.000090     0.000000     1.086000
    3      F       1.240800     0.000000    -0.464420
    4      F      -0.620400    -1.074690    -0.464500
    5      F      -0.620400     1.074690    -0.464500
 ----------------------------------------------------
 Nuclear Repulsion Energy =   134.6598960097 hartrees
 There are       17 alpha and       16 beta electrons
 Requested basis set is G3large
 There are 46 shells and 178 basis functions

Total QAlloc Memory Limit   2000 MB
Mega-Array Size       743 MB
MEM_STATIC part       760 MB

                       Distance Matrix (Angstroms)
             C (  1)   H (  2)   F (  3)   F (  4)
   H (  2)  1.086680
   F (  3)  1.324722  1.985740
   F (  4)  1.324711  1.985955  2.149191
   F (  5)  1.324711  1.985955  2.149191  2.149380
 
 A cutoff of  1.0D-08 yielded    973 shell pairs
 There are  14698 function pairs ( 18925 Cartesian)
Evaluating contribution to one-electron hamiltonian from nuclear
 Smallest overlap matrix eigenvalue = 9.19E-04
 Multipole matrices computed through 2nd order

  Scale SEOQF with 1.000000e-01/1.000000e-01/1.000000e-01

 Standard Electronic Orientation quadrupole field applied
 Nucleus-field energy     =     0.0000000015 hartrees
 Guess from superposition of atomic densities
 Warning:  Energy on first SCF cycle will be non-variational
 Long-range K will be added via erf
 Coulomb attenuation parameter = 0.54 bohr**(-1)
 An unrestricted Kohn-Sham SCF calculation will be
 performed using Pulay DIIS extrapolation
 Exchange:  wPBE + LR-HF      Correlation:  PBE
 Using SG-1 standard quadrature grid
 SCF converges when DIIS error is below 1.0E-05
 Requested basis set is G3large
 There are 46 shells and 178 basis functions
 A cutoff of  1.0D-08 yielded    973 shell pairs
 There are  14698 function pairs ( 18925 Cartesian)
 Warning!  Inaccurate integrated density:
   Number of electrons =    33
   Numerical integral  =    34.000037039428
   Relative error      =     3.0304152710 %
 ---------------------------------------
  Cycle       Energy         DIIS Error
 ---------------------------------------
    1    -338.9751499258      3.41E-02
    2    -337.4394643723      7.37E-03
    3    -337.5193719591      6.84E-03
    4    -337.6304961309      1.13E-03
    5    -337.6338287229      3.21E-04
    6    -337.6346835631      2.07E-04
    7    -337.6350656193      7.28E-05
    8    -337.6354804684      5.21E-05
    9    -337.6357721612      4.94E-05
   10    -337.6359631459      2.60E-05
   11    -337.6360765642      1.85E-05
   12    -337.6360944645      1.23E-05
   13    -337.6361004567      8.17E-06 Convergence criterion met
 ---------------------------------------
 One-Electron    Energy =  -725.6955342601
 Total Coulomb   Energy =   289.9651217280
 Alpha Exchange  Energy =    -4.5894977380
 Beta  Exchange  Energy =    -4.2678987184
 DFT   Exchange  Energy =   -26.5682916331
 DFT Correlation Energy =    -1.1398958463
 Nuclear Repu.   Energy =   134.6598960112
 Nuclear Attr.   Energy = -1062.5191295982
 Kinetic         Energy =   336.8235953381
 <S^2> = 0.7599
 SCF time:  CPU 105.23 s  wall 106.09 s
 Final Alpha MO Eigenvalues
            1           2           3           4           5           6
    1 -24.9340036 -24.9334455 -24.9322626 -10.7972570  -1.8687840  -1.7655306
            7           8           9          10          11          12
    1  -1.7647086  -1.2692905  -1.1429234  -1.1050272  -1.1045961  -0.9825098
           13          14          15          16          17          18
    1  -0.9822562  -0.9356684  -0.9353086  -0.9264672  -0.9092769  -0.1371602
           19          20          21          22
    1  -0.0977471  -0.0976654  -0.0797689  -0.0160169
 Final Beta MO Eigenvalues
            1           2           3           4           5           6
    1 -24.9270106 -24.9265145 -24.9254580 -10.7962056  -1.8545849  -1.7484007
            7           8           9          10          11          12
    1  -1.7478510  -1.2185756  -1.1057192  -1.0892036  -1.0889619  -0.9483518
           13          14          15          16          17          18
    1  -0.9480948  -0.9017874  -0.8977175  -0.8976239  -0.5553220  -0.1300360
           19          20          21
    1  -0.0899681  -0.0899390  -0.0763784
 Analysis of SCF Wavefunction
 
 --------------------------------------------------------------
                    Orbital Energies (a.u.)
 --------------------------------------------------------------
 
 Alpha MOs
 -- Occupied --
-24.934 -24.933 -24.932 -10.797  -1.869  -1.766  -1.765  -1.269
 -1.143  -1.105  -1.105  -0.983  -0.982  -0.936  -0.935  -0.926
 -0.909
 -- Virtual --
 -0.137  -0.098  -0.098  -0.080  -0.016  -0.016  -0.014   0.003
  0.048   0.099   0.100   0.118   0.118   0.144   0.204   0.204
  0.214   0.220   0.259   0.275   0.275   0.289   0.387   0.387
  0.486   0.584   0.584   0.703   0.813   0.887   0.887   0.981
  0.981   1.100   1.100   1.161   1.161   1.201   1.232   1.258
  1.270   1.314   1.314   1.653   1.653   1.737   1.756   1.789
  1.790   1.854   1.891   1.891   1.976   2.078   2.079   2.316
  2.328   2.328   2.435   2.506   2.506   2.598   3.003   3.003
  3.042   3.178   3.178   3.223   3.223   3.358   3.519   3.525
  3.525   3.543   3.563   3.960   3.961   4.053   4.053   5.000
  5.936   5.936   6.013   6.030   6.031   6.052   6.344   6.390
  6.391   6.398   6.406   6.407   6.409   6.424   6.424   6.447
  6.469   6.470   6.552   6.553   6.615   6.803   6.804   6.857
  7.022   7.023   7.103   7.250   7.496   7.496   8.828   8.829
  8.849   8.919   8.920   8.981   9.194   9.252   9.252   9.346
  9.510   9.574   9.574   9.827   9.828  24.234  27.476  27.476
 27.593  40.478  40.497  40.642  40.751  40.844  49.782  49.793
 49.818  49.826  49.843  49.843  49.916  49.953  49.959  50.013
 50.077  50.098  50.100  50.155  50.170  55.274  55.274  55.331
 55.343  55.344  55.377  55.690  55.836  55.837  66.303  66.304
 66.363
 
 Beta MOs
 -- Occupied --
-24.927 -24.927 -24.925 -10.796  -1.855  -1.748  -1.748  -1.219
 -1.106  -1.089  -1.089  -0.948  -0.948  -0.902  -0.898  -0.898
 -- Virtual --
 -0.555  -0.130  -0.090  -0.090  -0.076  -0.010  -0.007  -0.007
  0.018   0.053   0.102   0.102   0.118   0.118   0.148   0.204
  0.205   0.214   0.224   0.260   0.277   0.277   0.327   0.390
  0.390   0.495   0.594   0.594   0.707   0.819   0.893   0.893
  0.991   0.991   1.105   1.105   1.174   1.174   1.213   1.247
  1.261   1.285   1.318   1.318   1.661   1.661   1.747   1.776
  1.798   1.798   1.865   1.899   1.899   1.979   2.094   2.094
  2.333   2.333   2.364   2.444   2.523   2.524   2.616   3.012
  3.012   3.055   3.180   3.180   3.238   3.238   3.372   3.517
  3.531   3.531   3.550   3.599   3.967   3.967   4.108   4.109
  5.056   5.950   5.950   6.035   6.052   6.052   6.057   6.362
  6.405   6.405   6.410   6.419   6.420   6.421   6.438   6.438
  6.463   6.481   6.482   6.568   6.569   6.624   6.808   6.809
  6.873   7.038   7.039   7.120   7.260   7.505   7.506   8.850
  8.851   8.870   8.944   8.944   9.009   9.206   9.274   9.274
  9.371   9.526   9.590   9.591   9.843   9.844  24.235  27.476
 27.476  27.599  40.477  40.502  40.644  40.754  40.844  49.798
 49.809  49.832  49.847  49.860  49.860  49.925  49.968  49.974
 50.028  50.090  50.109  50.112  50.168  50.182  55.282  55.283
 55.346  55.357  55.357  55.381  55.700  55.843  55.844  66.311
 66.312  66.370
 --------------------------------------------------------------
 
          Ground-State Mulliken Net Atomic Charges

     Atom                 Charge (a.u.)    Spin (a.u.)
  --------------------------------------------------------
      1 C                     0.337519      -0.003283
      2 H                     0.421442       0.292258
      3 F                     0.081528       0.239350
      4 F                     0.078870       0.234087
      5 F                     0.080642       0.237589
  --------------------------------------------------------
  Sum of atomic charges =     1.000000
  Sum of spin   charges =     1.000000

 -----------------------------------------------------------------
                    Cartesian Multipole Moments
 -----------------------------------------------------------------
    Charge (ESU x 10^10)
                 4.8032
    Dipole Moment (Debye)
         X       0.0095      Y       0.0088      Z       1.3200
       Tot       1.3200
    Quadrupole Moments (Debye-Ang)
        XX     -17.5555     XY      -0.0060     YY     -17.5687
        XZ      -0.0059     YZ      -0.0054     ZZ     -14.7397
    Octapole Moments (Debye-Ang^2)
       XXX       0.9015    XXY       0.0053    XYY      -0.8764
       YYY       0.0159    XXZ       4.8397    XYZ       0.0020
       YYZ       4.8442    XZZ       0.0076    YZZ       0.0063
       ZZZ      19.4081
    Hexadecapole Moments (Debye-Ang^3)
      XXXX     -70.9400   XXXY      -0.0074   XXYY     -23.6569
      XYYY      -0.0092   YYYY     -70.9903   XXXZ      -1.0640
      XXYZ      -0.0022   XYYZ       1.0518   YYYZ      -0.0066
      XXZZ     -16.3956   XYZZ      -0.0034   YYZZ     -16.4059
      XZZZ      -0.0119   YZZZ      -0.0099   ZZZZ     -26.1087
 -----------------------------------------------------------------
 Total job time:  106.30s(wall), 105.42s(cpu) 
 Wed May 29 17:19:53 2013

        *************************************************************
        *                                                           *
        *  Thank you very much for using Q-Chem.  Have a nice day.  *
        *                                                           *
        *************************************************************


0 sent ACK to 0 
now end server 0 ... 
