Process 0 of 1 is on cl244.stfx.acenet.ca - thread support 1
initial socket setup ...start
initial socket setup ...done 
now start server 0 ... 

cmd = /usr/bin/ssh clhead /usr/local/qchem/bin/get_hostid 1699015753 > /globalscratch/itamblyn/bnl/g297_b3lyp_neut_g03Large_worked/g2g71124/omega390/qchem8075/lic.dat
                  Welcome to Q-Chem
     A Quantum Leap Into The Future Of Chemistry

 Y. Shao, L. Fusti-Molnar, Y. Jung, J. Kussmann, C. Ochsenfeld,
 S. T. Brown, A. T. B. Gilbert, L. V. Slipchenko,S. V. Levchenko,
 D. P. O'Neill, R. A. DiStasio Jr., R. C. Lochan, T. Wang,
 G. J. O. Beran, N. A. Besley, J. M. Herbert, C. Y. Lin,
 T. Van Voorhis, S. H. Chien, A. Sodt, R. P. Steele, 
 V. A. Rassolov, P. E. Maslen, P. P. Korambath, R. D. Adamson,
 B. Austin, J. Baker, E. F. C. Byrd, H. Dachsel, R. J. Doerksen,
 A. Dreuw, B. D. Dunietz, A. D. Dutoi, T. R. Furlani,
 S. R. Gwaltney, A. Heyden, S. Hirata, C.-P. Hsu, G. Kedziora,
 R. Z. Khaliullin, P. Klunzinger, A. M. Lee, M. S. Lee, W. Liang,
 I. Lotan, N. Nair, B. Peters, E. I. Proynov, P. A. Pieniazek, 
 Y. M. Rhee, J. Ritchie, E. Rosta, C. D. Sherrill, 
 A. C. Simmonett, J. E. Subotnik, H. L. Woodcock III,
 W. Zhang, A. T. Bell, A. K. Chakraborty, D. M. Chipman,
 F. J. Keil, A. Warshel, W. J. Hehre, H. F. Schaefer III,
 J. Kong, A. I. Krylov, P. M. W. Gill, M. Head-Gordon,
 Q-Chem, Version 3.1, Q-Chem, Inc., Pittsburgh, PA (2007).

 Additional authors for Version 3.1: 
 Z. Gan, Y. Zhao, N. E. Schultz, D. Truhlar, E. Epifanovsky and M. Oana.

 Additional authors for Version 3.2: 
 R. Baer, B. R. Brooks, D. Casanova, J.-D. Chai, C.-L. Cheng, 
 C. Cramer, D. Crittenden, A. Ghysels, G. Hawkins, E. G. Hohenstein, 
 C. Kelley, W. Kurlancheek, D. Liotard, E. Livshits, P. Manohar, 
 A. Marenich, D. Neuhauser, R. Olson, M. A. Rohrdanz, K. S. Thanthiriwatte, 
 A. J. W. Thom, V. Vanovschi, C. F. Williams, Q. Wu and Z.-Q. You. 


 Intel X86 Linux Version

 Q-chem begins on Fri Apr 15 16:30:19 2011  

 Parallel job on  1  processors
Processing $rem in /usr/local/qchem/config/preferences.

theFileMan(): MAXOPENFILES=974 MAX_SUB_FILE_NUM=16
Maximum size of a physical file is 2.0 GB, maximum size of a tmp-file is 32.0 GB


--------------------------------------------------------------
User input:
--------------------------------------------------------------

$molecule
-1,2
C
O,1,co
F,1,cf,2,fco
C,1,cc,2,cco,3,180.,0
H,4,ch1,1,h1cc,2,0.,0
H,4,ch2,1,h2cc,2,hcco,0
H,4,ch2,1,h2cc,2,-hcco,0

co=1.19038568
cf=1.36270354
cc=1.50014117
ch1=1.09017909
ch2=1.0950597
fco=120.57845698
cco=129.08781785
h1cc=109.96680842
h2cc=109.64917534
hcco=121.23034195

$end

$comment
negative
$end

$xc_functional
   X HF 1.0
   X BNL 1.0
   C LYP 1.0
$end

$rem
SYMMETRY_DECOMPOSITION	0
exchange 		general
BASIS                   g3large
omega			390
separate_jk		true
mem_static              760
max_scf_cycles          200
scf_final_print         1
sym_ignore              true
$end

--------------------------------------------------------------
 Writing REM_CC_EA            7
 ----------------------------------------------------
       Standard Nuclear Orientation (Angstroms)
    I     Atom         X            Y            Z
 ----------------------------------------------------
    1      C       0.000000     0.000000     0.000000
    2      O       0.000000     0.000000     1.190386
    3      F       1.173197     0.000000    -0.693231
    4      C      -1.164380     0.000000    -0.945855
    5      H      -2.099381     0.000000    -0.385263
    6      H      -1.113052     0.881849    -1.593052
    7      H      -1.113052    -0.881849    -1.593052
 ----------------------------------------------------
 Nuclear Repulsion Energy =   118.2556110334 hartrees
 There are       17 alpha and       16 beta electrons
 Requested basis set is G3large
 There are 58 shells and 198 basis functions

Total QAlloc Memory Limit   2000 MB
Mega-Array Size       743 MB
MEM_STATIC part       760 MB

                       Distance Matrix (Angstroms)
             C (  1)   O (  2)   F (  3)   C (  4)   H (  5)   H (  6)
   O (  2)  1.190386
   F (  3)  1.362704  2.219100
   C (  4)  1.500141  2.432963  2.351188
   H (  5)  2.134439  2.624894  3.287037  1.090179
   H (  6)  2.134094  3.124751  2.610415  1.095060  1.791440
   H (  7)  2.134094  3.124751  2.610415  1.095060  1.791440  1.763697

 
 A cutoff of  1.0D-08 yielded   1555 shell pairs
 There are  18340 function pairs ( 23139 Cartesian)
Evaluating contribution to one-electron hamiltonian from nuclear
 Smallest overlap matrix eigenvalue = 1.33E-04
 Multipole matrices computed through 2nd order

  Scale SEOQF with 1.000000e-01/1.000000e-01/1.000000e-01

 Standard Electronic Orientation quadrupole field applied
 Nucleus-field energy     =    -0.0000000017 hartrees
 Guess from superposition of atomic densities
 Warning:  Energy on first SCF cycle will be non-variational
 An unrestricted hybrid HF-DFT SCF calculation will be
 performed using Pulay DIIS extrapolation
 Exchange:     1.0000 Hartree-Fock + 1.0000 BNL
 Correlation:  1.0000 LYP
 Using SG-1 standard quadrature grid
 SCF converges when DIIS error is below 1.0E-05
 Warning!  Inaccurate integrated density:
   Number of electrons =    33
   Numerical integral  =    31.999827969006
   Relative error      =    -3.0308243363 %
 ---------------------------------------
  Cycle       Energy         DIIS Error
 ---------------------------------------
    1    -251.5309105440      3.32E-02
    2    -250.5619399588      5.92E-03
    3    -250.3657527729      9.65E-03
    4    -250.7020964681      1.85E-03
    5    -250.7203099640      5.57E-04
    6    -250.7235008615      2.98E-04
    7    -250.7250645733      2.73E-04
    8    -250.7275459756      2.88E-04
    9    -250.7275501459      2.88E-04
   10    -250.7300601226      1.95E-04
   11    -250.7319700719      2.54E-04
   12    -250.7374048747      2.15E-04
   13    -250.7418563418      1.00E-04
   14    -250.7364020134      4.34E-04
   15    -250.7426448472      5.20E-04
   16    -250.7457722224      5.34E-04
   17    -250.7455198250      6.14E-04
   18    -250.7462304128      4.90E-04
   19    -250.7468793458      5.28E-04
   20    -250.7478976562      4.03E-04
   21    -250.7479464126      4.02E-04
   22    -250.7480183125      3.83E-04
   23    -250.7481693440      3.49E-04
   24    -250.7490419798      4.19E-05
   25    -250.7491233192      1.61E-05
   26    -250.7491286172      3.75E-06 Convergence criterion met
 ---------------------------------------
 One-Electron    Energy =  -585.3311827411
 Total Coulomb   Energy =   244.8582994615
 Alpha Exchange  Energy =    -3.2560922194
 Beta  Exchange  Energy =    -3.1841912424
 DFT   Exchange  Energy =   -20.9606622871
 DFT Correlation Energy =    -1.1309106203
 Nuclear Repu.   Energy =   118.2556110317
 Nuclear Attr.   Energy =  -835.1456863082
 Kinetic         Energy =   249.8145035671
 <S^2> = 0.7501
 SCF time:  CPU 319.67 s  wall 351.96 s
 Final Alpha MO Eigenvalues
            1           2           3           4           5           6
    1 -24.1676854 -18.6769597 -10.0176128  -9.8459031  -1.2220881  -1.0630072
            7           8           9          10          11          12
    1  -0.7647607  -0.6096117  -0.5118979  -0.5076130  -0.4943719  -0.4135468
           13          14          15          16          17          18
    1  -0.4034794  -0.3802614  -0.3636787  -0.3028580   0.0270506   0.1575598
           19          20          21          22
    1   0.1643804   0.1817298   0.2015946   0.2274965
 Final Beta MO Eigenvalues
            1           2           3           4           5           6
    1 -24.1675040 -18.6768541 -10.0175453  -9.8445623  -1.2217806  -1.0627671
            7           8           9          10          11          12
    1  -0.7631512  -0.6088727  -0.5112852  -0.5063126  -0.4941860  -0.4127854
           13          14          15          16          17          18
    1  -0.4027695  -0.3794910  -0.3632019  -0.3025056   0.1382256   0.1659033
           19          20          21
    1   0.1662930   0.1815105   0.2012917
 Analysis of SCF Wavefunction
 
 --------------------------------------------------------------
                    Orbital Energies (a.u.)
 --------------------------------------------------------------
 
 Alpha MOs
 -- Occupied --
-24.168 -18.677 -10.018  -9.846  -1.222  -1.063  -0.765  -0.610
 -0.512  -0.508  -0.494  -0.414  -0.403  -0.380  -0.364  -0.303
  0.027
 -- Virtual --
  0.158   0.164   0.182   0.202   0.227   0.236   0.237   0.263
  0.265   0.278   0.294   0.359   0.375   0.396   0.413   0.420
  0.429   0.455   0.462   0.491   0.494   0.512   0.534   0.590
  0.644   0.657   0.691   0.719   0.735   0.774   0.793   0.829
  0.847   0.855   0.884   0.953   0.975   0.990   1.099   1.104
  1.191   1.207   1.257   1.289   1.313   1.318   1.347   1.371
  1.395   1.442   1.469   1.546   1.567   1.599   1.600   1.632
  1.656   1.657   1.725   1.776   1.825   1.885   1.889   2.001
  2.105   2.174   2.283   2.357   2.405   2.465   2.668   2.760
  2.796   2.849   2.876   2.907   2.987   2.987   2.994   3.147
  3.161   3.248   3.263   3.334   3.346   3.373   3.483   3.518
  3.522   3.571   3.607   3.657   3.728   3.747   3.769   3.811
  3.826   3.952   4.063   4.115   4.170   4.217   4.324   4.380
  4.444   4.465   4.492   4.650   4.658   4.728   4.783   4.887
  5.177   5.284   5.292   5.339   5.387   5.643   5.685   5.858
  5.865   5.896   6.372   6.406   6.488   6.647   6.819   6.841
  6.847   6.947   6.967   7.059   7.097   7.153   7.254   7.421
  7.605   7.649   7.742   7.856   9.285   9.337   9.640   9.829
 10.133  24.537  24.865  27.449  27.872  28.245  28.295  28.330
 28.620  40.898  41.058  41.100  41.134  41.181  41.263  41.367
 41.381  41.463  41.495  43.780  43.853  43.960  44.031  44.041
 45.929  46.057  46.784  50.166  50.202  50.330  50.336  50.424
 50.556  55.813  55.886  56.236  67.047
 
 Beta MOs
 -- Occupied --
-24.168 -18.677 -10.018  -9.845  -1.222  -1.063  -0.763  -0.609
 -0.511  -0.506  -0.494  -0.413  -0.403  -0.379  -0.363  -0.303
 -- Virtual --
  0.138   0.166   0.166   0.182   0.201   0.219   0.227   0.232
  0.255   0.256   0.272   0.289   0.354   0.370   0.391   0.409
  0.415   0.422   0.447   0.459   0.483   0.489   0.505   0.528
  0.585   0.639   0.653   0.688   0.717   0.732   0.768   0.789
  0.825   0.845   0.853   0.878   0.951   0.973   0.990   1.098
  1.102   1.191   1.206   1.255   1.287   1.312   1.316   1.346
  1.370   1.393   1.441   1.467   1.544   1.565   1.598   1.599
  1.631   1.654   1.655   1.724   1.775   1.824   1.885   1.888
  2.001   2.105   2.172   2.283   2.357   2.405   2.465   2.668
  2.760   2.796   2.849   2.876   2.907   2.987   2.987   2.994
  3.147   3.161   3.248   3.264   3.335   3.346   3.374   3.484
  3.519   3.522   3.571   3.607   3.658   3.728   3.747   3.769
  3.811   3.826   3.953   4.064   4.116   4.171   4.217   4.324
  4.380   4.444   4.465   4.492   4.651   4.658   4.729   4.784
  4.887   5.176   5.284   5.292   5.339   5.387   5.643   5.686
  5.859   5.866   5.896   6.372   6.406   6.488   6.647   6.819
  6.841   6.847   6.947   6.967   7.059   7.097   7.153   7.254
  7.422   7.606   7.649   7.742   7.856   9.286   9.338   9.640
  9.829  10.133  24.539  24.865  27.449  27.873  28.245  28.296
 28.332  28.620  40.898  41.059  41.100  41.134  41.181  41.263
 41.367  41.381  41.464  41.496  43.780  43.853  43.960  44.032
 44.041  45.929  46.057  46.785  50.166  50.203  50.330  50.336
 50.424  50.557  55.813  55.886  56.236  67.048
 --------------------------------------------------------------
 
          Ground-State Mulliken Net Atomic Charges

     Atom                 Charge (a.u.)    Spin (a.u.)
  --------------------------------------------------------
      1 C                    -0.625673       0.871273
      2 O                    -0.326760      -0.009145
      3 F                    -0.167350       0.023407
      4 C                     3.600745      -3.820112
      5 H                    -0.721407       0.854834
      6 H                    -1.378453       1.538482
      7 H                    -1.381101       1.541261
  --------------------------------------------------------
  Sum of atomic charges =    -1.000000
  Sum of spin   charges =     1.000000

 -----------------------------------------------------------------
                    Cartesian Multipole Moments
 -----------------------------------------------------------------
    Charge (ESU x 10^10)
                -4.8032
    Dipole Moment (Debye)
         X       5.7155      Y       0.0061      Z       5.6893
       Tot       8.0645
    Quadrupole Moments (Debye-Ang)
        XX     -54.6368     XY      -0.0056     YY     -47.4465
        XZ      -9.6291     YZ      -0.0151     ZZ     -58.8396
    Octapole Moments (Debye-Ang^2)
       XXX     113.4047    XXY       0.0229    XYY      39.1901
       YYY       0.0702    XXZ      46.4489    XYZ       0.0166
       YYZ      46.1110    XZZ      49.5067    YZZ       0.0503
       ZZZ     121.7302
    Hexadecapole Moments (Debye-Ang^3)
      XXXX    -621.8684   XXXY      -0.0566   XXYY    -157.6187
      XYYY      -0.0670   YYYY    -318.3303   XXXZ    -145.0918
      XXYZ      -0.0574   XYYZ     -59.6188   YYYZ      -0.1463
      XXZZ    -219.2884   XYZZ      -0.0546   YYZZ    -176.8836
      XZZZ    -165.2475   YZZZ      -0.1816   ZZZZ    -656.4532
 -----------------------------------------------------------------
 Total job time:  354.15s(wall), 319.91s(cpu) 
 Fri Apr 15 16:36:13 2011

        *************************************************************
        *                                                           *
        *  Thank you very much for using Q-Chem.  Have a nice day.  *
        *                                                           *
        *************************************************************


0 sent ACK to 0 
now end server 0 ... 
 
**********************************************************************
Job 2 of 3 
**********************************************************************
 
Process 0 of 1 is on cl244.stfx.acenet.ca - thread support 1
initial socket setup ...start
initial socket setup ...done 
now start server 0 ... 

cmd = /usr/bin/ssh clhead /usr/local/qchem/bin/get_hostid 487306684 > /globalscratch/itamblyn/bnl/g297_b3lyp_neut_g03Large_worked/g2g71124/omega390/qchem8075/lic.dat
                  Welcome to Q-Chem
     A Quantum Leap Into The Future Of Chemistry

 Y. Shao, L. Fusti-Molnar, Y. Jung, J. Kussmann, C. Ochsenfeld,
 S. T. Brown, A. T. B. Gilbert, L. V. Slipchenko,S. V. Levchenko,
 D. P. O'Neill, R. A. DiStasio Jr., R. C. Lochan, T. Wang,
 G. J. O. Beran, N. A. Besley, J. M. Herbert, C. Y. Lin,
 T. Van Voorhis, S. H. Chien, A. Sodt, R. P. Steele, 
 V. A. Rassolov, P. E. Maslen, P. P. Korambath, R. D. Adamson,
 B. Austin, J. Baker, E. F. C. Byrd, H. Dachsel, R. J. Doerksen,
 A. Dreuw, B. D. Dunietz, A. D. Dutoi, T. R. Furlani,
 S. R. Gwaltney, A. Heyden, S. Hirata, C.-P. Hsu, G. Kedziora,
 R. Z. Khaliullin, P. Klunzinger, A. M. Lee, M. S. Lee, W. Liang,
 I. Lotan, N. Nair, B. Peters, E. I. Proynov, P. A. Pieniazek, 
 Y. M. Rhee, J. Ritchie, E. Rosta, C. D. Sherrill, 
 A. C. Simmonett, J. E. Subotnik, H. L. Woodcock III,
 W. Zhang, A. T. Bell, A. K. Chakraborty, D. M. Chipman,
 F. J. Keil, A. Warshel, W. J. Hehre, H. F. Schaefer III,
 J. Kong, A. I. Krylov, P. M. W. Gill, M. Head-Gordon,
 Q-Chem, Version 3.1, Q-Chem, Inc., Pittsburgh, PA (2007).

 Additional authors for Version 3.1: 
 Z. Gan, Y. Zhao, N. E. Schultz, D. Truhlar, E. Epifanovsky and M. Oana.

 Additional authors for Version 3.2: 
 R. Baer, B. R. Brooks, D. Casanova, J.-D. Chai, C.-L. Cheng, 
 C. Cramer, D. Crittenden, A. Ghysels, G. Hawkins, E. G. Hohenstein, 
 C. Kelley, W. Kurlancheek, D. Liotard, E. Livshits, P. Manohar, 
 A. Marenich, D. Neuhauser, R. Olson, M. A. Rohrdanz, K. S. Thanthiriwatte, 
 A. J. W. Thom, V. Vanovschi, C. F. Williams, Q. Wu and Z.-Q. You. 


 Intel X86 Linux Version

 Q-chem begins on Fri Apr 15 16:36:16 2011  

 Parallel job on  1  processors
Processing $rem in /usr/local/qchem/config/preferences.

theFileMan(): MAXOPENFILES=974 MAX_SUB_FILE_NUM=16
Maximum size of a physical file is 2.0 GB, maximum size of a tmp-file is 32.0 GB


--------------------------------------------------------------
User input:
--------------------------------------------------------------

$molecule
0,1
C
O,1,co
F,1,cf,2,fco
C,1,cc,2,cco,3,180.,0
H,4,ch1,1,h1cc,2,0.,0
H,4,ch2,1,h2cc,2,hcco,0
H,4,ch2,1,h2cc,2,-hcco,0

co=1.19038568
cf=1.36270354
cc=1.50014117
ch1=1.09017909
ch2=1.0950597
fco=120.57845698
cco=129.08781785
h1cc=109.96680842
h2cc=109.64917534
hcco=121.23034195

$end

$comment
neutral
$end

$xc_functional
   X HF 1.0
   X BNL 1.0
   C LYP 1.0
$end

$rem
SYMMETRY_DECOMPOSITION	0
exchange 		general
BASIS                   g3large
omega			390
separate_jk		true
mem_static              760
max_scf_cycles          200
scf_final_print         1
sym_ignore              true
$end

--------------------------------------------------------------
 Writing REM_CC_EA            7
 ----------------------------------------------------
       Standard Nuclear Orientation (Angstroms)
    I     Atom         X            Y            Z
 ----------------------------------------------------
    1      C       0.000000     0.000000     0.000000
    2      O       0.000000     0.000000     1.190386
    3      F       1.173197     0.000000    -0.693231
    4      C      -1.164380     0.000000    -0.945855
    5      H      -2.099381     0.000000    -0.385263
    6      H      -1.113052     0.881849    -1.593052
    7      H      -1.113052    -0.881849    -1.593052
 ----------------------------------------------------
 Nuclear Repulsion Energy =   118.2556110334 hartrees
 There are       16 alpha and       16 beta electrons
 Requested basis set is G3large
 There are 58 shells and 198 basis functions

Total QAlloc Memory Limit   2000 MB
Mega-Array Size       743 MB
MEM_STATIC part       760 MB

                       Distance Matrix (Angstroms)
             C (  1)   O (  2)   F (  3)   C (  4)   H (  5)   H (  6)
   O (  2)  1.190386
   F (  3)  1.362704  2.219100
   C (  4)  1.500141  2.432963  2.351188
   H (  5)  2.134439  2.624894  3.287037  1.090179
   H (  6)  2.134094  3.124751  2.610415  1.095060  1.791440
   H (  7)  2.134094  3.124751  2.610415  1.095060  1.791440  1.763697

 
 A cutoff of  1.0D-08 yielded   1555 shell pairs
 There are  18340 function pairs ( 23139 Cartesian)
Evaluating contribution to one-electron hamiltonian from nuclear
 Smallest overlap matrix eigenvalue = 1.33E-04
 Multipole matrices computed through 2nd order

  Scale SEOQF with 1.000000e-01/1.000000e-01/1.000000e-01

 Standard Electronic Orientation quadrupole field applied
 Nucleus-field energy     =    -0.0000000017 hartrees
 Guess from superposition of atomic densities
 Warning:  Energy on first SCF cycle will be non-variational
 A restricted hybrid HF-DFT SCF calculation will be
 performed using Pulay DIIS extrapolation
 Exchange:     1.0000 Hartree-Fock + 1.0000 BNL
 Correlation:  1.0000 LYP
 Using SG-1 standard quadrature grid
 SCF converges when DIIS error is below 1.0E-05
 ---------------------------------------
  Cycle       Energy         DIIS Error
 ---------------------------------------
    1    -251.5309105440      3.32E-02
    2    -250.6416029177      5.88E-03
    3    -250.5911287852      7.72E-03
    4    -250.7734979185      8.22E-04
    5    -250.7753607764      4.66E-04
    6    -250.7760010846      1.24E-04
    7    -250.7760647271      3.93E-05
    8    -250.7760754322      8.49E-06 Convergence criterion met
 ---------------------------------------
 One-Electron    Energy =  -580.8934642136
 Total Coulomb   Energy =   240.3055596799
 Alpha Exchange  Energy =    -3.1854799384
 Beta  Exchange  Energy =    -3.1854799384
 DFT   Exchange  Energy =   -20.9483992977
 DFT Correlation Energy =    -1.1244227559
 Nuclear Repu.   Energy =   118.2556110317
 Nuclear Attr.   Energy =  -830.6140449595
 Kinetic         Energy =   249.7205807459
 SCF time:  CPU 76.98 s  wall 85.42 s
 Final Alpha MO Eigenvalues
            1           2           3           4           5           6
    1 -24.3008015 -18.8104813 -10.1543396 -10.0050974  -1.3553707  -1.1959882
            7           8           9          10          11          12
    1  -0.9152820  -0.7453291  -0.6516255  -0.6486021  -0.6269173  -0.5595108
           13          14          15          16          17          18
    1  -0.5517912  -0.5229913  -0.5013991  -0.4370081   0.0249787   0.0512303
           19          20          21
    1   0.0615100   0.0702976   0.0786352
 Analysis of SCF Wavefunction
 
 --------------------------------------------------------------
                    Orbital Energies (a.u.)
 --------------------------------------------------------------
 
 Alpha MOs
 -- Occupied --
-24.301 -18.810 -10.154 -10.005  -1.355  -1.196  -0.915  -0.745
 -0.652  -0.649  -0.627  -0.560  -0.552  -0.523  -0.501  -0.437
 -- Virtual --
  0.025   0.051   0.062   0.070   0.079   0.115   0.117   0.122
  0.132   0.135   0.153   0.173   0.220   0.230   0.272   0.282
  0.298   0.308   0.316   0.346   0.356   0.368   0.388   0.413
  0.452   0.494   0.518   0.545   0.570   0.585   0.626   0.645
  0.686   0.705   0.718   0.735   0.816   0.831   0.848   0.940
  0.960   1.043   1.062   1.124   1.158   1.173   1.175   1.213
  1.219   1.248   1.293   1.320   1.400   1.436   1.446   1.463
  1.495   1.502   1.512   1.577   1.633   1.675   1.752   1.755
  1.868   1.972   2.038   2.148   2.215   2.263   2.329   2.533
  2.617   2.657   2.702   2.725   2.769   2.839   2.839   2.858
  3.004   3.007   3.106   3.116   3.180   3.197   3.221   3.336
  3.374   3.378   3.424   3.464   3.509   3.591   3.605   3.627
  3.664   3.675   3.805   3.909   3.961   4.024   4.067   4.171
  4.230   4.290   4.322   4.339   4.496   4.500   4.572   4.632
  4.738   5.045   5.152   5.161   5.201   5.244   5.510   5.552
  5.702   5.708   5.757   6.239   6.274   6.355   6.514   6.687
  6.709   6.714   6.815   6.834   6.926   6.965   7.020   7.121
  7.290   7.474   7.516   7.609   7.725   9.153   9.205   9.507
  9.696  10.001  24.380  24.727  27.312  27.726  28.106  28.136
 28.172  28.473  40.761  40.900  40.962  40.976  41.045  41.126
 41.222  41.226  41.304  41.341  43.646  43.719  43.827  43.898
 43.908  45.795  45.923  46.651  50.033  50.070  50.197  50.203
 50.291  50.423  55.680  55.753  56.103  66.914
 --------------------------------------------------------------
 
          Ground-State Mulliken Net Atomic Charges

     Atom                 Charge (a.u.)
  ----------------------------------------
      1 C                     0.240441
      2 O                    -0.295591
      3 F                    -0.132781
      4 C                    -0.262272
      5 H                     0.145998
      6 H                     0.152110
      7 H                     0.152094
  ----------------------------------------
  Sum of atomic charges =     0.000000

 -----------------------------------------------------------------
                    Cartesian Multipole Moments
 -----------------------------------------------------------------
    Charge (ESU x 10^10)
                 0.0000
    Dipole Moment (Debye)
         X      -2.1051      Y       0.0004      Z      -2.3858
       Tot       3.1817
    Quadrupole Moments (Debye-Ang)
        XX     -23.0235     XY       0.0000     YY     -21.8782
        XZ       1.8314     YZ      -0.0001     ZZ     -25.1202
    Octapole Moments (Debye-Ang^2)
       XXX       4.9099    XXY       0.0005    XYY       2.9299
       YYY       0.0001    XXZ       4.3289    XYZ       0.0003
       YYZ       2.9670    XZZ       1.2638    YZZ       0.0004
       ZZZ       7.7175
    Hexadecapole Moments (Debye-Ang^3)
      XXXX    -131.3101   XXXY      -0.0003   XXYY     -27.5772
      XYYY       0.0001   YYYY     -26.3536   XXXZ     -14.6023
      XXYZ      -0.0005   XYYZ      -3.3740   YYYZ      -0.0002
      XXZZ     -46.1091   XYZZ      -0.0002   YYZZ     -24.2134
      XZZZ     -11.8208   YZZZ      -0.0002   ZZZZ    -137.7261
 -----------------------------------------------------------------
 Total job time:  86.63s(wall), 77.21s(cpu) 
 Fri Apr 15 16:37:43 2011

        *************************************************************
        *                                                           *
        *  Thank you very much for using Q-Chem.  Have a nice day.  *
        *                                                           *
        *************************************************************


0 sent ACK to 0 
now end server 0 ... 
 
**********************************************************************
Job 3 of 3 
**********************************************************************
 
Process 0 of 1 is on cl244.stfx.acenet.ca - thread support 1
initial socket setup ...start
initial socket setup ...done 
now start server 0 ... 

cmd = /usr/bin/ssh clhead /usr/local/qchem/bin/get_hostid 1341212303 > /globalscratch/itamblyn/bnl/g297_b3lyp_neut_g03Large_worked/g2g71124/omega390/qchem8075/lic.dat
                  Welcome to Q-Chem
     A Quantum Leap Into The Future Of Chemistry

 Y. Shao, L. Fusti-Molnar, Y. Jung, J. Kussmann, C. Ochsenfeld,
 S. T. Brown, A. T. B. Gilbert, L. V. Slipchenko,S. V. Levchenko,
 D. P. O'Neill, R. A. DiStasio Jr., R. C. Lochan, T. Wang,
 G. J. O. Beran, N. A. Besley, J. M. Herbert, C. Y. Lin,
 T. Van Voorhis, S. H. Chien, A. Sodt, R. P. Steele, 
 V. A. Rassolov, P. E. Maslen, P. P. Korambath, R. D. Adamson,
 B. Austin, J. Baker, E. F. C. Byrd, H. Dachsel, R. J. Doerksen,
 A. Dreuw, B. D. Dunietz, A. D. Dutoi, T. R. Furlani,
 S. R. Gwaltney, A. Heyden, S. Hirata, C.-P. Hsu, G. Kedziora,
 R. Z. Khaliullin, P. Klunzinger, A. M. Lee, M. S. Lee, W. Liang,
 I. Lotan, N. Nair, B. Peters, E. I. Proynov, P. A. Pieniazek, 
 Y. M. Rhee, J. Ritchie, E. Rosta, C. D. Sherrill, 
 A. C. Simmonett, J. E. Subotnik, H. L. Woodcock III,
 W. Zhang, A. T. Bell, A. K. Chakraborty, D. M. Chipman,
 F. J. Keil, A. Warshel, W. J. Hehre, H. F. Schaefer III,
 J. Kong, A. I. Krylov, P. M. W. Gill, M. Head-Gordon,
 Q-Chem, Version 3.1, Q-Chem, Inc., Pittsburgh, PA (2007).

 Additional authors for Version 3.1: 
 Z. Gan, Y. Zhao, N. E. Schultz, D. Truhlar, E. Epifanovsky and M. Oana.

 Additional authors for Version 3.2: 
 R. Baer, B. R. Brooks, D. Casanova, J.-D. Chai, C.-L. Cheng, 
 C. Cramer, D. Crittenden, A. Ghysels, G. Hawkins, E. G. Hohenstein, 
 C. Kelley, W. Kurlancheek, D. Liotard, E. Livshits, P. Manohar, 
 A. Marenich, D. Neuhauser, R. Olson, M. A. Rohrdanz, K. S. Thanthiriwatte, 
 A. J. W. Thom, V. Vanovschi, C. F. Williams, Q. Wu and Z.-Q. You. 


 Intel X86 Linux Version

 Q-chem begins on Fri Apr 15 16:37:46 2011  

 Parallel job on  1  processors
Processing $rem in /usr/local/qchem/config/preferences.

theFileMan(): MAXOPENFILES=974 MAX_SUB_FILE_NUM=16
Maximum size of a physical file is 2.0 GB, maximum size of a tmp-file is 32.0 GB


--------------------------------------------------------------
User input:
--------------------------------------------------------------

$molecule
1,2
C
O,1,co
F,1,cf,2,fco
C,1,cc,2,cco,3,180.,0
H,4,ch1,1,h1cc,2,0.,0
H,4,ch2,1,h2cc,2,hcco,0
H,4,ch2,1,h2cc,2,-hcco,0

co=1.19038568
cf=1.36270354
cc=1.50014117
ch1=1.09017909
ch2=1.0950597
fco=120.57845698
cco=129.08781785
h1cc=109.96680842
h2cc=109.64917534
hcco=121.23034195

$end

$comment
positive
$end

$xc_functional
   X HF 1.0
   X BNL 1.0
   C LYP 1.0
$end

$rem
SYMMETRY_DECOMPOSITION	0
exchange 		general
BASIS                   g3large
omega			390
separate_jk		true
mem_static              760
max_scf_cycles          200
scf_final_print         1
sym_ignore              true
$end

--------------------------------------------------------------
 Writing REM_CC_EA            7
 ----------------------------------------------------
       Standard Nuclear Orientation (Angstroms)
    I     Atom         X            Y            Z
 ----------------------------------------------------
    1      C       0.000000     0.000000     0.000000
    2      O       0.000000     0.000000     1.190386
    3      F       1.173197     0.000000    -0.693231
    4      C      -1.164380     0.000000    -0.945855
    5      H      -2.099381     0.000000    -0.385263
    6      H      -1.113052     0.881849    -1.593052
    7      H      -1.113052    -0.881849    -1.593052
 ----------------------------------------------------
 Nuclear Repulsion Energy =   118.2556110334 hartrees
 There are       16 alpha and       15 beta electrons
 Requested basis set is G3large
 There are 58 shells and 198 basis functions

Total QAlloc Memory Limit   2000 MB
Mega-Array Size       743 MB
MEM_STATIC part       760 MB

                       Distance Matrix (Angstroms)
             C (  1)   O (  2)   F (  3)   C (  4)   H (  5)   H (  6)
   O (  2)  1.190386
   F (  3)  1.362704  2.219100
   C (  4)  1.500141  2.432963  2.351188
   H (  5)  2.134439  2.624894  3.287037  1.090179
   H (  6)  2.134094  3.124751  2.610415  1.095060  1.791440
   H (  7)  2.134094  3.124751  2.610415  1.095060  1.791440  1.763697

 
 A cutoff of  1.0D-08 yielded   1555 shell pairs
 There are  18340 function pairs ( 23139 Cartesian)
Evaluating contribution to one-electron hamiltonian from nuclear
 Smallest overlap matrix eigenvalue = 1.33E-04
 Multipole matrices computed through 2nd order

  Scale SEOQF with 1.000000e-01/1.000000e-01/1.000000e-01

 Standard Electronic Orientation quadrupole field applied
 Nucleus-field energy     =    -0.0000000017 hartrees
 Guess from superposition of atomic densities
 Warning:  Energy on first SCF cycle will be non-variational
 An unrestricted hybrid HF-DFT SCF calculation will be
 performed using Pulay DIIS extrapolation
 Exchange:     1.0000 Hartree-Fock + 1.0000 BNL
 Correlation:  1.0000 LYP
 Using SG-1 standard quadrature grid
 SCF converges when DIIS error is below 1.0E-05
 Warning!  Inaccurate integrated density:
   Number of electrons =    31
   Numerical integral  =    31.999827969006
   Relative error      =     3.2252515129 %
 ---------------------------------------
  Cycle       Energy         DIIS Error
 ---------------------------------------
    1    -251.5309105440      3.32E-02
    2    -250.1927995102      5.04E-03
    3    -250.2404492843      4.98E-03
    4    -250.3214334722      1.01E-03
    5    -250.3268834354      4.05E-04
    6    -250.3293897108      1.86E-04
    7    -250.3303884953      1.42E-04
    8    -250.3313895920      6.96E-05
    9    -250.3318092492      2.72E-05
   10    -250.3318614903      1.23E-05
   11    -250.3318720897      5.33E-06 Convergence criterion met
 ---------------------------------------
 One-Electron    Energy =  -571.1300317433
 Total Coulomb   Energy =   230.5902646698
 Alpha Exchange  Energy =    -3.2042986655
 Beta  Exchange  Energy =    -2.9863593865
 DFT   Exchange  Energy =   -20.7712435916
 DFT Correlation Energy =    -1.0858144042
 Nuclear Repu.   Energy =   118.2556110317
 Nuclear Attr.   Energy =  -820.4592363875
 Kinetic         Energy =   249.3292046442
 <S^2> = 0.7562
 SCF time:  CPU 132.93 s  wall 155.68 s
 Final Alpha MO Eigenvalues
            1           2           3           4           5           6
    1 -24.6016774 -19.2457996 -10.4795076 -10.2605802  -1.6581249  -1.5790407
            7           8           9          10          11          12
    1  -1.1868611  -1.0417420  -0.9879653  -0.9550420  -0.9467210  -0.8492204
           13          14          15          16          17          18
    1  -0.8373660  -0.8071067  -0.7895294  -0.7813240  -0.2423902  -0.1337548
           19          20          21
    1  -0.0825831  -0.0817009  -0.0785462
 Final Beta MO Eigenvalues
            1           2           3           4           5           6
    1 -24.5981735 -19.2218067 -10.4810565 -10.2582826  -1.6460466  -1.5426120
            7           8           9          10          11          12
    1  -1.1737929  -1.0176830  -0.9515219  -0.9443358  -0.9059918  -0.8235438
           13          14          15          16          17          18
    1  -0.8211721  -0.7838191  -0.7778116  -0.4531637  -0.2358603  -0.1319934
           19          20
    1  -0.0812312  -0.0800331
 Analysis of SCF Wavefunction
 
 --------------------------------------------------------------
                    Orbital Energies (a.u.)
 --------------------------------------------------------------
 
 Alpha MOs
 -- Occupied --
-24.602 -19.246 -10.480 -10.261  -1.658  -1.579  -1.187  -1.042
 -0.988  -0.955  -0.947  -0.849  -0.837  -0.807  -0.790  -0.781
 -- Virtual --
 -0.242  -0.134  -0.083  -0.082  -0.079  -0.055  -0.048  -0.038
 -0.033  -0.025  -0.012   0.013   0.033   0.056   0.058   0.085
  0.093   0.098   0.107   0.134   0.153   0.180   0.204   0.214
  0.250   0.273   0.294   0.325   0.339   0.364   0.414   0.423
  0.452   0.462   0.471   0.533   0.555   0.576   0.604   0.719
  0.732   0.793   0.798   0.869   0.874   0.900   0.912   0.959
  0.974   1.010   1.057   1.078   1.155   1.187   1.216   1.219
  1.254   1.273   1.283   1.313   1.376   1.426   1.442   1.446
  1.540   1.667   1.771   1.859   1.952   1.992   2.040   2.223
  2.348   2.376   2.445   2.473   2.476   2.551   2.562   2.570
  2.715   2.767   2.818   2.841   2.928   2.929   2.968   3.059
  3.079   3.110   3.148   3.177   3.237   3.292   3.309   3.335
  3.393   3.412   3.526   3.654   3.704   3.742   3.809   3.910
  3.950   4.029   4.043   4.084   4.244   4.263   4.326   4.373
  4.452   4.660   4.739   4.759   4.806   4.928   5.152   5.175
  5.402   5.465   5.466   5.956   5.962   6.001   6.186   6.376
  6.426   6.434   6.447   6.512   6.544   6.594   6.673   6.822
  6.917   7.054   7.189   7.282   7.362   8.869   8.921   9.216
  9.404   9.707  24.120  24.407  26.988  27.430  27.789  27.882
 27.918  28.180  40.437  40.636  40.643  40.719  40.720  40.800
 40.911  40.967  41.048  41.073  43.190  43.264  43.403  43.450
 43.463  45.372  45.467  46.226  49.736  49.773  49.836  49.900
 49.940  50.094  55.382  55.455  55.798  66.614
 
 Beta MOs
 -- Occupied --
-24.598 -19.222 -10.481 -10.258  -1.646  -1.543  -1.174  -1.018
 -0.952  -0.944  -0.906  -0.824  -0.821  -0.784  -0.778
 -- Virtual --
 -0.453  -0.236  -0.132  -0.081  -0.080  -0.078  -0.049  -0.047
 -0.038  -0.032  -0.025  -0.010   0.015   0.036   0.057   0.060
  0.087   0.099   0.108   0.109   0.138   0.156   0.180   0.206
  0.216   0.252   0.279   0.294   0.328   0.339   0.369   0.416
  0.426   0.455   0.463   0.473   0.534   0.557   0.578   0.606
  0.725   0.732   0.796   0.807   0.876   0.886   0.919   0.924
  0.963   0.978   1.014   1.062   1.084   1.161   1.192   1.218
  1.225   1.259   1.279   1.287   1.326   1.383   1.448   1.452
  1.461   1.563   1.674   1.780   1.870   1.955   1.999   2.047
  2.236   2.353   2.378   2.448   2.471   2.480   2.566   2.569
  2.576   2.717   2.769   2.820   2.842   2.932   2.934   2.971
  3.064   3.077   3.113   3.151   3.185   3.240   3.294   3.315
  3.339   3.396   3.418   3.530   3.659   3.711   3.751   3.813
  3.915   3.960   4.037   4.046   4.089   4.250   4.266   4.331
  4.378   4.469   4.694   4.803   4.812   4.865   4.951   5.172
  5.211   5.437   5.469   5.470   5.961   5.979   6.015   6.207
  6.396   6.434   6.438   6.510   6.523   6.612   6.615   6.690
  6.833   6.941   7.121   7.207   7.302   7.388   8.873   8.925
  9.226   9.416   9.720  24.123  24.406  26.986  27.431  27.788
 27.884  27.920  28.181  40.435  40.635  40.647  40.718  40.721
 40.798  40.909  40.969  41.051  41.077  43.253  43.326  43.428
 43.499  43.511  45.391  45.515  46.244  49.740  49.777  49.859
 49.909  49.954  50.108  55.385  55.458  55.805  66.619
 --------------------------------------------------------------
 
          Ground-State Mulliken Net Atomic Charges

     Atom                 Charge (a.u.)    Spin (a.u.)
  --------------------------------------------------------
      1 C                     0.304854      -0.050119
      2 O                     0.195173       0.833040
      3 F                     0.039687       0.097937
      4 C                    -0.178809       0.106451
      5 H                     0.183875      -0.004448
      6 H                     0.227515       0.008106
      7 H                     0.227706       0.009033
  --------------------------------------------------------
  Sum of atomic charges =     1.000000
  Sum of spin   charges =     1.000000

 -----------------------------------------------------------------
                    Cartesian Multipole Moments
 -----------------------------------------------------------------
    Charge (ESU x 10^10)
                 4.8032
    Dipole Moment (Debye)
         X      -2.7321      Y      -0.0014      Z      -1.6335
       Tot       3.1832
    Quadrupole Moments (Debye-Ang)
        XX     -15.8155     XY      -0.0001     YY     -19.1561
        XZ       3.3640     YZ       0.0022     ZZ     -15.7578
    Octapole Moments (Debye-Ang^2)
       XXX       0.7250    XXY      -0.0025    XYY       1.8260
       YYY      -0.0019    XXZ       0.7512    XYZ      -0.0067
       YYZ       1.8290    XZZ      -1.8034    YZZ      -0.0054
       ZZZ       7.4887
    Hexadecapole Moments (Debye-Ang^3)
      XXXX    -102.5253   XXXY       0.0044   XXYY     -23.0406
      XYYY       0.0013   YYYY     -20.6203   XXXZ      -9.1913
      XXYZ       0.0051   XYYZ      -1.2704   YYYZ       0.0027
      XXZZ     -32.7573   XYZZ       0.0039   YYZZ     -18.0133
      XZZZ      -4.2630   YZZZ       0.0097   ZZZZ    -103.1618
 -----------------------------------------------------------------
 Total job time:  156.95s(wall), 133.18s(cpu) 
 Fri Apr 15 16:40:23 2011

        *************************************************************
        *                                                           *
        *  Thank you very much for using Q-Chem.  Have a nice day.  *
        *                                                           *
        *************************************************************


0 sent ACK to 0 
now end server 0 ... 
