Process 0 of 1 is on cl109.stfx.acenet.ca - thread support 1
initial socket setup ...start
initial socket setup ...done 
now start server 0 ... 

cmd = /usr/bin/ssh clhead /usr/local/qchem/bin/get_hostid 422795432 > /scratch/tmp/6022856.1.short.q/qchem9211/lic.dat
                  Welcome to Q-Chem
     A Quantum Leap Into The Future Of Chemistry

 Y. Shao, L. Fusti-Molnar, Y. Jung, J. Kussmann, C. Ochsenfeld,
 S. T. Brown, A. T. B. Gilbert, L. V. Slipchenko,S. V. Levchenko,
 D. P. O'Neill, R. A. DiStasio Jr., R. C. Lochan, T. Wang,
 G. J. O. Beran, N. A. Besley, J. M. Herbert, C. Y. Lin,
 T. Van Voorhis, S. H. Chien, A. Sodt, R. P. Steele, 
 V. A. Rassolov, P. E. Maslen, P. P. Korambath, R. D. Adamson,
 B. Austin, J. Baker, E. F. C. Byrd, H. Dachsel, R. J. Doerksen,
 A. Dreuw, B. D. Dunietz, A. D. Dutoi, T. R. Furlani,
 S. R. Gwaltney, A. Heyden, S. Hirata, C.-P. Hsu, G. Kedziora,
 R. Z. Khaliullin, P. Klunzinger, A. M. Lee, M. S. Lee, W. Liang,
 I. Lotan, N. Nair, B. Peters, E. I. Proynov, P. A. Pieniazek, 
 Y. M. Rhee, J. Ritchie, E. Rosta, C. D. Sherrill, 
 A. C. Simmonett, J. E. Subotnik, H. L. Woodcock III,
 W. Zhang, A. T. Bell, A. K. Chakraborty, D. M. Chipman,
 F. J. Keil, A. Warshel, W. J. Hehre, H. F. Schaefer III,
 J. Kong, A. I. Krylov, P. M. W. Gill, M. Head-Gordon,
 Q-Chem, Version 3.1, Q-Chem, Inc., Pittsburgh, PA (2007).

 Additional authors for Version 3.1: 
 Z. Gan, Y. Zhao, N. E. Schultz, D. Truhlar, E. Epifanovsky and M. Oana.

 Additional authors for Version 3.2: 
 R. Baer, B. R. Brooks, D. Casanova, J.-D. Chai, C.-L. Cheng, 
 C. Cramer, D. Crittenden, A. Ghysels, G. Hawkins, E. G. Hohenstein, 
 C. Kelley, W. Kurlancheek, D. Liotard, E. Livshits, P. Manohar, 
 A. Marenich, D. Neuhauser, R. Olson, M. A. Rohrdanz, K. S. Thanthiriwatte, 
 A. J. W. Thom, V. Vanovschi, C. F. Williams, Q. Wu and Z.-Q. You. 


 Intel X86 Linux Version

 Q-chem begins on Wed May 29 17:30:49 2013  

 Parallel job on  1  processors
Processing $rem in /usr/local/qchem/config/preferences.

theFileMan(): MAXOPENFILES=974 MAX_SUB_FILE_NUM=16
Maximum size of a physical file is 2.0 GB, maximum size of a tmp-file is 32.0 GB


--------------------------------------------------------------
User input:
--------------------------------------------------------------

$molecule
-1,2
C         -0.00766       -0.00000       -0.00626
O         -0.00215        0.00000        1.17183
F          1.15810        0.00000       -0.68919
C         -1.16221       -0.00000       -0.94411
H         -2.09119        0.00000       -0.38324
H         -1.10578        0.87911       -1.58454
H         -1.10578       -0.87911       -1.58454
$end

$comment
negative
$end

$xc_functional
C PBE   1.00
X wPBE  1.00
$end

$rem
SYMMETRY_DECOMPOSITION	0
exchange 		general
LRC_DFT                 true
BASIS                   g3large
omega			380
mem_static              760
max_scf_cycles          200
scf_final_print         1
sym_ignore              true
$end

--------------------------------------------------------------
 Writing REM_CC_EA            7
 ----------------------------------------------------
       Standard Nuclear Orientation (Angstroms)
    I     Atom         X            Y            Z
 ----------------------------------------------------
    1      C      -0.007660     0.000000    -0.006260
    2      O      -0.002150     0.000000     1.171830
    3      F       1.158100     0.000000    -0.689190
    4      C      -1.162210     0.000000    -0.944110
    5      H      -2.091190     0.000000    -0.383240
    6      H      -1.105780     0.879110    -1.584540
    7      H      -1.105780    -0.879110    -1.584540
 ----------------------------------------------------
 Nuclear Repulsion Energy =   119.3118408321 hartrees
 There are       17 alpha and       16 beta electrons
 Requested basis set is G3large
 There are 58 shells and 198 basis functions

Total QAlloc Memory Limit   2000 MB
Mega-Array Size       743 MB
MEM_STATIC part       760 MB

                       Distance Matrix (Angstroms)
             C (  1)   O (  2)   F (  3)   C (  4)   H (  5)   H (  6)
   O (  2)  1.178103
   F (  3)  1.351070  2.193074
   C (  4)  1.487464  2.413077  2.334271
   H (  5)  2.117359  2.604291  3.263662  1.085163
   H (  6)  2.114159  3.096516  2.588366  1.089114  1.785214
   H (  7)  2.114159  3.096516  2.588366  1.089114  1.785214  1.758220

 
 A cutoff of  1.0D-08 yielded   1557 shell pairs
 There are  18364 function pairs ( 23163 Cartesian)
Evaluating contribution to one-electron hamiltonian from nuclear
 Smallest overlap matrix eigenvalue = 1.27E-04
 Multipole matrices computed through 2nd order

  Scale SEOQF with 1.000000e-01/1.000000e-01/1.000000e-01

 Standard Electronic Orientation quadrupole field applied
 Nucleus-field energy     =    -0.0000000017 hartrees
 Guess from superposition of atomic densities
 Warning:  Energy on first SCF cycle will be non-variational
 Long-range K will be added via erf
 Coulomb attenuation parameter = 0.38 bohr**(-1)
 An unrestricted Kohn-Sham SCF calculation will be
 performed using Pulay DIIS extrapolation
 Exchange:  wPBE + LR-HF      Correlation:  PBE
 Using SG-1 standard quadrature grid
 SCF converges when DIIS error is below 1.0E-05
 Requested basis set is G3large
 There are 58 shells and 198 basis functions
 A cutoff of  1.0D-08 yielded   1557 shell pairs
 There are  18364 function pairs ( 23163 Cartesian)
 Warning!  Inaccurate integrated density:
   Number of electrons =    33
   Numerical integral  =    31.999815476587
   Relative error      =    -3.0308621922 %
 ---------------------------------------
  Cycle       Energy         DIIS Error
 ---------------------------------------
    1    -253.8458179085      3.33E-02
    2    -252.7835256108      6.14E-03
    3    -252.6151318505      9.46E-03
    4    -252.9325285731      1.83E-03
    5    -252.9525832622      6.27E-04
    6    -252.9569393355      3.85E-04
    7    -252.9597221236      3.91E-04
    8    -252.9640403833      3.99E-04
    9    -252.9614560073      3.94E-04
   10    -252.9742040259      3.40E-04
   11    -252.9826765246      1.05E-04
   12    -252.9798604654      6.65E-04
   13    -252.9837738661      4.83E-04
   14    -252.9837190601      5.64E-04
   15    -252.9837186525      5.64E-04
   16    -252.9850975216      4.17E-04
   17    -252.9857579584      8.15E-05
   18    -252.9858138536      4.41E-05
   19    -252.9858541863      1.29E-05
   20    -252.9858790733      1.08E-05
   21    -252.9859007477      8.36E-06 Convergence criterion met
 ---------------------------------------
 One-Electron    Energy =  -587.7783662662
 Total Coulomb   Energy =   246.4247284778
 Alpha Exchange  Energy =    -3.1915162270
 Beta  Exchange  Energy =    -3.1216286861
 DFT   Exchange  Energy =   -23.5505945242
 DFT Correlation Energy =    -1.0803643524
 Nuclear Repu.   Energy =   119.3118408305
 Nuclear Attr.   Energy =  -840.1491682810
 Kinetic         Energy =   252.3708020148
 <S^2> = 0.7501
 SCF time:  CPU 258.07 s  wall 260.00 s
 Final Alpha MO Eigenvalues
            1           2           3           4           5           6
    1 -24.3567340 -18.8436126 -10.1349632  -9.9703992  -1.2384640  -1.0778234
            7           8           9          10          11          12
    1  -0.7774849  -0.6141094  -0.5148031  -0.5124295  -0.4977554  -0.4171372
           13          14          15          16          17          18
    1  -0.4086116  -0.3837762  -0.3671066  -0.3036085   0.0220954   0.1501681
           19          20          21          22
    1   0.1568578   0.1834270   0.2063281   0.2265776
 Final Beta MO Eigenvalues
            1           2           3           4           5           6
    1 -24.3566661 -18.8435973 -10.1349642  -9.9696032  -1.2383011  -1.0777307
            7           8           9          10          11          12
    1  -0.7763152  -0.6135494  -0.5143339  -0.5113443  -0.4976533  -0.4164173
           13          14          15          16          17          18
    1  -0.4080047  -0.3832059  -0.3667919  -0.3033468   0.1443342   0.1707918
           19          20          21
    1   0.1725535   0.1896485   0.2068308
 Analysis of SCF Wavefunction
 
 --------------------------------------------------------------
                    Orbital Energies (a.u.)
 --------------------------------------------------------------
 
 Alpha MOs
 -- Occupied --
-24.357 -18.844 -10.135  -9.970  -1.238  -1.078  -0.777  -0.614
 -0.515  -0.512  -0.498  -0.417  -0.409  -0.384  -0.367  -0.304
  0.022
 -- Virtual --
  0.150   0.157   0.183   0.206   0.227   0.232   0.234   0.261
  0.264   0.278   0.294   0.366   0.382   0.408   0.419   0.431
  0.438   0.457   0.471   0.502   0.503   0.522   0.545   0.600
  0.643   0.662   0.700   0.726   0.748   0.780   0.801   0.838
  0.855   0.869   0.885   0.960   0.983   0.994   1.103   1.114
  1.197   1.210   1.263   1.296   1.318   1.327   1.351   1.376
  1.400   1.450   1.476   1.553   1.575   1.604   1.605   1.639
  1.662   1.663   1.729   1.786   1.829   1.882   1.892   2.015
  2.102   2.172   2.279   2.345   2.398   2.470   2.665   2.757
  2.807   2.846   2.868   2.920   2.976   2.980   2.999   3.144
  3.144   3.247   3.254   3.320   3.345   3.366   3.479   3.514
  3.520   3.573   3.610   3.656   3.731   3.747   3.774   3.812
  3.819   3.963   4.072   4.122   4.168   4.221   4.332   4.388
  4.438   4.483   4.494   4.651   4.653   4.718   4.778   4.885
  5.194   5.265   5.274   5.359   5.395   5.646   5.688   5.866
  5.875   5.925   6.392   6.431   6.515   6.663   6.811   6.820
  6.847   6.946   6.962   7.056   7.100   7.178   7.251   7.417
  7.612   7.691   7.762   7.858   9.278   9.332   9.643   9.840
 10.138  24.390  24.738  27.376  27.819  28.184  28.219  28.254
 28.549  40.903  41.054  41.105  41.112  41.136  41.201  41.304
 41.305  41.391  41.433  43.812  43.863  43.972  44.055  44.070
 45.837  45.971  46.708  50.179  50.213  50.235  50.372  50.415
 50.564  55.704  55.779  56.150  66.725
 
 Beta MOs
 -- Occupied --
-24.357 -18.844 -10.135  -9.970  -1.238  -1.078  -0.776  -0.614
 -0.514  -0.511  -0.498  -0.416  -0.408  -0.383  -0.367  -0.303
 -- Virtual --
  0.144   0.171   0.173   0.190   0.207   0.227   0.233   0.235
  0.258   0.261   0.281   0.298   0.367   0.384   0.407   0.419
  0.430   0.437   0.452   0.471   0.501   0.502   0.520   0.544
  0.598   0.641   0.660   0.699   0.726   0.747   0.778   0.800
  0.837   0.855   0.868   0.883   0.960   0.983   0.995   1.105
  1.114   1.198   1.210   1.263   1.296   1.319   1.327   1.351
  1.376   1.400   1.451   1.475   1.553   1.575   1.605   1.605
  1.639   1.662   1.663   1.729   1.786   1.829   1.882   1.893
  2.015   2.102   2.172   2.279   2.345   2.398   2.470   2.665
  2.757   2.807   2.847   2.868   2.920   2.976   2.980   2.999
  3.144   3.145   3.247   3.255   3.322   3.346   3.367   3.480
  3.514   3.520   3.573   3.610   3.657   3.731   3.747   3.774
  3.812   3.820   3.963   4.072   4.123   4.169   4.222   4.332
  4.388   4.439   4.483   4.494   4.651   4.653   4.718   4.778
  4.885   5.194   5.265   5.274   5.359   5.395   5.646   5.688
  5.867   5.876   5.925   6.392   6.431   6.515   6.663   6.811
  6.820   6.847   6.946   6.962   7.056   7.099   7.178   7.252
  7.417   7.613   7.692   7.762   7.858   9.278   9.332   9.643
  9.840  10.138  24.391  24.738  27.376  27.819  28.184  28.219
 28.254  28.549  40.903  41.055  41.105  41.112  41.136  41.201
 41.305  41.305  41.391  41.433  43.812  43.863  43.972  44.055
 44.070  45.837  45.971  46.708  50.179  50.213  50.235  50.372
 50.415  50.564  55.704  55.780  56.150  66.725
 --------------------------------------------------------------
 
          Ground-State Mulliken Net Atomic Charges

     Atom                 Charge (a.u.)    Spin (a.u.)
  --------------------------------------------------------
      1 C                    -0.636849       0.874255
      2 O                    -0.354202       0.002548
      3 F                    -0.166538       0.026336
      4 C                     3.798215      -3.878248
      5 H                    -0.766562       0.862152
      6 H                    -1.499065       1.620723
      7 H                    -1.375001       1.492233
  --------------------------------------------------------
  Sum of atomic charges =    -1.000000
  Sum of spin   charges =     1.000000

 -----------------------------------------------------------------
                    Cartesian Multipole Moments
 -----------------------------------------------------------------
    Charge (ESU x 10^10)
                -4.8032
    Dipole Moment (Debye)
         X       6.4397      Y      -0.4179      Z       6.4045
       Tot       9.0919
    Quadrupole Moments (Debye-Ang)
        XX     -56.1553     XY       0.5267     YY     -47.7413
        XZ     -11.3123     YZ       0.8980     ZZ     -60.6022
    Octapole Moments (Debye-Ang^2)
       XXX     124.9418    XXY      -1.8684    XYY      42.5743
       YYY      -4.5267    XXZ      51.9800    XYZ      -1.0933
       YYZ      49.6107    XZZ      55.4797    YZZ      -3.0048
       ZZZ     133.9639
    Hexadecapole Moments (Debye-Ang^3)
      XXXX    -664.0952   XXXY       5.3142   XXYY    -166.8503
      XYYY       5.3672   YYYY    -333.6346   XXXZ    -165.4035
      XXYZ       3.6610   XYYZ     -65.8853   YYYZ       8.6516
      XXZZ    -236.6513   XYZZ       3.6087   YYZZ    -187.5922
      XZZZ    -186.4929   YZZZ      10.4292   ZZZZ    -702.9477
 -----------------------------------------------------------------
 Total job time:  260.26s(wall), 258.30s(cpu) 
 Wed May 29 17:35:10 2013

        *************************************************************
        *                                                           *
        *  Thank you very much for using Q-Chem.  Have a nice day.  *
        *                                                           *
        *************************************************************


0 sent ACK to 0 
now end server 0 ... 
 
**********************************************************************
Job 2 of 3 
**********************************************************************
 
Process 0 of 1 is on cl109.stfx.acenet.ca - thread support 1
initial socket setup ...start
initial socket setup ...done 
now start server 0 ... 

cmd = /usr/bin/ssh clhead /usr/local/qchem/bin/get_hostid 956075516 > /scratch/tmp/6022856.1.short.q/qchem9211/lic.dat
                  Welcome to Q-Chem
     A Quantum Leap Into The Future Of Chemistry

 Y. Shao, L. Fusti-Molnar, Y. Jung, J. Kussmann, C. Ochsenfeld,
 S. T. Brown, A. T. B. Gilbert, L. V. Slipchenko,S. V. Levchenko,
 D. P. O'Neill, R. A. DiStasio Jr., R. C. Lochan, T. Wang,
 G. J. O. Beran, N. A. Besley, J. M. Herbert, C. Y. Lin,
 T. Van Voorhis, S. H. Chien, A. Sodt, R. P. Steele, 
 V. A. Rassolov, P. E. Maslen, P. P. Korambath, R. D. Adamson,
 B. Austin, J. Baker, E. F. C. Byrd, H. Dachsel, R. J. Doerksen,
 A. Dreuw, B. D. Dunietz, A. D. Dutoi, T. R. Furlani,
 S. R. Gwaltney, A. Heyden, S. Hirata, C.-P. Hsu, G. Kedziora,
 R. Z. Khaliullin, P. Klunzinger, A. M. Lee, M. S. Lee, W. Liang,
 I. Lotan, N. Nair, B. Peters, E. I. Proynov, P. A. Pieniazek, 
 Y. M. Rhee, J. Ritchie, E. Rosta, C. D. Sherrill, 
 A. C. Simmonett, J. E. Subotnik, H. L. Woodcock III,
 W. Zhang, A. T. Bell, A. K. Chakraborty, D. M. Chipman,
 F. J. Keil, A. Warshel, W. J. Hehre, H. F. Schaefer III,
 J. Kong, A. I. Krylov, P. M. W. Gill, M. Head-Gordon,
 Q-Chem, Version 3.1, Q-Chem, Inc., Pittsburgh, PA (2007).

 Additional authors for Version 3.1: 
 Z. Gan, Y. Zhao, N. E. Schultz, D. Truhlar, E. Epifanovsky and M. Oana.

 Additional authors for Version 3.2: 
 R. Baer, B. R. Brooks, D. Casanova, J.-D. Chai, C.-L. Cheng, 
 C. Cramer, D. Crittenden, A. Ghysels, G. Hawkins, E. G. Hohenstein, 
 C. Kelley, W. Kurlancheek, D. Liotard, E. Livshits, P. Manohar, 
 A. Marenich, D. Neuhauser, R. Olson, M. A. Rohrdanz, K. S. Thanthiriwatte, 
 A. J. W. Thom, V. Vanovschi, C. F. Williams, Q. Wu and Z.-Q. You. 


 Intel X86 Linux Version

 Q-chem begins on Wed May 29 17:35:12 2013  

 Parallel job on  1  processors
Processing $rem in /usr/local/qchem/config/preferences.

theFileMan(): MAXOPENFILES=974 MAX_SUB_FILE_NUM=16
Maximum size of a physical file is 2.0 GB, maximum size of a tmp-file is 32.0 GB


--------------------------------------------------------------
User input:
--------------------------------------------------------------

$molecule
0,1
C         -0.00766       -0.00000       -0.00626
O         -0.00215        0.00000        1.17183
F          1.15810        0.00000       -0.68919
C         -1.16221       -0.00000       -0.94411
H         -2.09119        0.00000       -0.38324
H         -1.10578        0.87911       -1.58454
H         -1.10578       -0.87911       -1.58454
$end

$comment
neutral
$end

$xc_functional
C PBE   1.00
X wPBE  1.00
$end


$rem
SYMMETRY_DECOMPOSITION	0
LRC_DFT                 true
exchange 		general
BASIS                   g3large
omega			380
mem_static              760
max_scf_cycles          200
scf_final_print         1
sym_ignore              true
$end

--------------------------------------------------------------
 Writing REM_CC_EA            7
 ----------------------------------------------------
       Standard Nuclear Orientation (Angstroms)
    I     Atom         X            Y            Z
 ----------------------------------------------------
    1      C      -0.007660     0.000000    -0.006260
    2      O      -0.002150     0.000000     1.171830
    3      F       1.158100     0.000000    -0.689190
    4      C      -1.162210     0.000000    -0.944110
    5      H      -2.091190     0.000000    -0.383240
    6      H      -1.105780     0.879110    -1.584540
    7      H      -1.105780    -0.879110    -1.584540
 ----------------------------------------------------
 Nuclear Repulsion Energy =   119.3118408321 hartrees
 There are       16 alpha and       16 beta electrons
 Requested basis set is G3large
 There are 58 shells and 198 basis functions

Total QAlloc Memory Limit   2000 MB
Mega-Array Size       743 MB
MEM_STATIC part       760 MB

                       Distance Matrix (Angstroms)
             C (  1)   O (  2)   F (  3)   C (  4)   H (  5)   H (  6)
   O (  2)  1.178103
   F (  3)  1.351070  2.193074
   C (  4)  1.487464  2.413077  2.334271
   H (  5)  2.117359  2.604291  3.263662  1.085163
   H (  6)  2.114159  3.096516  2.588366  1.089114  1.785214
   H (  7)  2.114159  3.096516  2.588366  1.089114  1.785214  1.758220

 
 A cutoff of  1.0D-08 yielded   1557 shell pairs
 There are  18364 function pairs ( 23163 Cartesian)
Evaluating contribution to one-electron hamiltonian from nuclear
 Smallest overlap matrix eigenvalue = 1.27E-04
 Multipole matrices computed through 2nd order

  Scale SEOQF with 1.000000e-01/1.000000e-01/1.000000e-01

 Standard Electronic Orientation quadrupole field applied
 Nucleus-field energy     =    -0.0000000017 hartrees
 Guess from superposition of atomic densities
 Warning:  Energy on first SCF cycle will be non-variational
 Long-range K will be added via erf
 Coulomb attenuation parameter = 0.38 bohr**(-1)
 A restricted Kohn-Sham SCF calculation will be
 performed using Pulay DIIS extrapolation
 Exchange:  wPBE + LR-HF      Correlation:  PBE
 Using SG-1 standard quadrature grid
 SCF converges when DIIS error is below 1.0E-05
 Requested basis set is G3large
 There are 58 shells and 198 basis functions
 A cutoff of  1.0D-08 yielded   1557 shell pairs
 There are  18364 function pairs ( 23163 Cartesian)
 ---------------------------------------
  Cycle       Energy         DIIS Error
 ---------------------------------------
    1    -253.8458179085      3.33E-02
    2    -252.8744373192      6.03E-03
    3    -252.8342617374      7.57E-03
    4    -253.0100533008      7.74E-04
    5    -253.0117304435      4.41E-04
    6    -253.0123091991      1.10E-04
    7    -253.0123673216      3.27E-05
    8    -253.0123747714      7.64E-06 Convergence criterion met
 ---------------------------------------
 One-Electron    Energy =  -583.4890567935
 Total Coulomb   Energy =   242.0222937415
 Alpha Exchange  Energy =    -3.1222481450
 Beta  Exchange  Energy =    -3.1222481450
 DFT   Exchange  Energy =   -23.5402558545
 DFT Correlation Energy =    -1.0727004053
 Nuclear Repu.   Energy =   119.3118408305
 Nuclear Attr.   Energy =  -835.7762398438
 Kinetic         Energy =   252.2871830503
 SCF time:  CPU 79.09 s  wall 79.62 s
 Final Alpha MO Eigenvalues
            1           2           3           4           5           6
    1 -24.4849955 -18.9722170 -10.2668637 -10.1251256  -1.3668196  -1.2059309
            7           8           9          10          11          12
    1  -0.9237877  -0.7454135  -0.6517303  -0.6471538  -0.6261622  -0.5599968
           13          14          15          16          17          18
    1  -0.5532667  -0.5201156  -0.4987555  -0.4329726   0.0331074   0.0587987
           19          20          21
    1   0.0675525   0.0789304   0.0895707
 Analysis of SCF Wavefunction
 
 --------------------------------------------------------------
                    Orbital Energies (a.u.)
 --------------------------------------------------------------
 
 Alpha MOs
 -- Occupied --
-24.485 -18.972 -10.267 -10.125  -1.367  -1.206  -0.924  -0.745
 -0.652  -0.647  -0.626  -0.560  -0.553  -0.520  -0.499  -0.433
 -- Virtual --
  0.033   0.059   0.068   0.079   0.090   0.126   0.127   0.130
  0.145   0.148   0.164   0.184   0.231   0.244   0.285   0.299
  0.317   0.326   0.328   0.359   0.371   0.388   0.406   0.432
  0.466   0.499   0.529   0.560   0.582   0.602   0.642   0.661
  0.700   0.721   0.734   0.748   0.829   0.846   0.857   0.949
  0.975   1.053   1.070   1.137   1.170   1.180   1.190   1.222
  1.229   1.259   1.305   1.331   1.412   1.450   1.455   1.474
  1.506   1.513   1.525   1.585   1.648   1.685   1.754   1.764
  1.886   1.974   2.041   2.149   2.207   2.260   2.339   2.533
  2.617   2.674   2.705   2.723   2.786   2.833   2.837   2.868
  2.992   3.009   3.104   3.117   3.172   3.199   3.220   3.337
  3.376   3.379   3.429   3.471   3.513   3.599   3.608   3.637
  3.670   3.673   3.821   3.922   3.972   4.027   4.076   4.183
  4.240   4.290   4.341   4.353   4.499   4.500   4.566   4.632
  4.740   5.067   5.138   5.147   5.225   5.260   5.517   5.559
  5.713   5.722   5.791   6.264   6.304   6.387   6.535   6.683
  6.692   6.719   6.819   6.834   6.929   6.973   7.050   7.124
  7.291   7.486   7.563   7.633   7.731   9.151   9.205   9.515
  9.712  10.011  24.237  24.605  27.244  27.677  28.049  28.064
 28.099  28.408  40.770  40.900  40.971  40.981  40.984  41.069
 41.150  41.167  41.236  41.284  43.684  43.735  43.843  43.927
 43.942  45.709  45.842  46.579  50.051  50.085  50.106  50.244
 50.287  50.435  55.576  55.651  56.022  66.596
 --------------------------------------------------------------
 
          Ground-State Mulliken Net Atomic Charges

     Atom                 Charge (a.u.)
  ----------------------------------------
      1 C                     0.231918
      2 O                    -0.313185
      3 F                    -0.130123
      4 C                    -0.112820
      5 H                     0.102011
      6 H                     0.111112
      7 H                     0.111089
  ----------------------------------------
  Sum of atomic charges =     0.000000

 -----------------------------------------------------------------
                    Cartesian Multipole Moments
 -----------------------------------------------------------------
    Charge (ESU x 10^10)
                 0.0000
    Dipole Moment (Debye)
         X      -2.0006      Y       0.0003      Z      -2.3025
       Tot       3.0502
    Quadrupole Moments (Debye-Ang)
        XX     -22.4816     XY       0.0000     YY     -21.3410
        XZ       1.7044     YZ      -0.0001     ZZ     -24.4993
    Octapole Moments (Debye-Ang^2)
       XXX       5.1932    XXY       0.0004    XYY       2.9087
       YYY       0.0001    XXZ       4.3695    XYZ       0.0002
       YYZ       2.9857    XZZ       1.4391    YZZ       0.0003
       ZZZ       7.9868
    Hexadecapole Moments (Debye-Ang^3)
      XXXX    -125.4224   XXXY      -0.0002   XXYY     -26.2464
      XYYY       0.0001   YYYY     -24.6642   XXXZ     -14.3267
      XXYZ      -0.0004   XYYZ      -3.2976   YYYZ      -0.0002
      XXZZ     -44.0701   XYZZ      -0.0001   YYZZ     -22.9675
      XZZZ     -11.6144   YZZZ      -0.0002   ZZZZ    -131.0221
 -----------------------------------------------------------------
 Total job time:  79.85s(wall), 79.31s(cpu) 
 Wed May 29 17:36:32 2013

        *************************************************************
        *                                                           *
        *  Thank you very much for using Q-Chem.  Have a nice day.  *
        *                                                           *
        *************************************************************


0 sent ACK to 0 
now end server 0 ... 
 
**********************************************************************
Job 3 of 3 
**********************************************************************
 
Process 0 of 1 is on cl109.stfx.acenet.ca - thread support 1
initial socket setup ...start
initial socket setup ...done 
now start server 0 ... 

cmd = /usr/bin/ssh clhead /usr/local/qchem/bin/get_hostid 410740939 > /scratch/tmp/6022856.1.short.q/qchem9211/lic.dat
                  Welcome to Q-Chem
     A Quantum Leap Into The Future Of Chemistry

 Y. Shao, L. Fusti-Molnar, Y. Jung, J. Kussmann, C. Ochsenfeld,
 S. T. Brown, A. T. B. Gilbert, L. V. Slipchenko,S. V. Levchenko,
 D. P. O'Neill, R. A. DiStasio Jr., R. C. Lochan, T. Wang,
 G. J. O. Beran, N. A. Besley, J. M. Herbert, C. Y. Lin,
 T. Van Voorhis, S. H. Chien, A. Sodt, R. P. Steele, 
 V. A. Rassolov, P. E. Maslen, P. P. Korambath, R. D. Adamson,
 B. Austin, J. Baker, E. F. C. Byrd, H. Dachsel, R. J. Doerksen,
 A. Dreuw, B. D. Dunietz, A. D. Dutoi, T. R. Furlani,
 S. R. Gwaltney, A. Heyden, S. Hirata, C.-P. Hsu, G. Kedziora,
 R. Z. Khaliullin, P. Klunzinger, A. M. Lee, M. S. Lee, W. Liang,
 I. Lotan, N. Nair, B. Peters, E. I. Proynov, P. A. Pieniazek, 
 Y. M. Rhee, J. Ritchie, E. Rosta, C. D. Sherrill, 
 A. C. Simmonett, J. E. Subotnik, H. L. Woodcock III,
 W. Zhang, A. T. Bell, A. K. Chakraborty, D. M. Chipman,
 F. J. Keil, A. Warshel, W. J. Hehre, H. F. Schaefer III,
 J. Kong, A. I. Krylov, P. M. W. Gill, M. Head-Gordon,
 Q-Chem, Version 3.1, Q-Chem, Inc., Pittsburgh, PA (2007).

 Additional authors for Version 3.1: 
 Z. Gan, Y. Zhao, N. E. Schultz, D. Truhlar, E. Epifanovsky and M. Oana.

 Additional authors for Version 3.2: 
 R. Baer, B. R. Brooks, D. Casanova, J.-D. Chai, C.-L. Cheng, 
 C. Cramer, D. Crittenden, A. Ghysels, G. Hawkins, E. G. Hohenstein, 
 C. Kelley, W. Kurlancheek, D. Liotard, E. Livshits, P. Manohar, 
 A. Marenich, D. Neuhauser, R. Olson, M. A. Rohrdanz, K. S. Thanthiriwatte, 
 A. J. W. Thom, V. Vanovschi, C. F. Williams, Q. Wu and Z.-Q. You. 


 Intel X86 Linux Version

 Q-chem begins on Wed May 29 17:36:35 2013  

 Parallel job on  1  processors
Processing $rem in /usr/local/qchem/config/preferences.

theFileMan(): MAXOPENFILES=974 MAX_SUB_FILE_NUM=16
Maximum size of a physical file is 2.0 GB, maximum size of a tmp-file is 32.0 GB


--------------------------------------------------------------
User input:
--------------------------------------------------------------

$molecule
1,2
C         -0.00766       -0.00000       -0.00626
O         -0.00215        0.00000        1.17183
F          1.15810        0.00000       -0.68919
C         -1.16221       -0.00000       -0.94411
H         -2.09119        0.00000       -0.38324
H         -1.10578        0.87911       -1.58454
H         -1.10578       -0.87911       -1.58454
$end

$comment
positive
$end

$xc_functional
C PBE   1.00
X wPBE  1.00
$end

$rem
SYMMETRY_DECOMPOSITION	0
LRC_DFT                 true
exchange 		general
BASIS                   g3large
omega			380
mem_static              760
max_scf_cycles          200
scf_final_print         1
sym_ignore              true
$end

--------------------------------------------------------------
 Writing REM_CC_EA            7
 ----------------------------------------------------
       Standard Nuclear Orientation (Angstroms)
    I     Atom         X            Y            Z
 ----------------------------------------------------
    1      C      -0.007660     0.000000    -0.006260
    2      O      -0.002150     0.000000     1.171830
    3      F       1.158100     0.000000    -0.689190
    4      C      -1.162210     0.000000    -0.944110
    5      H      -2.091190     0.000000    -0.383240
    6      H      -1.105780     0.879110    -1.584540
    7      H      -1.105780    -0.879110    -1.584540
 ----------------------------------------------------
 Nuclear Repulsion Energy =   119.3118408321 hartrees
 There are       16 alpha and       15 beta electrons
 Requested basis set is G3large
 There are 58 shells and 198 basis functions

Total QAlloc Memory Limit   2000 MB
Mega-Array Size       743 MB
MEM_STATIC part       760 MB

                       Distance Matrix (Angstroms)
             C (  1)   O (  2)   F (  3)   C (  4)   H (  5)   H (  6)
   O (  2)  1.178103
   F (  3)  1.351070  2.193074
   C (  4)  1.487464  2.413077  2.334271
   H (  5)  2.117359  2.604291  3.263662  1.085163
   H (  6)  2.114159  3.096516  2.588366  1.089114  1.785214
   H (  7)  2.114159  3.096516  2.588366  1.089114  1.785214  1.758220

 
 A cutoff of  1.0D-08 yielded   1557 shell pairs
 There are  18364 function pairs ( 23163 Cartesian)
Evaluating contribution to one-electron hamiltonian from nuclear
 Smallest overlap matrix eigenvalue = 1.27E-04
 Multipole matrices computed through 2nd order

  Scale SEOQF with 1.000000e-01/1.000000e-01/1.000000e-01

 Standard Electronic Orientation quadrupole field applied
 Nucleus-field energy     =    -0.0000000017 hartrees
 Guess from superposition of atomic densities
 Warning:  Energy on first SCF cycle will be non-variational
 Long-range K will be added via erf
 Coulomb attenuation parameter = 0.38 bohr**(-1)
 An unrestricted Kohn-Sham SCF calculation will be
 performed using Pulay DIIS extrapolation
 Exchange:  wPBE + LR-HF      Correlation:  PBE
 Using SG-1 standard quadrature grid
 SCF converges when DIIS error is below 1.0E-05
 Requested basis set is G3large
 There are 58 shells and 198 basis functions
 A cutoff of  1.0D-08 yielded   1557 shell pairs
 There are  18364 function pairs ( 23163 Cartesian)
 Warning!  Inaccurate integrated density:
   Number of electrons =    31
   Numerical integral  =    31.999815476587
   Relative error      =     3.2252112148 %
 ---------------------------------------
  Cycle       Energy         DIIS Error
 ---------------------------------------
    1    -253.8458179085      3.33E-02
    2    -252.4329986433      5.05E-03
    3    -252.4795483065      5.10E-03
    4    -252.5641167427      8.85E-04
    5    -252.5692938252      3.84E-04
    6    -252.5718755757      1.82E-04
    7    -252.5729651614      1.47E-04
    8    -252.5740742305      6.77E-05
    9    -252.5744691869      2.62E-05
   10    -252.5745453226      1.21E-05
   11    -252.5745559646      5.21E-06 Convergence criterion met
 ---------------------------------------
 One-Electron    Energy =  -573.6159608247
 Total Coulomb   Energy =   232.1957197967
 Alpha Exchange  Energy =    -3.1395266690
 Beta  Exchange  Energy =    -2.9278809052
 DFT   Exchange  Energy =   -23.3671369591
 DFT Correlation Energy =    -1.0316112338
 Nuclear Repu.   Energy =   119.3118408305
 Nuclear Attr.   Energy =  -825.5247935554
 Kinetic         Energy =   251.9088327307
 <S^2> = 0.7562
 SCF time:  CPU 134.78 s  wall 135.34 s
 Final Alpha MO Eigenvalues
            1           2           3           4           5           6
    1 -24.7897178 -19.4112194 -10.5954511 -10.3805334  -1.6746339  -1.5949964
            7           8           9          10          11          12
    1  -1.1965268  -1.0465229  -0.9920738  -0.9563697  -0.9505062  -0.8495383
           13          14          15          16          17          18
    1  -0.8363209  -0.8089983  -0.7939141  -0.7838399  -0.2344021  -0.1198518
           19          20          21
    1  -0.0722904  -0.0716987  -0.0696199
 Final Beta MO Eigenvalues
            1           2           3           4           5           6
    1 -24.7865448 -19.3901059 -10.5970118 -10.3786164  -1.6614583  -1.5563521
            7           8           9          10          11          12
    1  -1.1835393  -1.0220791  -0.9564896  -0.9479995  -0.9077456  -0.8250028
           13          14          15          16          17          18
    1  -0.8219331  -0.7894325  -0.7808985  -0.4405956  -0.2304281  -0.1180814
           19          20
    1  -0.0719982  -0.0691876
 Analysis of SCF Wavefunction
 
 --------------------------------------------------------------
                    Orbital Energies (a.u.)
 --------------------------------------------------------------
 
 Alpha MOs
 -- Occupied --
-24.790 -19.411 -10.595 -10.381  -1.675  -1.595  -1.197  -1.047
 -0.992  -0.956  -0.951  -0.850  -0.836  -0.809  -0.794  -0.784
 -- Virtual --
 -0.234  -0.120  -0.072  -0.072  -0.070  -0.044  -0.036  -0.027
 -0.022  -0.014  -0.002   0.022   0.041   0.065   0.067   0.101
  0.105   0.114   0.124   0.145   0.165   0.197   0.220   0.231
  0.265   0.290   0.300   0.335   0.351   0.379   0.429   0.438
  0.467   0.477   0.492   0.539   0.568   0.585   0.616   0.734
  0.742   0.804   0.806   0.881   0.889   0.908   0.924   0.969
  0.982   1.020   1.070   1.090   1.167   1.199   1.227   1.227
  1.268   1.283   1.294   1.323   1.391   1.426   1.452   1.456
  1.555   1.667   1.773   1.856   1.943   1.989   2.047   2.226
  2.350   2.387   2.446   2.470   2.490   2.558   2.559   2.564
  2.714   2.755   2.829   2.829   2.918   2.936   2.962   3.055
  3.076   3.112   3.157   3.184   3.238   3.298   3.316   3.339
  3.396   3.411   3.539   3.668   3.715   3.742   3.816   3.924
  3.967   4.036   4.055   4.078   4.248   4.261   4.320   4.369
  4.452   4.674   4.719   4.741   4.822   4.934   5.155   5.176
  5.433   5.478   5.479   5.977   5.989   6.032   6.204   6.384
  6.407   6.414   6.435   6.514   6.549   6.591   6.695   6.820
  6.915   7.056   7.228   7.301   7.370   8.863   8.917   9.220
  9.416   9.713  23.977  24.282  26.917  27.380  27.731  27.811
 27.845  28.110  40.445  40.641  40.645  40.653  40.724  40.739
 40.853  40.895  40.981  41.013  43.224  43.277  43.422  43.467
 43.508  45.281  45.378  46.150  49.623  49.785  49.807  49.937
 49.977  50.123  55.274  55.350  55.713  66.293
 
 Beta MOs
 -- Occupied --
-24.787 -19.390 -10.597 -10.379  -1.661  -1.556  -1.184  -1.022
 -0.956  -0.948  -0.908  -0.825  -0.822  -0.789  -0.781
 -- Virtual --
 -0.441  -0.230  -0.118  -0.072  -0.069  -0.069  -0.037  -0.034
 -0.027  -0.019  -0.014   0.001   0.023   0.044   0.066   0.069
  0.104   0.116   0.122   0.126   0.150   0.170   0.198   0.222
  0.233   0.267   0.295   0.301   0.338   0.351   0.386   0.430
  0.441   0.472   0.478   0.495   0.541   0.569   0.586   0.618
  0.742   0.743   0.807   0.816   0.888   0.899   0.932   0.940
  0.974   0.987   1.024   1.077   1.097   1.175   1.205   1.229
  1.233   1.273   1.292   1.298   1.339   1.400   1.456   1.458
  1.472   1.585   1.672   1.783   1.868   1.946   1.995   2.054
  2.237   2.356   2.389   2.448   2.474   2.487   2.566   2.569
  2.579   2.716   2.756   2.829   2.830   2.921   2.942   2.965
  3.061   3.071   3.115   3.159   3.192   3.240   3.299   3.320
  3.343   3.399   3.418   3.543   3.671   3.722   3.753   3.820
  3.929   3.977   4.039   4.062   4.085   4.253   4.264   4.324
  4.375   4.473   4.706   4.793   4.800   4.901   4.960   5.171
  5.214   5.472   5.482   5.483   5.981   6.006   6.040   6.226
  6.401   6.413   6.427   6.509   6.525   6.611   6.636   6.709
  6.831   6.930   7.134   7.247   7.322   7.393   8.865   8.919
  9.231   9.428   9.729  23.979  24.282  26.915  27.381  27.730
 27.812  27.847  28.111  40.442  40.642  40.648  40.650  40.726
 40.738  40.851  40.896  40.984  41.016  43.281  43.331  43.429
 43.520  43.530  45.296  45.441  46.164  49.643  49.786  49.808
 49.946  49.987  50.135  55.276  55.352  55.723  66.296
 --------------------------------------------------------------
 
          Ground-State Mulliken Net Atomic Charges

     Atom                 Charge (a.u.)    Spin (a.u.)
  --------------------------------------------------------
      1 C                     0.293129      -0.060569
      2 O                     0.182305       0.841888
      3 F                     0.047026       0.104944
      4 C                    -0.020873       0.104729
      5 H                     0.134943      -0.005327
      6 H                     0.181636       0.006680
      7 H                     0.181834       0.007655
  --------------------------------------------------------
  Sum of atomic charges =     1.000000
  Sum of spin   charges =     1.000000

 -----------------------------------------------------------------
                    Cartesian Multipole Moments
 -----------------------------------------------------------------
    Charge (ESU x 10^10)
                 4.8032
    Dipole Moment (Debye)
         X      -2.5934      Y      -0.0016      Z      -1.5148
       Tot       3.0034
    Quadrupole Moments (Debye-Ang)
        XX     -15.4905     XY      -0.0006     YY     -18.7245
        XZ       3.1426     YZ       0.0021     ZZ     -15.4122
    Octapole Moments (Debye-Ang^2)
       XXX       1.1924    XXY      -0.0023    XYY       1.8634
       YYY      -0.0020    XXZ       0.9038    XYZ      -0.0080
       YYZ       1.9101    XZZ      -1.5200    YZZ      -0.0053
       ZZZ       7.7726
    Hexadecapole Moments (Debye-Ang^3)
      XXXX     -98.2832   XXXY       0.0050   XXYY     -22.0239
      XYYY       0.0012   YYYY     -19.3900   XXXZ      -9.1941
      XXYZ       0.0049   XYYZ      -1.3258   YYYZ       0.0026
      XXZZ     -31.3807   XYZZ       0.0030   YYZZ     -17.1739
      XZZZ      -4.5483   YZZZ       0.0095   ZZZZ     -98.6011
 -----------------------------------------------------------------
 Total job time:  135.57s(wall), 135.00s(cpu) 
 Wed May 29 17:38:51 2013

        *************************************************************
        *                                                           *
        *  Thank you very much for using Q-Chem.  Have a nice day.  *
        *                                                           *
        *************************************************************


0 sent ACK to 0 
now end server 0 ... 
