Process 0 of 1 is on cl165.stfx.acenet.ca - thread support 1
initial socket setup ...start
initial socket setup ...done 
now start server 0 ... 

cmd = /usr/bin/ssh clhead /usr/local/qchem/bin/get_hostid 987621505 > /globalscratch/itamblyn/bnl/g297_b3lyp_neut_g03Large_worked/g2g71117/omega380/qchem19352/lic.dat
                  Welcome to Q-Chem
     A Quantum Leap Into The Future Of Chemistry

 Y. Shao, L. Fusti-Molnar, Y. Jung, J. Kussmann, C. Ochsenfeld,
 S. T. Brown, A. T. B. Gilbert, L. V. Slipchenko,S. V. Levchenko,
 D. P. O'Neill, R. A. DiStasio Jr., R. C. Lochan, T. Wang,
 G. J. O. Beran, N. A. Besley, J. M. Herbert, C. Y. Lin,
 T. Van Voorhis, S. H. Chien, A. Sodt, R. P. Steele, 
 V. A. Rassolov, P. E. Maslen, P. P. Korambath, R. D. Adamson,
 B. Austin, J. Baker, E. F. C. Byrd, H. Dachsel, R. J. Doerksen,
 A. Dreuw, B. D. Dunietz, A. D. Dutoi, T. R. Furlani,
 S. R. Gwaltney, A. Heyden, S. Hirata, C.-P. Hsu, G. Kedziora,
 R. Z. Khaliullin, P. Klunzinger, A. M. Lee, M. S. Lee, W. Liang,
 I. Lotan, N. Nair, B. Peters, E. I. Proynov, P. A. Pieniazek, 
 Y. M. Rhee, J. Ritchie, E. Rosta, C. D. Sherrill, 
 A. C. Simmonett, J. E. Subotnik, H. L. Woodcock III,
 W. Zhang, A. T. Bell, A. K. Chakraborty, D. M. Chipman,
 F. J. Keil, A. Warshel, W. J. Hehre, H. F. Schaefer III,
 J. Kong, A. I. Krylov, P. M. W. Gill, M. Head-Gordon,
 Q-Chem, Version 3.1, Q-Chem, Inc., Pittsburgh, PA (2007).

 Additional authors for Version 3.1: 
 Z. Gan, Y. Zhao, N. E. Schultz, D. Truhlar, E. Epifanovsky and M. Oana.

 Additional authors for Version 3.2: 
 R. Baer, B. R. Brooks, D. Casanova, J.-D. Chai, C.-L. Cheng, 
 C. Cramer, D. Crittenden, A. Ghysels, G. Hawkins, E. G. Hohenstein, 
 C. Kelley, W. Kurlancheek, D. Liotard, E. Livshits, P. Manohar, 
 A. Marenich, D. Neuhauser, R. Olson, M. A. Rohrdanz, K. S. Thanthiriwatte, 
 A. J. W. Thom, V. Vanovschi, C. F. Williams, Q. Wu and Z.-Q. You. 


 Intel X86 Linux Version

 Q-chem begins on Fri Apr 15 16:24:01 2011  

 Parallel job on  1  processors
Processing $rem in /usr/local/qchem/config/preferences.

theFileMan(): MAXOPENFILES=974 MAX_SUB_FILE_NUM=16
Maximum size of a physical file is 2.0 GB, maximum size of a tmp-file is 32.0 GB


--------------------------------------------------------------
User input:
--------------------------------------------------------------

$molecule
-1,2
C
S,1,RAB
X,2,1.,1,A
C,2,RAB,3,A,1,180.,0
X,1,1.,2,90.,3,180.,0
X,4,1.,2,90.,3,180.,0
H,1,R16,2,A16,5,0.,0
H,1,R2378,2,A2378,5,B2378,0
H,1,R2378,2,A2378,5,-B2378,0
H,4,R16,2,A16,6,0.,0
H,4,R2378,2,A2378,6,B2378,0
H,4,R2378,2,A2378,6,-B2378,0

RAB=1.82580526
R16=1.09329676
R2378=1.09471502
A=49.80953519
A16=107.09654581
A2378=111.30515525
B2378=118.71196407

$end

$comment
negative
$end

$xc_functional
   X HF 1.0
   X BNL 1.0
   C LYP 1.0
$end

$rem
SYMMETRY_DECOMPOSITION	0
exchange 		general
BASIS                   g3large
omega			380
separate_jk		true
mem_static              760
max_scf_cycles          200
scf_final_print         1
sym_ignore              true
$end

--------------------------------------------------------------
 Writing REM_CC_EA            9
 ----------------------------------------------------
       Standard Nuclear Orientation (Angstroms)
    I     Atom         X            Y            Z
 ----------------------------------------------------
    1      C       0.000000     0.000000     0.000000
    2      S       0.000000     0.000000     1.825805
    3      C       1.800135     0.000000     2.130892
    4      H      -1.044985     0.000000    -0.321410
    5      H       0.489967     0.894500    -0.397748
    6      H       0.489967    -0.894500    -0.397748
    7      H       1.942413     0.000000     3.214891
    8      H       2.274163    -0.894500     1.714276
    9      H       2.274163     0.894500     1.714276
 ----------------------------------------------------
 Nuclear Repulsion Energy =   109.8977440333 hartrees
 There are       18 alpha and       17 beta electrons
 Requested basis set is G3large
 There are 75 shells and 210 basis functions

Total QAlloc Memory Limit   2000 MB
Mega-Array Size       743 MB
MEM_STATIC part       760 MB

                       Distance Matrix (Angstroms)
             C (  1)   S (  2)   C (  3)   H (  4)   H (  5)   H (  6)
   S (  2)  1.825805
   C (  3)  2.789478  1.825805
   H (  4)  1.093297  2.387997  3.756127
   H (  5)  1.094715  2.446301  2.985078  1.778211
   H (  6)  1.094715  2.446301  2.985078  1.778211  1.788999
   H (  7)  3.756127  2.387997  1.093297  4.629252  3.995109  3.995109
   H (  8)  2.985078  2.446301  1.094715  3.995109  3.293102  2.764779
   H (  9)  2.985078  2.446301  1.094715  3.995109  2.764779  3.293102
             H (  7)   H (  8)
   H (  8)  1.778211
   H (  9)  1.778211  1.788999
 
 A cutoff of  1.0D-08 yielded   2630 shell pairs
 There are  20806 function pairs ( 26214 Cartesian)
Evaluating contribution to one-electron hamiltonian from nuclear
 Smallest overlap matrix eigenvalue = 1.80E-04
 Multipole matrices computed through 2nd order

  Scale SEOQF with 1.000000e-01/1.000000e-01/1.000000e-01

 Standard Electronic Orientation quadrupole field applied
 Nucleus-field energy     =    -0.0000000089 hartrees
 Guess from superposition of atomic densities
 Warning:  Energy on first SCF cycle will be non-variational
 An unrestricted hybrid HF-DFT SCF calculation will be
 performed using Pulay DIIS extrapolation
 Exchange:     1.0000 Hartree-Fock + 1.0000 BNL
 Correlation:  1.0000 LYP
 Using SG-1 standard quadrature grid
 SCF converges when DIIS error is below 1.0E-05
 Warning!  Inaccurate integrated density:
   Number of electrons =    35
   Numerical integral  =    33.999603453975
   Relative error      =    -2.8582758458 %
 ---------------------------------------
  Cycle       Energy         DIIS Error
 ---------------------------------------
    1    -475.7531320065      2.76E-02
    2    -475.1324081695      3.08E-03
    3    -475.1860600809      2.91E-03
    4    -475.2346689845      4.50E-04
    5    -475.2395845969      2.61E-04
    6    -475.2424813278      1.10E-04
    7    -475.2438053247      4.33E-05
    8    -475.2440728283      2.19E-05
    9    -475.2441280843      6.56E-06 Convergence criterion met
 ---------------------------------------
 One-Electron    Energy =  -878.4635591063
 Total Coulomb   Energy =   329.2698127629
 Alpha Exchange  Energy =    -3.3288958027
 Beta  Exchange  Energy =    -3.2673647218
 DFT   Exchange  Energy =   -28.1284075983
 DFT Correlation Energy =    -1.2234576424
 Nuclear Repu.   Energy =   109.8977440244
 Nuclear Attr.   Energy = -1352.5593132079
 Kinetic         Energy =   474.0957541016
 <S^2> = 0.7504
 SCF time:  CPU 163.53 s  wall 178.64 s
 Final Alpha MO Eigenvalues
            1           2           3           4           5           6
    1 -87.7476516  -9.8516764  -9.8511007  -7.6917416  -5.7431901  -5.7389471
            7           8           9          10          11          12
    1  -5.7315705  -0.7983929  -0.6997510  -0.5922795  -0.4269477  -0.4258032
           13          14          15          16          17          18
    1  -0.4065591  -0.3898005  -0.3375267  -0.2901718  -0.1976243   0.0448291
           19          20          21          22          23
    1   0.1153218   0.1581827   0.1599152   0.1724527   0.1801237
 Final Beta MO Eigenvalues
            1           2           3           4           5           6
    1 -87.7475007  -9.8510289  -9.8504352  -7.6915727  -5.7428054  -5.7388283
            7           8           9          10          11          12
    1  -5.7314528  -0.7974835  -0.6982327  -0.5908642  -0.4264771  -0.4247264
           13          14          15          16          17          18
    1  -0.4051114  -0.3891783  -0.3362026  -0.2888150  -0.1970607   0.1274685
           19          20          21          22
    1   0.1354095   0.1511646   0.1551833   0.1698369
 Analysis of SCF Wavefunction
 
 --------------------------------------------------------------
                    Orbital Energies (a.u.)
 --------------------------------------------------------------
 
 Alpha MOs
 -- Occupied --
-87.748  -9.852  -9.851  -7.692  -5.743  -5.739  -5.732  -0.798
 -0.700  -0.592  -0.427  -0.426  -0.407  -0.390  -0.338  -0.290
 -0.198   0.045
 -- Virtual --
  0.115   0.158   0.160   0.172   0.180   0.192   0.221   0.231
  0.234   0.261   0.264   0.271   0.281   0.283   0.286   0.313
  0.320   0.332   0.336   0.349   0.357   0.374   0.403   0.463
  0.469   0.475   0.514   0.527   0.543   0.579   0.593   0.624
  0.637   0.658   0.672   0.695   0.701   0.745   0.746   0.761
  0.776   0.781   0.857   0.867   0.882   0.907   0.914   0.921
  0.932   1.026   1.055   1.071   1.076   1.123   1.129   1.140
  1.176   1.184   1.205   1.273   1.287   1.325   1.326   1.337
  1.350   1.378   1.409   1.429   1.454   1.473   1.484   1.524
  1.557   1.575   1.580   1.591   1.627   1.639   1.643   1.654
  1.678   1.686   1.718   1.752   1.758   1.760   1.841   1.878
  2.124   2.275   2.348   2.604   2.646   2.802   2.808   2.856
  3.002   3.146   3.152   3.166   3.175   3.215   3.239   3.248
  3.314   3.389   3.409   3.415   3.419   3.461   3.475   3.516
  3.517   3.548   3.581   3.698   3.741   3.787   3.788   3.827
  3.829   3.838   3.846   3.850   3.870   3.871   4.013   4.040
  4.087   4.103   4.108   4.168   4.278   4.294   4.348   4.354
  4.404   4.448   4.546   4.567   4.596   4.601   4.612   4.659
  4.685   4.689   4.994   5.002   5.070   5.211   5.278   5.397
  5.721   5.842   5.848   5.876   5.883   8.662  17.271  17.485
 17.596  23.717  23.777  23.783  23.822  23.889  24.412  24.413
 28.061  28.064  28.257  28.259  28.260  28.330  31.103  31.107
 31.111  31.114  31.114  31.128  31.132  41.051  41.057  41.081
 41.098  41.366  41.371  41.384  41.406  41.444  41.445 189.752
 
 Beta MOs
 -- Occupied --
-87.748  -9.851  -9.850  -7.692  -5.743  -5.739  -5.731  -0.797
 -0.698  -0.591  -0.426  -0.425  -0.405  -0.389  -0.336  -0.289
 -0.197
 -- Virtual --
  0.127   0.135   0.151   0.155   0.170   0.175   0.188   0.223
  0.224   0.226   0.255   0.256   0.263   0.275   0.276   0.277
  0.306   0.310   0.327   0.334   0.346   0.353   0.370   0.397
  0.458   0.462   0.475   0.513   0.525   0.539   0.575   0.590
  0.623   0.634   0.657   0.669   0.690   0.696   0.741   0.743
  0.759   0.771   0.776   0.852   0.862   0.882   0.907   0.913
  0.921   0.931   1.025   1.054   1.071   1.075   1.123   1.129
  1.140   1.176   1.184   1.204   1.272   1.285   1.324   1.324
  1.336   1.349   1.378   1.409   1.428   1.454   1.472   1.483
  1.523   1.557   1.574   1.579   1.590   1.627   1.639   1.642
  1.653   1.678   1.685   1.718   1.750   1.756   1.759   1.840
  1.877   2.124   2.275   2.348   2.603   2.646   2.802   2.808
  2.856   3.002   3.147   3.153   3.167   3.175   3.216   3.240
  3.248   3.315   3.390   3.409   3.416   3.419   3.461   3.475
  3.516   3.517   3.548   3.581   3.699   3.742   3.787   3.789
  3.827   3.830   3.839   3.846   3.850   3.871   3.872   4.013
  4.041   4.087   4.104   4.109   4.168   4.279   4.295   4.348
  4.354   4.404   4.448   4.546   4.568   4.597   4.601   4.612
  4.659   4.685   4.689   4.994   5.002   5.070   5.212   5.278
  5.397   5.721   5.842   5.848   5.876   5.884   8.663  17.271
 17.486  17.596  23.717  23.778  23.783  23.822  23.890  24.413
 24.414  28.061  28.065  28.257  28.259  28.261  28.330  31.103
 31.107  31.111  31.114  31.114  31.128  31.132  41.051  41.057
 41.081  41.098  41.366  41.371  41.384  41.406  41.444  41.445
189.752
 --------------------------------------------------------------
 
          Ground-State Mulliken Net Atomic Charges

     Atom                 Charge (a.u.)    Spin (a.u.)
  --------------------------------------------------------
      1 C                     1.195724      -1.462254
      2 S                    -0.365561       0.144553
      3 C                     1.262841      -1.529085
      4 H                    -0.889945       1.023087
      5 H                    -0.314400       0.436315
      6 H                    -0.300983       0.422589
      7 H                    -0.928463       1.062422
      8 H                    -0.336018       0.457717
      9 H                    -0.323195       0.444656
  --------------------------------------------------------
  Sum of atomic charges =    -1.000000
  Sum of spin   charges =     1.000000

 -----------------------------------------------------------------
                    Cartesian Multipole Moments
 -----------------------------------------------------------------
    Charge (ESU x 10^10)
                -4.8032
    Dipole Moment (Debye)
         X      -2.7016      Y       0.0001      Z      -6.8133
       Tot       7.3294
    Quadrupole Moments (Debye-Ang)
        XX     -67.7651     XY       0.1236     YY     -48.4579
        XZ     -22.0751     YZ       0.1502     ZZ     -81.8935
    Octapole Moments (Debye-Ang^2)
       XXX    -132.7481    XXY       0.3958    XYY     -32.2046
       YYY      -0.0027    XXZ    -113.1138    XYZ       0.2922
       YYZ     -62.6203    XZZ     -99.1575    YZZ       0.1388
       ZZZ    -292.2932
    Hexadecapole Moments (Debye-Ang^3)
      XXXX    -985.0348   XXXY       2.1573   XXYY    -194.3454
      XYYY       1.2910   YYYY    -249.2206   XXXZ    -487.2197
      XXYZ       1.1130   XYYZ    -123.9802   YYYZ       1.5535
      XXZZ    -534.7899   XYZZ       0.7452   YYZZ    -280.8673
      XZZZ    -580.7667   YZZZ       1.6191   ZZZZ   -1743.6993
 -----------------------------------------------------------------
 Total job time:  180.03s(wall), 163.82s(cpu) 
 Fri Apr 15 16:27:01 2011

        *************************************************************
        *                                                           *
        *  Thank you very much for using Q-Chem.  Have a nice day.  *
        *                                                           *
        *************************************************************


0 sent ACK to 0 
now end server 0 ... 
 
**********************************************************************
Job 2 of 3 
**********************************************************************
 
Process 0 of 1 is on cl165.stfx.acenet.ca - thread support 1
initial socket setup ...start
initial socket setup ...done 
now start server 0 ... 

cmd = /usr/bin/ssh clhead /usr/local/qchem/bin/get_hostid 1169874290 > /globalscratch/itamblyn/bnl/g297_b3lyp_neut_g03Large_worked/g2g71117/omega380/qchem19352/lic.dat
                  Welcome to Q-Chem
     A Quantum Leap Into The Future Of Chemistry

 Y. Shao, L. Fusti-Molnar, Y. Jung, J. Kussmann, C. Ochsenfeld,
 S. T. Brown, A. T. B. Gilbert, L. V. Slipchenko,S. V. Levchenko,
 D. P. O'Neill, R. A. DiStasio Jr., R. C. Lochan, T. Wang,
 G. J. O. Beran, N. A. Besley, J. M. Herbert, C. Y. Lin,
 T. Van Voorhis, S. H. Chien, A. Sodt, R. P. Steele, 
 V. A. Rassolov, P. E. Maslen, P. P. Korambath, R. D. Adamson,
 B. Austin, J. Baker, E. F. C. Byrd, H. Dachsel, R. J. Doerksen,
 A. Dreuw, B. D. Dunietz, A. D. Dutoi, T. R. Furlani,
 S. R. Gwaltney, A. Heyden, S. Hirata, C.-P. Hsu, G. Kedziora,
 R. Z. Khaliullin, P. Klunzinger, A. M. Lee, M. S. Lee, W. Liang,
 I. Lotan, N. Nair, B. Peters, E. I. Proynov, P. A. Pieniazek, 
 Y. M. Rhee, J. Ritchie, E. Rosta, C. D. Sherrill, 
 A. C. Simmonett, J. E. Subotnik, H. L. Woodcock III,
 W. Zhang, A. T. Bell, A. K. Chakraborty, D. M. Chipman,
 F. J. Keil, A. Warshel, W. J. Hehre, H. F. Schaefer III,
 J. Kong, A. I. Krylov, P. M. W. Gill, M. Head-Gordon,
 Q-Chem, Version 3.1, Q-Chem, Inc., Pittsburgh, PA (2007).

 Additional authors for Version 3.1: 
 Z. Gan, Y. Zhao, N. E. Schultz, D. Truhlar, E. Epifanovsky and M. Oana.

 Additional authors for Version 3.2: 
 R. Baer, B. R. Brooks, D. Casanova, J.-D. Chai, C.-L. Cheng, 
 C. Cramer, D. Crittenden, A. Ghysels, G. Hawkins, E. G. Hohenstein, 
 C. Kelley, W. Kurlancheek, D. Liotard, E. Livshits, P. Manohar, 
 A. Marenich, D. Neuhauser, R. Olson, M. A. Rohrdanz, K. S. Thanthiriwatte, 
 A. J. W. Thom, V. Vanovschi, C. F. Williams, Q. Wu and Z.-Q. You. 


 Intel X86 Linux Version

 Q-chem begins on Fri Apr 15 16:27:04 2011  

 Parallel job on  1  processors
Processing $rem in /usr/local/qchem/config/preferences.

theFileMan(): MAXOPENFILES=974 MAX_SUB_FILE_NUM=16
Maximum size of a physical file is 2.0 GB, maximum size of a tmp-file is 32.0 GB


--------------------------------------------------------------
User input:
--------------------------------------------------------------

$molecule
0,1
C
S,1,RAB
X,2,1.,1,A
C,2,RAB,3,A,1,180.,0
X,1,1.,2,90.,3,180.,0
X,4,1.,2,90.,3,180.,0
H,1,R16,2,A16,5,0.,0
H,1,R2378,2,A2378,5,B2378,0
H,1,R2378,2,A2378,5,-B2378,0
H,4,R16,2,A16,6,0.,0
H,4,R2378,2,A2378,6,B2378,0
H,4,R2378,2,A2378,6,-B2378,0

RAB=1.82580526
R16=1.09329676
R2378=1.09471502
A=49.80953519
A16=107.09654581
A2378=111.30515525
B2378=118.71196407

$end

$comment
neutral
$end

$xc_functional
   X HF 1.0
   X BNL 1.0
   C LYP 1.0
$end

$rem
SYMMETRY_DECOMPOSITION	0
exchange 		general
BASIS                   g3large
omega			380
separate_jk		true
mem_static              760
max_scf_cycles          200
scf_final_print         1
sym_ignore              true
$end

--------------------------------------------------------------
 Writing REM_CC_EA            9
 ----------------------------------------------------
       Standard Nuclear Orientation (Angstroms)
    I     Atom         X            Y            Z
 ----------------------------------------------------
    1      C       0.000000     0.000000     0.000000
    2      S       0.000000     0.000000     1.825805
    3      C       1.800135     0.000000     2.130892
    4      H      -1.044985     0.000000    -0.321410
    5      H       0.489967     0.894500    -0.397748
    6      H       0.489967    -0.894500    -0.397748
    7      H       1.942413     0.000000     3.214891
    8      H       2.274163    -0.894500     1.714276
    9      H       2.274163     0.894500     1.714276
 ----------------------------------------------------
 Nuclear Repulsion Energy =   109.8977440333 hartrees
 There are       17 alpha and       17 beta electrons
 Requested basis set is G3large
 There are 75 shells and 210 basis functions

Total QAlloc Memory Limit   2000 MB
Mega-Array Size       743 MB
MEM_STATIC part       760 MB

                       Distance Matrix (Angstroms)
             C (  1)   S (  2)   C (  3)   H (  4)   H (  5)   H (  6)
   S (  2)  1.825805
   C (  3)  2.789478  1.825805
   H (  4)  1.093297  2.387997  3.756127
   H (  5)  1.094715  2.446301  2.985078  1.778211
   H (  6)  1.094715  2.446301  2.985078  1.778211  1.788999
   H (  7)  3.756127  2.387997  1.093297  4.629252  3.995109  3.995109
   H (  8)  2.985078  2.446301  1.094715  3.995109  3.293102  2.764779
   H (  9)  2.985078  2.446301  1.094715  3.995109  2.764779  3.293102
             H (  7)   H (  8)
   H (  8)  1.778211
   H (  9)  1.778211  1.788999
 
 A cutoff of  1.0D-08 yielded   2630 shell pairs
 There are  20806 function pairs ( 26214 Cartesian)
Evaluating contribution to one-electron hamiltonian from nuclear
 Smallest overlap matrix eigenvalue = 1.80E-04
 Multipole matrices computed through 2nd order

  Scale SEOQF with 1.000000e-01/1.000000e-01/1.000000e-01

 Standard Electronic Orientation quadrupole field applied
 Nucleus-field energy     =    -0.0000000089 hartrees
 Guess from superposition of atomic densities
 Warning:  Energy on first SCF cycle will be non-variational
 A restricted hybrid HF-DFT SCF calculation will be
 performed using Pulay DIIS extrapolation
 Exchange:     1.0000 Hartree-Fock + 1.0000 BNL
 Correlation:  1.0000 LYP
 Using SG-1 standard quadrature grid
 SCF converges when DIIS error is below 1.0E-05
 ---------------------------------------
  Cycle       Energy         DIIS Error
 ---------------------------------------
    1    -475.7531320065      2.76E-02
    2    -475.2606091344      2.06E-03
    3    -475.2837839006      8.88E-04
    4    -475.2877226691      2.98E-04
    5    -475.2883414563      9.66E-05
    6    -475.2884350612      3.29E-05
    7    -475.2884540014      1.12E-05
    8    -475.2884558796      4.12E-06 Convergence criterion met
 ---------------------------------------
 One-Electron    Energy =  -874.1017854315
 Total Coulomb   Energy =   324.7903570621
 Alpha Exchange  Energy =    -3.2696268070
 Beta  Exchange  Energy =    -3.2696268070
 DFT   Exchange  Energy =   -28.1184080358
 DFT Correlation Energy =    -1.2171098847
 Nuclear Repu.   Energy =   109.8977440244
 Nuclear Attr.   Energy = -1348.1067108375
 Kinetic         Energy =   474.0049254060
 SCF time:  CPU 111.86 s  wall 135.17 s
 Final Alpha MO Eigenvalues
            1           2           3           4           5           6
    1 -87.8763063  -9.9828128  -9.9827322  -7.8205550  -5.8722893  -5.8676628
            7           8           9          10          11          12
    1  -5.8600911  -0.9273224  -0.8294064  -0.7211781  -0.5564428  -0.5555417
           13          14          15          16          17          18
    1  -0.5359100  -0.5188046  -0.4680750  -0.4175433  -0.3246100   0.0316725
           19          20          21          22
    1   0.0421721   0.0589929   0.0620010   0.0810912
 Analysis of SCF Wavefunction
 
 --------------------------------------------------------------
                    Orbital Energies (a.u.)
 --------------------------------------------------------------
 
 Alpha MOs
 -- Occupied --
-87.876  -9.983  -9.983  -7.821  -5.872  -5.868  -5.860  -0.927
 -0.829  -0.721  -0.556  -0.556  -0.536  -0.519  -0.468  -0.418
 -0.325
 -- Virtual --
  0.032   0.042   0.059   0.062   0.081   0.086   0.088   0.114
  0.119   0.126   0.148   0.152   0.156   0.169   0.174   0.175
  0.202   0.206   0.214   0.218   0.230   0.235   0.255   0.279
  0.343   0.350   0.350   0.392   0.404   0.421   0.455   0.473
  0.504   0.513   0.531   0.547   0.570   0.576   0.617   0.619
  0.637   0.651   0.654   0.731   0.740   0.755   0.780   0.788
  0.794   0.803   0.896   0.928   0.943   0.949   0.993   1.001
  1.014   1.050   1.057   1.078   1.145   1.160   1.197   1.198
  1.209   1.222   1.249   1.281   1.301   1.328   1.343   1.356
  1.395   1.430   1.448   1.452   1.462   1.498   1.512   1.517
  1.526   1.549   1.560   1.591   1.625   1.628   1.631   1.712
  1.750   1.997   2.148   2.219   2.475   2.516   2.672   2.680
  2.725   2.874   3.017   3.022   3.037   3.045   3.085   3.110
  3.119   3.185   3.259   3.280   3.286   3.289   3.331   3.345
  3.386   3.387   3.418   3.451   3.569   3.611   3.657   3.658
  3.697   3.700   3.710   3.717   3.720   3.741   3.742   3.883
  3.910   3.958   3.974   3.978   4.038   4.149   4.165   4.218
  4.225   4.273   4.319   4.416   4.436   4.464   4.471   4.482
  4.529   4.556   4.559   4.865   4.873   4.941   5.082   5.148
  5.267   5.592   5.713   5.719   5.744   5.752   8.534  17.142
 17.357  17.467  23.589  23.648  23.654  23.693  23.760  24.281
 24.282  27.929  27.933  28.125  28.128  28.129  28.198  30.974
 30.979  30.982  30.984  30.985  30.999  31.003  40.919  40.926
 40.950  40.966  41.235  41.239  41.253  41.275  41.313  41.314
189.624
 --------------------------------------------------------------
 
          Ground-State Mulliken Net Atomic Charges

     Atom                 Charge (a.u.)
  ----------------------------------------
      1 C                    -0.291301
      2 S                    -0.206971
      3 C                    -0.291583
      4 H                     0.129726
      5 H                     0.132650
      6 H                     0.132689
      7 H                     0.129567
      8 H                     0.132647
      9 H                     0.132577
  ----------------------------------------
  Sum of atomic charges =     0.000000

 -----------------------------------------------------------------
                    Cartesian Multipole Moments
 -----------------------------------------------------------------
    Charge (ESU x 10^10)
                 0.0000
    Dipole Moment (Debye)
         X       1.2982      Y      -0.0001      Z      -1.0971
       Tot       1.6997
    Quadrupole Moments (Debye-Ang)
        XX     -25.7580     XY       0.0000     YY     -29.3413
        XZ       3.5370     YZ       0.0001     ZZ     -29.3684
    Octapole Moments (Debye-Ang^2)
       XXX     -41.7411    XXY      -0.0025    XYY     -12.0613
       YYY      -0.0003    XXZ     -35.5284    XYZ      -0.0001
       YYZ     -43.3829    XZZ      -5.1552    YZZ       0.0024
       ZZZ    -114.5242
    Hexadecapole Moments (Debye-Ang^3)
      XXXX    -208.7557   XXXY      -0.0045   XXYY     -41.2341
      XYYY      -0.0005   YYYY     -53.5360   XXXZ     -86.8026
      XXYZ      -0.0044   XYYZ     -29.0276   YYYZ      -0.0001
      XXZZ    -112.0569   XYZZ      -0.0004   YYZZ    -104.2128
      XZZZ     -64.9815   YZZZ       0.0095   ZZZZ    -491.1745
 -----------------------------------------------------------------
 Total job time:  139.71s(wall), 112.15s(cpu) 
 Fri Apr 15 16:29:23 2011

        *************************************************************
        *                                                           *
        *  Thank you very much for using Q-Chem.  Have a nice day.  *
        *                                                           *
        *************************************************************


0 sent ACK to 0 
now end server 0 ... 
 
**********************************************************************
Job 3 of 3 
**********************************************************************
 
Process 0 of 1 is on cl165.stfx.acenet.ca - thread support 1
initial socket setup ...start
initial socket setup ...done 
now start server 0 ... 

cmd = /usr/bin/ssh clhead /usr/local/qchem/bin/get_hostid 1704130955 > /globalscratch/itamblyn/bnl/g297_b3lyp_neut_g03Large_worked/g2g71117/omega380/qchem19352/lic.dat
                  Welcome to Q-Chem
     A Quantum Leap Into The Future Of Chemistry

 Y. Shao, L. Fusti-Molnar, Y. Jung, J. Kussmann, C. Ochsenfeld,
 S. T. Brown, A. T. B. Gilbert, L. V. Slipchenko,S. V. Levchenko,
 D. P. O'Neill, R. A. DiStasio Jr., R. C. Lochan, T. Wang,
 G. J. O. Beran, N. A. Besley, J. M. Herbert, C. Y. Lin,
 T. Van Voorhis, S. H. Chien, A. Sodt, R. P. Steele, 
 V. A. Rassolov, P. E. Maslen, P. P. Korambath, R. D. Adamson,
 B. Austin, J. Baker, E. F. C. Byrd, H. Dachsel, R. J. Doerksen,
 A. Dreuw, B. D. Dunietz, A. D. Dutoi, T. R. Furlani,
 S. R. Gwaltney, A. Heyden, S. Hirata, C.-P. Hsu, G. Kedziora,
 R. Z. Khaliullin, P. Klunzinger, A. M. Lee, M. S. Lee, W. Liang,
 I. Lotan, N. Nair, B. Peters, E. I. Proynov, P. A. Pieniazek, 
 Y. M. Rhee, J. Ritchie, E. Rosta, C. D. Sherrill, 
 A. C. Simmonett, J. E. Subotnik, H. L. Woodcock III,
 W. Zhang, A. T. Bell, A. K. Chakraborty, D. M. Chipman,
 F. J. Keil, A. Warshel, W. J. Hehre, H. F. Schaefer III,
 J. Kong, A. I. Krylov, P. M. W. Gill, M. Head-Gordon,
 Q-Chem, Version 3.1, Q-Chem, Inc., Pittsburgh, PA (2007).

 Additional authors for Version 3.1: 
 Z. Gan, Y. Zhao, N. E. Schultz, D. Truhlar, E. Epifanovsky and M. Oana.

 Additional authors for Version 3.2: 
 R. Baer, B. R. Brooks, D. Casanova, J.-D. Chai, C.-L. Cheng, 
 C. Cramer, D. Crittenden, A. Ghysels, G. Hawkins, E. G. Hohenstein, 
 C. Kelley, W. Kurlancheek, D. Liotard, E. Livshits, P. Manohar, 
 A. Marenich, D. Neuhauser, R. Olson, M. A. Rohrdanz, K. S. Thanthiriwatte, 
 A. J. W. Thom, V. Vanovschi, C. F. Williams, Q. Wu and Z.-Q. You. 


 Intel X86 Linux Version

 Q-chem begins on Fri Apr 15 16:29:27 2011  

 Parallel job on  1  processors
Processing $rem in /usr/local/qchem/config/preferences.

theFileMan(): MAXOPENFILES=974 MAX_SUB_FILE_NUM=16
Maximum size of a physical file is 2.0 GB, maximum size of a tmp-file is 32.0 GB


--------------------------------------------------------------
User input:
--------------------------------------------------------------

$molecule
1,2
C
S,1,RAB
X,2,1.,1,A
C,2,RAB,3,A,1,180.,0
X,1,1.,2,90.,3,180.,0
X,4,1.,2,90.,3,180.,0
H,1,R16,2,A16,5,0.,0
H,1,R2378,2,A2378,5,B2378,0
H,1,R2378,2,A2378,5,-B2378,0
H,4,R16,2,A16,6,0.,0
H,4,R2378,2,A2378,6,B2378,0
H,4,R2378,2,A2378,6,-B2378,0

RAB=1.82580526
R16=1.09329676
R2378=1.09471502
A=49.80953519
A16=107.09654581
A2378=111.30515525
B2378=118.71196407

$end

$comment
positive
$end

$xc_functional
   X HF 1.0
   X BNL 1.0
   C LYP 1.0
$end

$rem
SYMMETRY_DECOMPOSITION	0
exchange 		general
BASIS                   g3large
omega			380
separate_jk		true
mem_static              760
max_scf_cycles          200
scf_final_print         1
sym_ignore              true
$end

--------------------------------------------------------------
 Writing REM_CC_EA            9
 ----------------------------------------------------
       Standard Nuclear Orientation (Angstroms)
    I     Atom         X            Y            Z
 ----------------------------------------------------
    1      C       0.000000     0.000000     0.000000
    2      S       0.000000     0.000000     1.825805
    3      C       1.800135     0.000000     2.130892
    4      H      -1.044985     0.000000    -0.321410
    5      H       0.489967     0.894500    -0.397748
    6      H       0.489967    -0.894500    -0.397748
    7      H       1.942413     0.000000     3.214891
    8      H       2.274163    -0.894500     1.714276
    9      H       2.274163     0.894500     1.714276
 ----------------------------------------------------
 Nuclear Repulsion Energy =   109.8977440333 hartrees
 There are       17 alpha and       16 beta electrons
 Requested basis set is G3large
 There are 75 shells and 210 basis functions

Total QAlloc Memory Limit   2000 MB
Mega-Array Size       743 MB
MEM_STATIC part       760 MB

                       Distance Matrix (Angstroms)
             C (  1)   S (  2)   C (  3)   H (  4)   H (  5)   H (  6)
   S (  2)  1.825805
   C (  3)  2.789478  1.825805
   H (  4)  1.093297  2.387997  3.756127
   H (  5)  1.094715  2.446301  2.985078  1.778211
   H (  6)  1.094715  2.446301  2.985078  1.778211  1.788999
   H (  7)  3.756127  2.387997  1.093297  4.629252  3.995109  3.995109
   H (  8)  2.985078  2.446301  1.094715  3.995109  3.293102  2.764779
   H (  9)  2.985078  2.446301  1.094715  3.995109  2.764779  3.293102
             H (  7)   H (  8)
   H (  8)  1.778211
   H (  9)  1.778211  1.788999
 
 A cutoff of  1.0D-08 yielded   2630 shell pairs
 There are  20806 function pairs ( 26214 Cartesian)
Evaluating contribution to one-electron hamiltonian from nuclear
 Smallest overlap matrix eigenvalue = 1.80E-04
 Multipole matrices computed through 2nd order

  Scale SEOQF with 1.000000e-01/1.000000e-01/1.000000e-01

 Standard Electronic Orientation quadrupole field applied
 Nucleus-field energy     =    -0.0000000089 hartrees
 Guess from superposition of atomic densities
 Warning:  Energy on first SCF cycle will be non-variational
 An unrestricted hybrid HF-DFT SCF calculation will be
 performed using Pulay DIIS extrapolation
 Exchange:     1.0000 Hartree-Fock + 1.0000 BNL
 Correlation:  1.0000 LYP
 Using SG-1 standard quadrature grid
 SCF converges when DIIS error is below 1.0E-05
 Warning!  Inaccurate integrated density:
   Number of electrons =    33
   Numerical integral  =    33.999603453975
   Relative error      =     3.0291013757 %
 ---------------------------------------
  Cycle       Energy         DIIS Error
 ---------------------------------------
    1    -475.7531320065      2.76E-02
    2    -474.9088413308      2.79E-03
    3    -474.9506212234      1.77E-03
    4    -474.9657157859      3.38E-04
    5    -474.9674431851      1.40E-04
    6    -474.9680431692      7.07E-05
    7    -474.9684519336      4.01E-05
    8    -474.9686578904      2.03E-05
    9    -474.9687259884      8.17E-06 Convergence criterion met
 ---------------------------------------
 One-Electron    Energy =  -864.9674933588
 Total Coulomb   Energy =   315.6689258893
 Alpha Exchange  Energy =    -3.2852240118
 Beta  Exchange  Energy =    -3.0948860634
 DFT   Exchange  Energy =   -28.0046851808
 DFT Correlation Energy =    -1.1831072874
 Nuclear Repu.   Energy =   109.8977440244
 Nuclear Attr.   Energy = -1338.6257167130
 Kinetic         Energy =   473.6582233542
 <S^2> = 0.7542
 SCF time:  CPU 157.35 s  wall 182.44 s
 Final Alpha MO Eigenvalues
            1           2           3           4           5           6
    1 -88.2175587 -10.2119250 -10.2116724  -8.1560731  -6.2093336  -6.2032018
            7           8           9          10          11          12
    1  -6.1984336  -1.2070006  -1.0616341  -0.9770221  -0.8022355  -0.7858352
           13          14          15          16          17          18
    1  -0.7778566  -0.7459986  -0.7033244  -0.6862920  -0.6396352  -0.1334179
           19          20          21          22
    1  -0.1141894  -0.1045810  -0.0772899  -0.0673319
 Final Beta MO Eigenvalues
            1           2           3           4           5           6
    1 -88.2117262 -10.2120053 -10.2117571  -8.1499393  -6.1988566  -6.1951357
            7           8           9          10          11          12
    1  -6.1942617  -1.1841726  -1.0586684  -0.9553968  -0.7831704  -0.7738998
           13          14          15          16          17          18
    1  -0.7707816  -0.7341653  -0.7014041  -0.6747674  -0.3163913  -0.1284658
           19          20          21
    1  -0.1135064  -0.0955499  -0.0776628
 Analysis of SCF Wavefunction
 
 --------------------------------------------------------------
                    Orbital Energies (a.u.)
 --------------------------------------------------------------
 
 Alpha MOs
 -- Occupied --
-88.218 -10.212 -10.212  -8.156  -6.209  -6.203  -6.198  -1.207
 -1.062  -0.977  -0.802  -0.786  -0.778  -0.746  -0.703  -0.686
 -0.640
 -- Virtual --
 -0.133  -0.114  -0.105  -0.077  -0.067  -0.064  -0.054  -0.044
 -0.035  -0.032  -0.021  -0.015  -0.001   0.002   0.030   0.032
  0.037   0.050   0.057   0.059   0.060   0.072   0.078   0.090
  0.113   0.141   0.175   0.182   0.190   0.217   0.248   0.262
  0.268   0.321   0.334   0.357   0.381   0.393   0.405   0.428
  0.439   0.460   0.462   0.525   0.534   0.552   0.555   0.561
  0.569   0.590   0.662   0.704   0.707   0.707   0.749   0.774
  0.775   0.793   0.793   0.832   0.922   0.929   0.965   0.984
  0.986   1.006   1.031   1.052   1.069   1.078   1.117   1.126
  1.166   1.180   1.222   1.235   1.240   1.280   1.286   1.296
  1.311   1.317   1.347   1.365   1.400   1.416   1.417   1.503
  1.535   1.691   1.877   1.953   2.252   2.297   2.452   2.454
  2.507   2.646   2.766   2.800   2.804   2.811   2.855   2.872
  2.874   2.938   3.034   3.043   3.053   3.057   3.098   3.106
  3.155   3.163   3.185   3.215   3.315   3.365   3.376   3.386
  3.407   3.432   3.434   3.442   3.465   3.466   3.498   3.628
  3.684   3.725   3.741   3.741   3.799   3.878   3.939   3.989
  3.998   4.044   4.093   4.182   4.212   4.241   4.246   4.255
  4.305   4.323   4.337   4.552   4.563   4.638   4.796   4.924
  5.019   5.303   5.487   5.493   5.526   5.531   8.209  16.794
 17.028  17.138  23.245  23.307  23.313  23.365  23.435  24.051
 24.052  27.698  27.702  27.897  27.899  27.900  27.970  30.633
 30.643  30.644  30.648  30.651  30.671  30.677  40.689  40.695
 40.721  40.738  41.005  41.010  41.023  41.045  41.083  41.085
189.284
 
 Beta MOs
 -- Occupied --
-88.212 -10.212 -10.212  -8.150  -6.199  -6.195  -6.194  -1.184
 -1.059  -0.955  -0.783  -0.774  -0.771  -0.734  -0.701  -0.675
 -- Virtual --
 -0.316  -0.128  -0.114  -0.096  -0.078  -0.066  -0.063  -0.051
 -0.045  -0.035  -0.029  -0.013  -0.013   0.002   0.003   0.030
  0.032   0.038   0.051   0.057   0.060   0.061   0.072   0.083
  0.113   0.116   0.144   0.183   0.192   0.198   0.223   0.250
  0.264   0.285   0.324   0.337   0.359   0.382   0.394   0.411
  0.429   0.442   0.462   0.463   0.529   0.539   0.554   0.563
  0.563   0.574   0.591   0.667   0.708   0.715   0.720   0.759
  0.782   0.792   0.796   0.813   0.838   0.925   0.932   0.970
  0.989   0.993   1.009   1.034   1.057   1.084   1.084   1.126
  1.128   1.172   1.192   1.228   1.237   1.245   1.284   1.290
  1.299   1.315   1.320   1.350   1.369   1.406   1.418   1.418
  1.505   1.537   1.720   1.884   1.959   2.257   2.299   2.457
  2.458   2.508   2.651   2.770   2.802   2.807   2.814   2.856
  2.876   2.880   2.942   3.035   3.048   3.057   3.062   3.102
  3.114   3.160   3.164   3.188   3.221   3.327   3.382   3.400
  3.412   3.420   3.447   3.450   3.451   3.472   3.477   3.499
  3.635   3.685   3.729   3.744   3.745   3.803   3.886   3.943
  3.995   4.004   4.050   4.098   4.188   4.216   4.247   4.248
  4.260   4.309   4.328   4.341   4.568   4.579   4.649   4.809
  4.928   5.025   5.310   5.493   5.499   5.528   5.533   8.221
 16.815  17.033  17.143  23.259  23.319  23.324  23.370  23.439
 24.051  24.052  27.698  27.702  27.897  27.899  27.900  27.970
 30.639  30.648  30.649  30.653  30.655  30.673  30.679  40.689
 40.695  40.722  40.738  41.005  41.010  41.023  41.045  41.084
 41.085 189.290
 --------------------------------------------------------------
 
          Ground-State Mulliken Net Atomic Charges

     Atom                 Charge (a.u.)    Spin (a.u.)
  --------------------------------------------------------
      1 C                    -0.248786      -0.020900
      2 S                     0.383256       0.916738
      3 C                    -0.248718      -0.021177
      4 H                     0.180840       0.000279
      5 H                     0.188257       0.031426
      6 H                     0.188120       0.030793
      7 H                     0.180772       0.000289
      8 H                     0.188075       0.031166
      9 H                     0.188184       0.031386
  --------------------------------------------------------
  Sum of atomic charges =     1.000000
  Sum of spin   charges =     1.000000

 -----------------------------------------------------------------
                    Cartesian Multipole Moments
 -----------------------------------------------------------------
    Charge (ESU x 10^10)
                 4.8032
    Dipole Moment (Debye)
         X       3.2581      Y      -0.0010      Z       6.0180
       Tot       6.8434
    Quadrupole Moments (Debye-Ang)
        XX     -16.6614     XY       0.0041     YY     -22.9679
        XZ       7.5377     YZ      -0.0063     ZZ     -10.1617
    Octapole Moments (Debye-Ang^2)
       XXX     -24.1102    XXY       0.0048    XYY      -9.5697
       YYY      -0.0013    XXZ     -19.1823    XYZ       0.0061
       YYZ     -33.8513    XZZ       5.6211    YZZ      -0.0148
       ZZZ     -68.1540
    Hexadecapole Moments (Debye-Ang^3)
      XXXX    -147.0936   XXXY       0.0167   XXYY     -30.3841
      XYYY       0.0059   YYYY     -36.4620   XXXZ     -49.7858
      XXYZ       0.0059   XYYZ     -25.4123   YYYZ      -0.0078
      XXZZ     -69.0664   XYZZ       0.0135   YYZZ     -80.1215
      XZZZ     -33.0091   YZZZ      -0.0427   ZZZZ    -353.1992
 -----------------------------------------------------------------
 Total job time:  185.70s(wall), 157.62s(cpu) 
 Fri Apr 15 16:32:33 2011

        *************************************************************
        *                                                           *
        *  Thank you very much for using Q-Chem.  Have a nice day.  *
        *                                                           *
        *************************************************************


0 sent ACK to 0 
now end server 0 ... 
