Process 0 of 1 is on cl085.stfx.acenet.ca - thread support 1
initial socket setup ...start
initial socket setup ...done 
now start server 0 ... 

cmd = /usr/bin/ssh clhead /usr/local/qchem/bin/get_hostid 186299898 > /scratch/tmp/5956783.1.short.q/qchem26500/lic.dat
                  Welcome to Q-Chem
     A Quantum Leap Into The Future Of Chemistry

 Y. Shao, L. Fusti-Molnar, Y. Jung, J. Kussmann, C. Ochsenfeld,
 S. T. Brown, A. T. B. Gilbert, L. V. Slipchenko,S. V. Levchenko,
 D. P. O'Neill, R. A. DiStasio Jr., R. C. Lochan, T. Wang,
 G. J. O. Beran, N. A. Besley, J. M. Herbert, C. Y. Lin,
 T. Van Voorhis, S. H. Chien, A. Sodt, R. P. Steele, 
 V. A. Rassolov, P. E. Maslen, P. P. Korambath, R. D. Adamson,
 B. Austin, J. Baker, E. F. C. Byrd, H. Dachsel, R. J. Doerksen,
 A. Dreuw, B. D. Dunietz, A. D. Dutoi, T. R. Furlani,
 S. R. Gwaltney, A. Heyden, S. Hirata, C.-P. Hsu, G. Kedziora,
 R. Z. Khaliullin, P. Klunzinger, A. M. Lee, M. S. Lee, W. Liang,
 I. Lotan, N. Nair, B. Peters, E. I. Proynov, P. A. Pieniazek, 
 Y. M. Rhee, J. Ritchie, E. Rosta, C. D. Sherrill, 
 A. C. Simmonett, J. E. Subotnik, H. L. Woodcock III,
 W. Zhang, A. T. Bell, A. K. Chakraborty, D. M. Chipman,
 F. J. Keil, A. Warshel, W. J. Hehre, H. F. Schaefer III,
 J. Kong, A. I. Krylov, P. M. W. Gill, M. Head-Gordon,
 Q-Chem, Version 3.1, Q-Chem, Inc., Pittsburgh, PA (2007).

 Additional authors for Version 3.1: 
 Z. Gan, Y. Zhao, N. E. Schultz, D. Truhlar, E. Epifanovsky and M. Oana.

 Additional authors for Version 3.2: 
 R. Baer, B. R. Brooks, D. Casanova, J.-D. Chai, C.-L. Cheng, 
 C. Cramer, D. Crittenden, A. Ghysels, G. Hawkins, E. G. Hohenstein, 
 C. Kelley, W. Kurlancheek, D. Liotard, E. Livshits, P. Manohar, 
 A. Marenich, D. Neuhauser, R. Olson, M. A. Rohrdanz, K. S. Thanthiriwatte, 
 A. J. W. Thom, V. Vanovschi, C. F. Williams, Q. Wu and Z.-Q. You. 


 Intel X86 Linux Version

 Q-chem begins on Wed May  1 12:44:18 2013  

 Parallel job on  1  processors
Processing $rem in /usr/local/qchem/config/preferences.

theFileMan(): MAXOPENFILES=974 MAX_SUB_FILE_NUM=16
Maximum size of a physical file is 2.0 GB, maximum size of a tmp-file is 32.0 GB


--------------------------------------------------------------
User input:
--------------------------------------------------------------

$molecule
0,1
C,-0.301099955,-1.1091315526,0.7344114371
O,-0.3127296016,0.329463745,0.7631762888
H,-0.6986887388,-1.4065121175,1.7044826967
H,0.7170681417,-1.4858547654,0.5992218023
H,-0.9316379175,-1.4856727664,-0.0764532137
N,0.1605192623,0.958228041,-0.3914229143
O,0.5122575277,0.2111903398,-1.2498962273

$end

$comment
neutral
$end

$xc_functional
C PBE   1.00
X wPBE  1.00
$end


$rem
SYMMETRY_DECOMPOSITION	0
LRC_DFT                 true
exchange 		general
BASIS                   g3large
omega			400 
JOBTYPE                 opt
mem_static              760
max_scf_cycles          200
scf_final_print         1
sym_ignore              true
$end


--------------------------------------------------------------
 Writing REM_CC_EA            7
 ----------------------------------------------------
       Standard Nuclear Orientation (Angstroms)
    I     Atom         X            Y            Z
 ----------------------------------------------------
    1      C      -0.301100    -1.109132     0.734411
    2      O      -0.312730     0.329464     0.763176
    3      H      -0.698689    -1.406512     1.704483
    4      H       0.717068    -1.485855     0.599222
    5      H      -0.931638    -1.485673    -0.076453
    6      N       0.160519     0.958228    -0.391423
    7      O       0.512258     0.211190    -1.249896
 ----------------------------------------------------
 Nuclear Repulsion Energy =   122.8117481126 hartrees
 There are       16 alpha and       16 beta electrons
 Requested basis set is G3large
 There are 58 shells and 198 basis functions

Total QAlloc Memory Limit   2000 MB
Mega-Array Size       743 MB
MEM_STATIC part       760 MB
 A cutoff of  1.0D-11 yielded   1626 shell pairs
 There are  19051 function pairs ( 24045 Cartesian)
Evaluating contribution to one-electron hamiltonian from nuclear
 Smallest overlap matrix eigenvalue = 4.93E-04
 Multipole matrices computed through 2nd order

  Scale SEOQF with 1.000000e-01/1.000000e-01/1.000000e-01

 Standard Electronic Orientation quadrupole field applied
 Nucleus-field energy     =    -0.0000000009 hartrees
 Guess from superposition of atomic densities
 Warning:  Energy on first SCF cycle will be non-variational
 Long-range K will be added via erf
 Coulomb attenuation parameter = 0.4 bohr**(-1)
 A restricted Kohn-Sham SCF calculation will be
 performed using Pulay DIIS extrapolation
 Exchange:  wPBE + LR-HF      Correlation:  PBE
 Using SG-1 standard quadrature grid
 SCF converges when DIIS error is below 1.0E-08
 Requested basis set is G3large
 There are 58 shells and 198 basis functions
 A cutoff of  1.0D-11 yielded   1626 shell pairs
 There are  19051 function pairs ( 24045 Cartesian)
 ---------------------------------------
  Cycle       Energy         DIIS Error
 ---------------------------------------
    1    -245.6448534938      3.22E-02
    2    -244.8158029619      5.46E-03
    3    -244.7910474045      6.56E-03
    4    -244.9214046519      8.85E-04
    5    -244.9236072522      4.22E-04
    6    -244.9242301957      1.86E-04
    7    -244.9244319387      4.77E-05
    8    -244.9244682123      2.11E-05
    9    -244.9244817480      9.23E-06
   10    -244.9244845430      4.29E-06
   11    -244.9244850987      1.55E-06
   12    -244.9244852611      4.84E-07
   13    -244.9244852847      1.70E-07
   14    -244.9244852561      3.29E-08
   15    -244.9244852568      8.83E-09 Convergence criterion met
 ---------------------------------------
 One-Electron    Energy =  -577.3277553129
 Total Coulomb   Energy =   239.9166658336
 Alpha Exchange  Energy =    -3.2416609170
 Beta  Exchange  Energy =    -3.2416609170
 DFT   Exchange  Energy =   -22.7732991090
 DFT Correlation Energy =    -1.0685229461
 Nuclear Repu.   Energy =   122.8117481116
 Nuclear Attr.   Energy =  -821.3838867750
 Kinetic         Energy =   244.0561314621
 SCF time:  CPU 172.18 s  wall 177.34 s
 Final Alpha MO Eigenvalues
            1           2           3           4           5           6
    1 -19.0409676 -19.0403905 -14.3867815 -10.1705469  -1.3620694  -1.1979650
            7           8           9          10          11          12
    1  -0.9129478  -0.7692312  -0.6921272  -0.6602375  -0.6478302  -0.5718457
           13          14          15          16          17          18
    1  -0.5529863  -0.5019476  -0.4498538  -0.4079353   0.0140854   0.0368184
           19          20          21
    1   0.0660406   0.0687997   0.0915105
 Analysis of SCF Wavefunction
 
 --------------------------------------------------------------
                    Orbital Energies (a.u.)
 --------------------------------------------------------------
 
 Alpha MOs
 -- Occupied --
-19.041 -19.040 -14.387 -10.171  -1.362  -1.198  -0.913  -0.769
 -0.692  -0.660  -0.648  -0.572  -0.553  -0.502  -0.450  -0.408
 -- Virtual --
  0.014   0.037   0.066   0.069   0.092   0.140   0.146   0.162
  0.171   0.178   0.189   0.216   0.233   0.237   0.248   0.255
  0.298   0.310   0.312   0.340   0.343   0.373   0.395   0.438
  0.460   0.499   0.521   0.560   0.631   0.634   0.642   0.680
  0.695   0.768   0.827   0.852   0.889   0.896   0.939   0.981
  1.003   1.083   1.091   1.109   1.146   1.151   1.176   1.193
  1.234   1.261   1.268   1.303   1.307   1.335   1.413   1.423
  1.475   1.515   1.552   1.604   1.632   1.650   1.717   1.767
  1.823   1.968   1.972   2.077   2.080   2.215   2.283   2.391
  2.496   2.509   2.539   2.646   2.819   3.005   3.098   3.145
  3.168   3.203   3.298   3.361   3.429   3.437   3.516   3.532
  3.624   3.673   3.717   3.721   3.770   3.770   3.902   3.918
  3.966   3.974   4.041   4.128   4.208   4.232   4.292   4.380
  4.397   4.402   4.520   4.559   4.747   4.751   4.823   4.886
  4.955   5.039   5.072   5.087   5.106   5.120   5.203   5.205
  5.283   5.347   5.486   5.509   5.579   5.640   5.657   5.749
  5.804   5.980   6.135   6.437   6.583   6.648   6.811   6.872
  6.978   7.100   7.179   7.218   7.289   7.294   7.407   7.696
  7.808   7.902  24.254  27.970  28.006  28.074  35.637  37.215
 37.609  38.094  40.354  40.379  40.434  40.504  40.727  40.906
 40.955  41.118  41.153  41.206  43.642  43.665  43.720  43.734
 43.770  43.789  43.812  43.911  43.936  43.976  45.596  45.627
 45.722  45.884  46.295  46.458  49.814  50.012
 --------------------------------------------------------------
 
          Ground-State Mulliken Net Atomic Charges

     Atom                 Charge (a.u.)
  ----------------------------------------
      1 C                    -0.187503
      2 O                     0.047426
      3 H                     0.105746
      4 H                     0.115821
      5 H                     0.115814
      6 N                    -0.132292
      7 O                    -0.065011
  ----------------------------------------
  Sum of atomic charges =     0.000000

 -----------------------------------------------------------------
                    Cartesian Multipole Moments
 -----------------------------------------------------------------
    Charge (ESU x 10^10)
                 0.0000
    Dipole Moment (Debye)
         X      -0.3686      Y      -2.0852      Z       0.8987
       Tot       2.3004
    Quadrupole Moments (Debye-Ang)
        XX     -22.5367     XY       0.6504     YY     -22.7273
        XZ       0.9363     YZ      -1.5871     ZZ     -24.4380
    Octapole Moments (Debye-Ang^2)
       XXX       1.5025    XXY      -0.3226    XYY      -0.2975
       YYY      -2.4156    XXZ      -0.4935    XYZ       0.9217
       YYZ       0.7252    XZZ      -2.0167    YZZ      -2.1932
       ZZZ       1.7470
    Hexadecapole Moments (Debye-Ang^3)
      XXXX     -42.7963   XXXY     -10.3126   XXYY     -25.9240
      XYYY     -10.1390   YYYY    -124.6562   XXXZ      20.6199
      XXYZ       7.9270   XYYZ       6.5232   YYYZ      24.7254
      XXZZ     -27.8280   XYZZ      -1.8586   YYZZ     -39.1653
      XZZZ      19.4348   YZZZ      21.7563   ZZZZ    -124.1024
 -----------------------------------------------------------------
 Calculating analytic gradient of the SCF energy
 Gradient of AOints
            1           2           3           4           5           6
    1   1.1422164   4.0628055   1.3963727  -3.4930264   2.3657683   0.7802901
    2   5.1250199  -3.7922120   1.5400004   2.1978430   2.1970727 -14.3766767
    3  -2.7861005  -9.9137096  -3.4063450   0.1752260   2.5760588  -1.9098467
            7
    1  -6.2544266
    2   7.1089527
    3  15.2647171
 Gradient of XC Energy
            1           2           3           4           5           6
    1  -0.0016635  -0.0782110  -0.0639307   0.1606567  -0.0996767  -0.0610859
    2  -0.0052715   0.0787880  -0.0501976  -0.0676737  -0.0676169   0.4008441
    3   0.0040372   0.1909641   0.1559510  -0.0210442  -0.1277463   0.1491224
            7
    1   0.1439112
    2  -0.2888723
    3  -0.3512842
 Gradient of SCF Energy
            1           2           3           4           5           6
    1  -0.0007530  -0.0078125  -0.0010644   0.0024904  -0.0012601  -0.0029863
    2  -0.0072964   0.0003477  -0.0009653  -0.0014737  -0.0014492   0.0316685
    3   0.0018112   0.0191835   0.0025774  -0.0007112  -0.0022657   0.0072089
            7
    1   0.0113860
    2  -0.0208315
    3  -0.0278041
 Max gradient component =       3.167E-02
 RMS gradient           =       1.178E-02
 Gradient time:  CPU 61.78 s  wall 62.23 s
 Geometry Optimization Parameters
   NAtoms,    NIC,     NZ,  NCons,   NDum,   NFix, NCnnct, MaxDiis
        7      32       0       0       0       0       0       0


** GEOMETRY OPTIMIZATION IN DELOCALIZED INTERNAL COORDINATES **
   Searching for a Minimum

   Optimization Cycle:   1

                       Coordinates (Angstroms)
     ATOM              X           Y           Z
    1  C          -0.301100   -1.109132    0.734411
    2  O          -0.312730    0.329464    0.763176
    3  H          -0.698689   -1.406512    1.704483
    4  H           0.717068   -1.485855    0.599222
    5  H          -0.931638   -1.485673   -0.076453
    6  N           0.160519    0.958228   -0.391423
    7  O           0.512258    0.211190   -1.249896
   Point Group: c1    Number of degrees of freedom:  15


   Energy is   -244.924485257


 Attempting to Generate Delocalized Internal Coordinates

 15 Hessian modes will be used to form the next step
  Hessian Eigenvalues:
     0.009466    0.010496    0.100782    0.106540    0.160000    0.160000
     0.160000    0.250000    0.250000    0.343531    0.343531    0.348418
     0.397326    0.460733    1.094159

 Minimum Search - Taking Simple RFO Step
 Searching for Lamda that Minimizes Along All modes
 Value Taken    Lamda =  -0.00316069
 Step Taken.  Stepsize is  0.077087

                             Maximum     Tolerance    Cnvgd?
         Gradient           0.030432      0.000300      NO
         Displacement       0.043207      0.001200      NO
         Energy change     *********      0.000001      NO


 New Cartesian Coordinates Obtained by Inverse Iteration

 Displacement from previous Coordinates is:  0.176322
 Writing REM_CC_EA            7
 ----------------------------------------------------
       Standard Nuclear Orientation (Angstroms)
    I     Atom         X            Y            Z
 ----------------------------------------------------
    1      C      -0.295647    -1.093910     0.720340
    2      O      -0.312344     0.329645     0.759829
    3      H      -0.689725    -1.397321     1.684990
    4      H       0.720960    -1.461292     0.583604
    5      H      -0.925211    -1.462135    -0.089130
    6      N       0.154889     0.931920    -0.377402
    7      O       0.492766     0.164804    -1.198711
 ----------------------------------------------------
 Nuclear Repulsion Energy =   125.1149956386 hartrees
 There are       16 alpha and       16 beta electrons
 Applying Cartesian multipole field
    Component          Value
    ---------          -----
     (2,0,0)        1.00000E-11
     (0,2,0)        2.00000E-11
     (0,0,2)       -3.00000E-11
 Nucleus-field energy     =    -0.0000000009 hartrees
 Requested basis set is G3large
 There are 58 shells and 198 basis functions
 A cutoff of  1.0D-11 yielded   1633 shell pairs
 There are  19119 function pairs ( 24125 Cartesian)
Evaluating contribution to one-electron hamiltonian from nuclear
 Smallest overlap matrix eigenvalue = 4.44E-04
 Multipole matrices computed through 2nd order
 Guess MOs from SCF MO coefficient file
Reading MOs from coefficient file
Reading MOs from coefficient file
 Long-range K will be added via erf
 Coulomb attenuation parameter = 0.4 bohr**(-1)
 A restricted Kohn-Sham SCF calculation will be
 performed using Pulay DIIS extrapolation
 Exchange:  wPBE + LR-HF      Correlation:  PBE
 Using SG-1 standard quadrature grid
 SCF converges when DIIS error is below 1.0E-08
 Requested basis set is G3large
 There are 58 shells and 198 basis functions
 A cutoff of  1.0D-11 yielded   1633 shell pairs
 There are  19119 function pairs ( 24125 Cartesian)
 ---------------------------------------
  Cycle       Energy         DIIS Error
 ---------------------------------------
    1    -244.9589093181      1.54E-03
    2    -244.9256481339      2.13E-04
    3    -244.9257387131      1.83E-04
    4    -244.9258317359      7.64E-05
    5    -244.9258512835      1.14E-05
    6    -244.9258526579      3.95E-06
    7    -244.9258527019      1.49E-06
    8    -244.9258527424      8.20E-07
    9    -244.9258527541      1.53E-07
   10    -244.9258527585      4.81E-08
   11    -244.9258527609      1.49E-08
   12    -244.9258527602      6.41E-09 Convergence criterion met
 ---------------------------------------
 One-Electron    Energy =  -581.8343826779
 Total Coulomb   Energy =   242.1710985733
 Alpha Exchange  Energy =    -3.2450579351
 Beta  Exchange  Energy =    -3.2450579351
 DFT   Exchange  Energy =   -22.8146365795
 DFT Correlation Energy =    -1.0728118437
 Nuclear Repu.   Energy =   125.1149956377
 Nuclear Attr.   Energy =  -826.0767606001
 Kinetic         Energy =   244.2423779222
 SCF time:  CPU 138.15 s  wall 141.50 s
 Final Alpha MO Eigenvalues
            1           2           3           4           5           6
    1 -19.0411683 -19.0353369 -14.3817222 -10.1677184  -1.3790091  -1.2062501
            7           8           9          10          11          12
    1  -0.9189043  -0.7647414  -0.6989055  -0.6707727  -0.6544029  -0.5727423
           13          14          15          16          17          18
    1  -0.5510997  -0.5022694  -0.4523045  -0.4054912   0.0231758   0.0370402
           19          20          21
    1   0.0659770   0.0687727   0.0918074
 Analysis of SCF Wavefunction
 
 --------------------------------------------------------------
                    Orbital Energies (a.u.)
 --------------------------------------------------------------
 
 Alpha MOs
 -- Occupied --
-19.041 -19.035 -14.382 -10.168  -1.379  -1.206  -0.919  -0.765
 -0.699  -0.671  -0.654  -0.573  -0.551  -0.502  -0.452  -0.405
 -- Virtual --
  0.023   0.037   0.066   0.069   0.092   0.140   0.148   0.163
  0.172   0.177   0.189   0.222   0.236   0.248   0.249   0.259
  0.301   0.312   0.319   0.340   0.344   0.376   0.397   0.443
  0.463   0.499   0.541   0.564   0.632   0.635   0.643   0.678
  0.698   0.779   0.822   0.852   0.887   0.908   0.937   0.987
  1.002   1.082   1.096   1.111   1.140   1.155   1.176   1.195
  1.236   1.272   1.279   1.305   1.305   1.345   1.423   1.430
  1.481   1.518   1.549   1.611   1.628   1.669   1.722   1.793
  1.857   1.979   2.018   2.092   2.105   2.224   2.284   2.401
  2.507   2.524   2.559   2.652   2.827   3.007   3.105   3.147
  3.178   3.206   3.328   3.365   3.435   3.446   3.523   3.540
  3.635   3.670   3.726   3.732   3.782   3.788   3.911   3.959
  3.981   3.999   4.071   4.153   4.217   4.251   4.317   4.394
  4.401   4.413   4.535   4.615   4.729   4.750   4.812   4.892
  4.961   5.046   5.086   5.091   5.118   5.134   5.216   5.229
  5.287   5.368   5.498   5.521   5.615   5.658   5.698   5.817
  5.837   6.042   6.222   6.486   6.664   6.704   6.827   6.929
  7.028   7.112   7.234   7.235   7.296   7.344   7.431   7.719
  7.821   7.944  24.300  27.978  28.018  28.098  35.713  37.234
 37.656  38.126  40.364  40.392  40.447  40.519  40.751  40.912
 40.968  41.122  41.160  41.215  43.652  43.676  43.726  43.746
 43.777  43.796  43.814  43.916  43.943  43.995  45.605  45.648
 45.753  45.915  46.336  46.504  49.839  50.065
 --------------------------------------------------------------
 
          Ground-State Mulliken Net Atomic Charges

     Atom                 Charge (a.u.)
  ----------------------------------------
      1 C                    -0.197854
      2 O                     0.066954
      3 H                     0.106024
      4 H                     0.117051
      5 H                     0.117223
      6 N                    -0.142424
      7 O                    -0.066974
  ----------------------------------------
  Sum of atomic charges =     0.000000

 -----------------------------------------------------------------
                    Cartesian Multipole Moments
 -----------------------------------------------------------------
    Charge (ESU x 10^10)
                 0.0000
    Dipole Moment (Debye)
         X      -0.3757      Y      -2.0395      Z       0.9160
       Tot       2.2671
    Quadrupole Moments (Debye-Ang)
        XX     -22.4422     XY       0.6238     YY     -22.7951
        XZ       0.9676     YZ      -1.5177     ZZ     -24.3963
    Octapole Moments (Debye-Ang^2)
       XXX       1.7381    XXY      -0.0149    XYY      -0.1751
       YYY      -1.4941    XXZ      -0.7229    XYZ       0.8515
       YYZ       0.4211    XZZ      -1.8203    YZZ      -1.7388
       ZZZ       0.9067
    Hexadecapole Moments (Debye-Ang^3)
      XXXX     -41.7329   XXXY      -9.5265   XXYY     -25.1626
      XYYY      -9.4024   YYYY    -120.8565   XXXZ      19.5622
      XXYZ       7.2822   XYYZ       6.1476   YYYZ      22.9203
      XXZZ     -26.7526   XYZZ      -1.5816   YYZZ     -37.5995
      XZZZ      18.4783   YZZZ      19.7825   ZZZZ    -118.6579
 -----------------------------------------------------------------
 Calculating analytic gradient of the SCF energy
 Gradient of AOints
            1           2           3           4           5           6
    1   1.2142403   4.1633526   1.3923262  -3.5438126   2.3981007   0.5935287
    2   5.3342688  -3.9120107   1.5485157   2.1713241   2.1735372 -14.8536307
    3  -2.9634760 -10.1239155  -3.4086002   0.1886297   2.6165488  -1.4286788
            7
    1  -6.2177358
    2   7.5379956
    3  15.1194921
 Gradient of XC Energy
            1           2           3           4           5           6
    1  -0.0024739  -0.0813128  -0.0635635   0.1616322  -0.1003095  -0.0543911
    2  -0.0108771   0.0774670  -0.0505766  -0.0659382  -0.0660806   0.4204285
    3   0.0060778   0.1978552   0.1555927  -0.0214938  -0.1285097   0.1318491
            7
    1   0.1404186
    2  -0.3044230
    3  -0.3413713
 Gradient of SCF Energy
            1           2           3           4           5           6
    1   0.0009418  -0.0013277   0.0000569   0.0002829  -0.0001255   0.0025680
    2  -0.0013519  -0.0039684   0.0004836   0.0006717   0.0006495   0.0079695
    3  -0.0023762   0.0033852  -0.0001428  -0.0001271  -0.0002553  -0.0063246
            7
    1  -0.0023965
    2  -0.0044539
    3   0.0058407
 Max gradient component =       7.969E-03
 RMS gradient           =       3.151E-03
 Gradient time:  CPU 65.46 s  wall 66.82 s
 Geometry Optimization Parameters
   NAtoms,    NIC,     NZ,  NCons,   NDum,   NFix, NCnnct, MaxDiis
        7      32       0       0       0       0       0       0

 Cartesian Hessian Update
 Hessian Updated using BFGS Update


** GEOMETRY OPTIMIZATION IN DELOCALIZED INTERNAL COORDINATES **
   Searching for a Minimum

   Optimization Cycle:   2

                       Coordinates (Angstroms)
     ATOM              X           Y           Z
    1  C          -0.295647   -1.093910    0.720340
    2  O          -0.312344    0.329645    0.759829
    3  H          -0.689725   -1.397321    1.684990
    4  H           0.720960   -1.461292    0.583604
    5  H          -0.925211   -1.462135   -0.089130
    6  N           0.154889    0.931920   -0.377402
    7  O           0.492766    0.164804   -1.198711
   Point Group: c1    Number of degrees of freedom:  15


   Energy is   -244.925852760

 Hessian Updated using BFGS Update

 14 Hessian modes will be used to form the next step
  Hessian Eigenvalues:
     0.009466    0.010496    0.100659    0.106540    0.159982    0.160477
     0.241881    0.256393    0.343531    0.345310    0.350481    0.409137
     0.511907    1.121660

 Minimum Search - Taking Simple RFO Step
 Searching for Lamda that Minimizes Along All modes
 Value Taken    Lamda =  -0.00107526
 Step Taken.  Stepsize is  0.060691

                             Maximum     Tolerance    Cnvgd?
         Gradient           0.014602      0.000300      NO
         Displacement       0.037427      0.001200      NO
         Energy change     -0.001368      0.000001      NO


 New Cartesian Coordinates Obtained by Inverse Iteration

 Displacement from previous Coordinates is:  0.146397
 Writing REM_CC_EA            7
 ----------------------------------------------------
       Standard Nuclear Orientation (Angstroms)
    I     Atom         X            Y            Z
 ----------------------------------------------------
    1      C      -0.298404    -1.101502     0.727143
    2      O      -0.307401     0.318288     0.747035
    3      H      -0.693826    -1.389832     1.694695
    4      H       0.713626    -1.479724     0.597941
    5      H      -0.929603    -1.480631    -0.074016
    6      N       0.154832     0.927782    -0.375233
    7      O       0.506465     0.217329    -1.234046
 ----------------------------------------------------
 Nuclear Repulsion Energy =   124.8484301807 hartrees
 There are       16 alpha and       16 beta electrons
 Applying Cartesian multipole field
    Component          Value
    ---------          -----
     (2,0,0)        1.00000E-11
     (0,2,0)        2.00000E-11
     (0,0,2)       -3.00000E-11
 Nucleus-field energy     =    -0.0000000009 hartrees
 Requested basis set is G3large
 There are 58 shells and 198 basis functions
 A cutoff of  1.0D-11 yielded   1627 shell pairs
 There are  19056 function pairs ( 24051 Cartesian)
Evaluating contribution to one-electron hamiltonian from nuclear
 Smallest overlap matrix eigenvalue = 4.56E-04
 Multipole matrices computed through 2nd order
 Guess MOs from SCF MO coefficient file
Reading MOs from coefficient file
Reading MOs from coefficient file
 Long-range K will be added via erf
 Coulomb attenuation parameter = 0.4 bohr**(-1)
 A restricted Kohn-Sham SCF calculation will be
 performed using Pulay DIIS extrapolation
 Exchange:  wPBE + LR-HF      Correlation:  PBE
 Using SG-1 standard quadrature grid
 SCF converges when DIIS error is below 1.0E-08
 Requested basis set is G3large
 There are 58 shells and 198 basis functions
 A cutoff of  1.0D-11 yielded   1627 shell pairs
 There are  19056 function pairs ( 24051 Cartesian)
 ---------------------------------------
  Cycle       Energy         DIIS Error
 ---------------------------------------
    1    -244.9312360152      1.62E-03
    2    -244.9257115372      2.16E-04
    3    -244.9258114703      2.19E-04
    4    -244.9259587531      5.61E-05
    5    -244.9259697912      2.14E-05
    6    -244.9259714571      1.09E-05
    7    -244.9259719378      1.58E-06
    8    -244.9259719836      6.01E-07
    9    -244.9259719385      1.93E-07
   10    -244.9259717798      8.27E-08
   11    -244.9259717981      3.64E-08
   12    -244.9259717974      1.46E-08
   13    -244.9259718209      4.34E-09 Convergence criterion met
 ---------------------------------------
 One-Electron    Energy =  -581.2597160410
 Total Coulomb   Energy =   241.8723666881
 Alpha Exchange  Energy =    -3.2456592626
 Beta  Exchange  Energy =    -3.2456592626
 DFT   Exchange  Energy =   -22.8228618046
 DFT Correlation Energy =    -1.0728723180
 Nuclear Repu.   Energy =   124.8484301798
 Nuclear Attr.   Energy =  -825.5345706354
 Kinetic         Energy =   244.2748545944
 SCF time:  CPU 150.97 s  wall 153.99 s
 Final Alpha MO Eigenvalues
            1           2           3           4           5           6
    1 -19.0433358 -19.0348713 -14.3793017 -10.1683568  -1.3801811  -1.2132226
            7           8           9          10          11          12
    1  -0.9225788  -0.7657262  -0.6976621  -0.6721589  -0.6566224  -0.5757777
           13          14          15          16          17          18
    1  -0.5548860  -0.5017124  -0.4535940  -0.4010643   0.0268565   0.0365560
           19          20          21
    1   0.0657959   0.0685035   0.0916910
 Analysis of SCF Wavefunction
 
 --------------------------------------------------------------
                    Orbital Energies (a.u.)
 --------------------------------------------------------------
 
 Alpha MOs
 -- Occupied --
-19.043 -19.035 -14.379 -10.168  -1.380  -1.213  -0.923  -0.766
 -0.698  -0.672  -0.657  -0.576  -0.555  -0.502  -0.454  -0.401
 -- Virtual --
  0.027   0.037   0.066   0.069   0.092   0.139   0.148   0.162
  0.173   0.178   0.189   0.222   0.235   0.249   0.250   0.258
  0.300   0.311   0.324   0.341   0.346   0.378   0.396   0.441
  0.462   0.499   0.547   0.562   0.631   0.636   0.642   0.679
  0.701   0.773   0.822   0.853   0.893   0.901   0.941   0.985
  1.001   1.085   1.096   1.112   1.145   1.153   1.178   1.194
  1.237   1.264   1.275   1.306   1.312   1.344   1.420   1.432
  1.480   1.518   1.560   1.609   1.632   1.658   1.718   1.781
  1.844   1.980   1.986   2.098   2.104   2.241   2.298   2.402
  2.499   2.541   2.560   2.662   2.812   3.006   3.107   3.150
  3.172   3.204   3.309   3.360   3.442   3.443   3.525   3.536
  3.634   3.670   3.728   3.738   3.784   3.794   3.911   3.942
  3.982   4.012   4.059   4.160   4.220   4.250   4.341   4.393
  4.402   4.419   4.530   4.632   4.719   4.753   4.783   4.885
  4.956   5.043   5.079   5.093   5.112   5.134   5.219   5.224
  5.282   5.390   5.487   5.521   5.625   5.674   5.696   5.794
  5.841   6.091   6.213   6.498   6.690   6.746   6.816   6.928
  7.063   7.110   7.207   7.230   7.307   7.353   7.461   7.721
  7.839   7.957  24.313  27.981  28.019  28.087  35.735  37.240
 37.636  38.154  40.367  40.394  40.448  40.534  40.758  40.912
 40.970  41.122  41.160  41.215  43.649  43.671  43.724  43.742
 43.778  43.791  43.816  43.921  43.945  43.997  45.607  45.652
 45.753  45.913  46.347  46.529  49.843  50.070
 --------------------------------------------------------------
 
          Ground-State Mulliken Net Atomic Charges

     Atom                 Charge (a.u.)
  ----------------------------------------
      1 C                    -0.192463
      2 O                     0.081831
      3 H                     0.105337
      4 H                     0.115608
      5 H                     0.115761
      6 N                    -0.153991
      7 O                    -0.072084
  ----------------------------------------
  Sum of atomic charges =     0.000000

 -----------------------------------------------------------------
                    Cartesian Multipole Moments
 -----------------------------------------------------------------
    Charge (ESU x 10^10)
                 0.0000
    Dipole Moment (Debye)
         X      -0.4098      Y      -2.1269      Z       1.0005
       Tot       2.3859
    Quadrupole Moments (Debye-Ang)
        XX     -22.4201     XY       0.6046     YY     -22.8817
        XZ       0.9565     YZ      -1.4796     ZZ     -24.3531
    Octapole Moments (Debye-Ang^2)
       XXX       1.4607    XXY      -0.1674    XYY      -0.2912
       YYY      -2.1849    XXZ      -0.4760    XYZ       0.8590
       YYZ       0.6970    XZZ      -1.9781    YZZ      -1.9040
       ZZZ       1.7321
    Hexadecapole Moments (Debye-Ang^3)
      XXXX     -42.0596   XXXY     -10.1439   XXYY     -25.3938
      XYYY     -10.0222   YYYY    -122.1275   XXXZ      20.0021
      XXYZ       7.8058   XYYZ       6.3785   YYYZ      24.3795
      XXZZ     -27.1647   XYZZ      -1.8959   YYZZ     -38.2979
      XZZZ      18.9201   YZZZ      21.4935   ZZZZ    -120.8165
 -----------------------------------------------------------------
 Calculating analytic gradient of the SCF energy
 Gradient of AOints
            1           2           3           4           5           6
    1   1.1728388   4.1843108   1.3983905  -3.5123186   2.4076598   0.7791562
    2   5.2379660  -3.7854154   1.5036866   2.2154048   2.2163506 -14.1630503
    3  -2.8672953 -10.1523898  -3.4217569   0.1397401   2.5610935  -1.9480551
            7
    1  -6.4300375
    2   6.7750577
    3  15.6886634
 Gradient of XC Energy
            1           2           3           4           5           6
    1  -0.0015782  -0.0835714  -0.0639844   0.1612333  -0.1010993  -0.0606375
    2  -0.0079471   0.0764949  -0.0484273  -0.0681573  -0.0682400   0.3976722
    3   0.0040129   0.2026801   0.1565497  -0.0198250  -0.1271269   0.1492407
            7
    1   0.1496374
    2  -0.2813954
    3  -0.3655314
 Gradient of SCF Energy
            1           2           3           4           5           6
    1   0.0002781  -0.0012110   0.0002730  -0.0010691   0.0005972   0.0025409
    2   0.0015552   0.0002659   0.0010230   0.0005257   0.0005795  -0.0144918
    3  -0.0005194   0.0028209  -0.0006547   0.0002403   0.0008847  -0.0060190
            7
    1  -0.0014090
    2   0.0105424
    3   0.0032473
 Max gradient component =       1.449E-02
 RMS gradient           =       4.327E-03
 Gradient time:  CPU 71.97 s  wall 72.74 s
 Geometry Optimization Parameters
   NAtoms,    NIC,     NZ,  NCons,   NDum,   NFix, NCnnct, MaxDiis
        7      32       0       0       0       0       0       0

 Cartesian Hessian Update
 Hessian Updated using BFGS Update


** GEOMETRY OPTIMIZATION IN DELOCALIZED INTERNAL COORDINATES **
   Searching for a Minimum

   Optimization Cycle:   3

                       Coordinates (Angstroms)
     ATOM              X           Y           Z
    1  C          -0.298404   -1.101502    0.727143
    2  O          -0.307401    0.318288    0.747035
    3  H          -0.693826   -1.389832    1.694695
    4  H           0.713626   -1.479724    0.597941
    5  H          -0.929603   -1.480631   -0.074016
    6  N           0.154832    0.927782   -0.375233
    7  O           0.506465    0.217329   -1.234046
   Point Group: c1    Number of degrees of freedom:  15


   Energy is   -244.925971821

 Hessian Updated using BFGS Update

 15 Hessian modes will be used to form the next step
  Hessian Eigenvalues:
     0.009469    0.010495    0.100868    0.106540    0.158187    0.160000
     0.160198    0.238670    0.343531    0.343950    0.348631    0.359275
     0.401062    0.689635    1.099646

 Minimum Search - Taking Simple RFO Step
 Searching for Lamda that Minimizes Along All modes
 Value Taken    Lamda =  -0.00044982
 Step Taken.  Stepsize is  0.029622

                             Maximum     Tolerance    Cnvgd?
         Gradient           0.009475      0.000300      NO
         Displacement       0.018797      0.001200      NO
         Energy change     -0.000119      0.000001      NO


 New Cartesian Coordinates Obtained by Inverse Iteration

 Displacement from previous Coordinates is:  0.041990
 Writing REM_CC_EA            7
 ----------------------------------------------------
       Standard Nuclear Orientation (Angstroms)
    I     Atom         X            Y            Z
 ----------------------------------------------------
    1      C      -0.298627    -1.100281     0.726152
    2      O      -0.308137     0.324065     0.745765
    3      H      -0.691263    -1.394253     1.694680
    4      H       0.714357    -1.478982     0.592646
    5      H      -0.931452    -1.480891    -0.075151
    6      N       0.153065     0.937479    -0.377817
    7      O       0.507744     0.204574    -1.222755
 ----------------------------------------------------
 Nuclear Repulsion Energy =   124.7423885669 hartrees
 There are       16 alpha and       16 beta electrons
 Applying Cartesian multipole field
    Component          Value
    ---------          -----
     (2,0,0)        1.00000E-11
     (0,2,0)        2.00000E-11
     (0,0,2)       -3.00000E-11
 Nucleus-field energy     =    -0.0000000009 hartrees
 Requested basis set is G3large
 There are 58 shells and 198 basis functions
 A cutoff of  1.0D-11 yielded   1628 shell pairs
 There are  19068 function pairs ( 24063 Cartesian)
Evaluating contribution to one-electron hamiltonian from nuclear
 Smallest overlap matrix eigenvalue = 4.57E-04
 Multipole matrices computed through 2nd order
 Guess MOs from SCF MO coefficient file
Reading MOs from coefficient file
Reading MOs from coefficient file
 Long-range K will be added via erf
 Coulomb attenuation parameter = 0.4 bohr**(-1)
 A restricted Kohn-Sham SCF calculation will be
 performed using Pulay DIIS extrapolation
 Exchange:  wPBE + LR-HF      Correlation:  PBE
 Using SG-1 standard quadrature grid
 SCF converges when DIIS error is below 1.0E-08
 Requested basis set is G3large
 There are 58 shells and 198 basis functions
 A cutoff of  1.0D-11 yielded   1628 shell pairs
 There are  19068 function pairs ( 24063 Cartesian)
 ---------------------------------------
  Cycle       Energy         DIIS Error
 ---------------------------------------
    1    -244.9215977828      6.39E-04
    2    -244.9261463948      9.62E-05
    3    -244.9261699202      8.45E-05
    4    -244.9261912900      2.21E-05
    5    -244.9261932841      6.90E-06
    6    -244.9261935699      4.96E-06
    7    -244.9261937120      1.46E-06
    8    -244.9261936329      6.27E-07
    9    -244.9261936729      2.27E-07
   10    -244.9261937000      9.62E-08
   11    -244.9261936685      4.11E-08
   12    -244.9261936681      1.15E-08
   13    -244.9261936677      2.58E-09 Convergence criterion met
 ---------------------------------------
 One-Electron    Energy =  -581.0765431486
 Total Coulomb   Energy =   241.7862122351
 Alpha Exchange  Energy =    -3.2451582203
 Beta  Exchange  Energy =    -3.2451582203
 DFT   Exchange  Energy =   -22.8155026776
 DFT Correlation Energy =    -1.0724322021
 Nuclear Repu.   Energy =   124.7423885660
 Nuclear Attr.   Energy =  -825.3168854943
 Kinetic         Energy =   244.2403423457
 SCF time:  CPU 149.40 s  wall 154.63 s
 Final Alpha MO Eigenvalues
            1           2           3           4           5           6
    1 -19.0427864 -19.0342342 -14.3807525 -10.1691261  -1.3780439  -1.2093637
            7           8           9          10          11          12
    1  -0.9216570  -0.7656449  -0.6969033  -0.6705568  -0.6553736  -0.5739859
           13          14          15          16          17          18
    1  -0.5536556  -0.5007235  -0.4530558  -0.4034152   0.0248494   0.0365963
           19          20          21
    1   0.0658260   0.0686177   0.0916757
 Analysis of SCF Wavefunction
 
 --------------------------------------------------------------
                    Orbital Energies (a.u.)
 --------------------------------------------------------------
 
 Alpha MOs
 -- Occupied --
-19.043 -19.034 -14.381 -10.169  -1.378  -1.209  -0.922  -0.766
 -0.697  -0.671  -0.655  -0.574  -0.554  -0.501  -0.453  -0.403
 -- Virtual --
  0.025   0.037   0.066   0.069   0.092   0.139   0.148   0.162
  0.172   0.178   0.189   0.222   0.235   0.248   0.249   0.258
  0.301   0.311   0.323   0.341   0.345   0.377   0.396   0.442
  0.462   0.499   0.543   0.562   0.631   0.635   0.642   0.679
  0.699   0.774   0.821   0.853   0.891   0.901   0.940   0.985
  1.001   1.084   1.095   1.112   1.145   1.154   1.177   1.194
  1.237   1.266   1.275   1.305   1.310   1.342   1.420   1.429
  1.480   1.517   1.556   1.609   1.629   1.660   1.719   1.785
  1.843   1.978   2.001   2.097   2.100   2.233   2.290   2.400
  2.500   2.532   2.558   2.655   2.815   3.006   3.105   3.150
  3.174   3.203   3.311   3.363   3.440   3.440   3.522   3.537
  3.634   3.671   3.727   3.734   3.784   3.794   3.908   3.944
  3.978   4.004   4.064   4.158   4.219   4.249   4.336   4.389
  4.401   4.417   4.524   4.616   4.726   4.751   4.796   4.887
  4.954   5.043   5.080   5.092   5.113   5.134   5.216   5.222
  5.281   5.377   5.491   5.518   5.619   5.666   5.695   5.797
  5.834   6.075   6.218   6.483   6.667   6.725   6.820   6.928
  7.038   7.107   7.218   7.232   7.303   7.347   7.442   7.719
  7.832   7.949  24.298  27.980  28.015  28.085  35.721  37.236
 37.645  38.140  40.365  40.391  40.446  40.527  40.754  40.910
 40.966  41.121  41.159  41.213  43.650  43.673  43.724  43.744
 43.777  43.791  43.815  43.919  43.944  43.995  45.606  45.649
 45.751  45.907  46.343  46.518  49.841  50.061
 --------------------------------------------------------------
 
          Ground-State Mulliken Net Atomic Charges

     Atom                 Charge (a.u.)
  ----------------------------------------
      1 C                    -0.193062
      2 O                     0.076168
      3 H                     0.105852
      4 H                     0.116139
      5 H                     0.116697
      6 N                    -0.147505
      7 O                    -0.074290
  ----------------------------------------
  Sum of atomic charges =     0.000000

 -----------------------------------------------------------------
                    Cartesian Multipole Moments
 -----------------------------------------------------------------
    Charge (ESU x 10^10)
                 0.0000
    Dipole Moment (Debye)
         X      -0.4092      Y      -2.1067      Z       0.9945
       Tot       2.3653
    Quadrupole Moments (Debye-Ang)
        XX     -22.4490     XY       0.6286     YY     -22.7998
        XZ       0.9735     YZ      -1.5006     ZZ     -24.3851
    Octapole Moments (Debye-Ang^2)
       XXX       1.4834    XXY      -0.1886    XYY      -0.2725
       YYY      -2.2129    XXZ      -0.5086    XYZ       0.8745
       YYZ       0.6758    XZZ      -1.9715    YZZ      -1.9573
       ZZZ       1.6293
    Hexadecapole Moments (Debye-Ang^3)
      XXXX     -42.1729   XXXY     -10.0134   XXYY     -25.4431
      XYYY      -9.8300   YYYY    -122.3852   XXXZ      19.9916
      XXYZ       7.7243   XYYZ       6.3272   YYYZ      24.0683
      XXZZ     -27.0961   XYZZ      -1.8239   YYZZ     -38.1534
      XZZZ      18.9157   YZZZ      21.1618   ZZZZ    -120.1110
 -----------------------------------------------------------------
 Calculating analytic gradient of the SCF energy
 Gradient of AOints
            1           2           3           4           5           6
    1   1.1941223   4.1556995   1.3849274  -3.5062904   2.4066996   0.7966176
    2   5.2060583  -3.7326282   1.5403496   2.2195895   2.2241932 -14.5084332
    3  -2.9133858 -10.0768123  -3.4188917   0.1598512   2.5585711  -1.7060475
            7
    1  -6.4317760
    2   7.0508708
    3  15.3967149
 Gradient of XC Energy
            1           2           3           4           5           6
    1  -0.0021709  -0.0819960  -0.0633495   0.1609088  -0.1010562  -0.0606666
    2  -0.0061756   0.0735562  -0.0499049  -0.0682229  -0.0685404   0.4088148
    3   0.0053465   0.1995652   0.1563406  -0.0205761  -0.1268675   0.1397881
            7
    1   0.1483303
    2  -0.2895272
    3  -0.3535968
 Gradient of SCF Energy
            1           2           3           4           5           6
    1  -0.0004151  -0.0000121   0.0000144  -0.0000852   0.0000214   0.0010187
    2   0.0000245  -0.0011753  -0.0002932  -0.0000938  -0.0001390   0.0002765
    3   0.0004212   0.0008609   0.0000015   0.0000584   0.0001531  -0.0031982
            7
    1  -0.0005421
    2   0.0014003
    3   0.0017031
 Max gradient component =       3.198E-03
 RMS gradient           =       9.542E-04
 Gradient time:  CPU 75.09 s  wall 75.55 s
 Geometry Optimization Parameters
   NAtoms,    NIC,     NZ,  NCons,   NDum,   NFix, NCnnct, MaxDiis
        7      32       0       0       0       0       0       0

 Cartesian Hessian Update
 Hessian Updated using BFGS Update


** GEOMETRY OPTIMIZATION IN DELOCALIZED INTERNAL COORDINATES **
   Searching for a Minimum

   Optimization Cycle:   4

                       Coordinates (Angstroms)
     ATOM              X           Y           Z
    1  C          -0.298627   -1.100281    0.726152
    2  O          -0.308137    0.324065    0.745765
    3  H          -0.691263   -1.394253    1.694680
    4  H           0.714357   -1.478982    0.592646
    5  H          -0.931452   -1.480891   -0.075151
    6  N           0.153065    0.937479   -0.377817
    7  O           0.507744    0.204574   -1.222755
   Point Group: c1    Number of degrees of freedom:  15


   Energy is   -244.926193668

 Hessian Updated using BFGS Update

 15 Hessian modes will be used to form the next step
  Hessian Eigenvalues:
     0.009582    0.010497    0.100799    0.106539    0.159423    0.160020
     0.160201    0.241813    0.343395    0.343538    0.348785    0.394098
     0.432267    0.606119    1.039806

 Minimum Search - Taking Simple RFO Step
 Searching for Lamda that Minimizes Along All modes
 Value Taken    Lamda =  -0.00004248
 Step Taken.  Stepsize is  0.036457

                             Maximum     Tolerance    Cnvgd?
         Gradient           0.002393      0.000300      NO
         Displacement       0.024788      0.001200      NO
         Energy change     -0.000222      0.000001      NO


 New Cartesian Coordinates Obtained by Inverse Iteration

 Displacement from previous Coordinates is:  0.057480
 Writing REM_CC_EA            7
 ----------------------------------------------------
       Standard Nuclear Orientation (Angstroms)
    I     Atom         X            Y            Z
 ----------------------------------------------------
    1      C      -0.296454    -1.098385     0.725411
    2      O      -0.307556     0.325698     0.749141
    3      H      -0.697283    -1.393995     1.690101
    4      H       0.718289    -1.475449     0.598922
    5      H      -0.922367    -1.476103    -0.083015
    6      N       0.162742     0.933639    -0.371073
    7      O       0.488316     0.196305    -1.225967
 ----------------------------------------------------
 Nuclear Repulsion Energy =   124.8559264589 hartrees
 There are       16 alpha and       16 beta electrons
 Applying Cartesian multipole field
    Component          Value
    ---------          -----
     (2,0,0)        1.00000E-11
     (0,2,0)        2.00000E-11
     (0,0,2)       -3.00000E-11
 Nucleus-field energy     =    -0.0000000009 hartrees
 Requested basis set is G3large
 There are 58 shells and 198 basis functions
 A cutoff of  1.0D-11 yielded   1628 shell pairs
 There are  19068 function pairs ( 24063 Cartesian)
Evaluating contribution to one-electron hamiltonian from nuclear
 Smallest overlap matrix eigenvalue = 4.52E-04
 Multipole matrices computed through 2nd order
 Guess MOs from SCF MO coefficient file
Reading MOs from coefficient file
Reading MOs from coefficient file
 Long-range K will be added via erf
 Coulomb attenuation parameter = 0.4 bohr**(-1)
 A restricted Kohn-Sham SCF calculation will be
 performed using Pulay DIIS extrapolation
 Exchange:  wPBE + LR-HF      Correlation:  PBE
 Using SG-1 standard quadrature grid
 SCF converges when DIIS error is below 1.0E-08
 Requested basis set is G3large
 There are 58 shells and 198 basis functions
 A cutoff of  1.0D-11 yielded   1628 shell pairs
 There are  19068 function pairs ( 24063 Cartesian)
 ---------------------------------------
  Cycle       Energy         DIIS Error
 ---------------------------------------
    1    -244.9252437973      6.58E-04
    2    -244.9260752743      8.98E-05
    3    -244.9261487655      7.43E-05
    4    -244.9261699920      3.58E-05
    5    -244.9261795581      1.28E-05
    6    -244.9261825557      8.98E-06
    7    -244.9261833214      3.55E-06
    8    -244.9261834777      1.40E-06
    9    -244.9261834983      5.03E-07
   10    -244.9261835954      1.91E-07
   11    -244.9261835936      5.77E-08
   12    -244.9261835951      1.40E-08
   13    -244.9261835955      3.22E-09 Convergence criterion met
 ---------------------------------------
 One-Electron    Energy =  -581.3011130515
 Total Coulomb   Energy =   241.8975310976
 Alpha Exchange  Energy =    -3.2451862109
 Beta  Exchange  Energy =    -3.2451862109
 DFT   Exchange  Energy =   -22.8155593826
 DFT Correlation Energy =    -1.0725962952
 Nuclear Repu.   Energy =   124.8559264580
 Nuclear Attr.   Energy =  -825.5409870673
 Kinetic         Energy =   244.2398740157
 SCF time:  CPU 150.62 s  wall 153.26 s
 Final Alpha MO Eigenvalues
            1           2           3           4           5           6
    1 -19.0437385 -19.0337134 -14.3805315 -10.1692120  -1.3777337  -1.2097977
            7           8           9          10          11          12
    1  -0.9220915  -0.7655391  -0.6970015  -0.6708653  -0.6556052  -0.5733837
           13          14          15          16          17          18
    1  -0.5527938  -0.5014916  -0.4535804  -0.4033941   0.0247178   0.0366113
           19          20          21
    1   0.0657601   0.0686347   0.0915880
 Analysis of SCF Wavefunction
 
 --------------------------------------------------------------
                    Orbital Energies (a.u.)
 --------------------------------------------------------------
 
 Alpha MOs
 -- Occupied --
-19.044 -19.034 -14.381 -10.169  -1.378  -1.210  -0.922  -0.766
 -0.697  -0.671  -0.656  -0.573  -0.553  -0.501  -0.454  -0.403
 -- Virtual --
  0.025   0.037   0.066   0.069   0.092   0.139   0.148   0.162
  0.172   0.178   0.189   0.222   0.235   0.248   0.250   0.258
  0.301   0.312   0.323   0.341   0.345   0.377   0.396   0.442
  0.462   0.499   0.542   0.562   0.631   0.635   0.642   0.679
  0.699   0.775   0.821   0.853   0.891   0.902   0.939   0.986
  1.001   1.083   1.095   1.112   1.143   1.154   1.176   1.194
  1.238   1.267   1.276   1.305   1.309   1.343   1.420   1.429
  1.480   1.517   1.555   1.610   1.629   1.662   1.719   1.789
  1.845   1.977   2.002   2.095   2.103   2.232   2.290   2.401
  2.500   2.533   2.557   2.656   2.818   3.006   3.105   3.149
  3.174   3.203   3.314   3.362   3.440   3.441   3.523   3.537
  3.635   3.671   3.728   3.734   3.784   3.795   3.908   3.949
  3.978   4.002   4.065   4.159   4.218   4.249   4.334   4.390
  4.400   4.416   4.526   4.612   4.729   4.751   4.798   4.888
  4.956   5.044   5.081   5.092   5.114   5.134   5.215   5.224
  5.281   5.377   5.491   5.517   5.619   5.668   5.696   5.801
  5.834   6.077   6.218   6.484   6.661   6.724   6.821   6.930
  7.037   7.109   7.220   7.233   7.302   7.348   7.445   7.719
  7.831   7.948  24.298  27.979  28.015  28.088  35.720  37.237
 37.646  38.141  40.365  40.392  40.446  40.527  40.753  40.910
 40.966  41.121  41.158  41.213  43.652  43.674  43.724  43.744
 43.777  43.792  43.814  43.918  43.943  43.994  45.605  45.648
 45.751  45.910  46.342  46.518  49.842  50.059
 --------------------------------------------------------------
 
          Ground-State Mulliken Net Atomic Charges

     Atom                 Charge (a.u.)
  ----------------------------------------
      1 C                    -0.194007
      2 O                     0.078522
      3 H                     0.105747
      4 H                     0.117128
      5 H                     0.116488
      6 N                    -0.148425
      7 O                    -0.075453
  ----------------------------------------
  Sum of atomic charges =     0.000000

 -----------------------------------------------------------------
                    Cartesian Multipole Moments
 -----------------------------------------------------------------
    Charge (ESU x 10^10)
                 0.0000
    Dipole Moment (Debye)
         X      -0.4081      Y      -2.1030      Z       1.0114
       Tot       2.3690
    Quadrupole Moments (Debye-Ang)
        XX     -22.4245     XY       0.5712     YY     -22.8098
        XZ       0.9538     YZ      -1.5068     ZZ     -24.4196
    Octapole Moments (Debye-Ang^2)
       XXX       1.5732    XXY      -0.1562    XYY      -0.2969
       YYY      -2.0778    XXZ      -0.5309    XYZ       0.8719
       YYZ       0.6226    XZZ      -1.9302    YZZ      -1.9010
       ZZZ       1.5658
    Hexadecapole Moments (Debye-Ang^3)
      XXXX     -41.5974   XXXY     -10.0171   XXYY     -25.2947
      XYYY      -9.9588   YYYY    -121.8517   XXXZ      19.6271
      XXYZ       7.5759   XYYZ       6.2407   YYYZ      23.6847
      XXZZ     -26.9667   XYZZ      -1.7950   YYZZ     -38.0816
      XZZZ      18.5452   YZZZ      20.8331   ZZZZ    -120.4890
 -----------------------------------------------------------------
 Calculating analytic gradient of the SCF energy
 Gradient of AOints
            1           2           3           4           5           6
    1   1.1846909   4.2158558   1.4177118  -3.5221974   2.3774475   0.3599882
    2   5.2287358  -3.7827353   1.5411094   2.2173168   2.2129658 -14.5030988
    3  -2.9322422 -10.1231370  -3.4047321   0.1345823   2.5905860  -1.7881650
            7
    1  -6.0334968
    2   7.0857063
    3  15.5231079
 Gradient of XC Energy
            1           2           3           4           5           6
    1  -0.0018665  -0.0848362  -0.0647759   0.1612575  -0.0997719  -0.0459025
    2  -0.0069319   0.0742146  -0.0499732  -0.0680793  -0.0678807   0.4084221
    3   0.0056416   0.2008261   0.1556306  -0.0194526  -0.1280451   0.1416885
            7
    1   0.1358955
    2  -0.2897716
    3  -0.3562891
 Gradient of SCF Energy
            1           2           3           4           5           6
    1   0.0010482  -0.0016787  -0.0000419   0.0000569  -0.0001134   0.0016603
    2   0.0004634  -0.0004670  -0.0000654  -0.0002650   0.0000830   0.0002981
    3   0.0000812   0.0006430   0.0000413   0.0000731  -0.0002434  -0.0006447
            7
    1  -0.0009313
    2  -0.0000470
    3   0.0000494
 Max gradient component =       1.679E-03
 RMS gradient           =       6.571E-04
 Gradient time:  CPU 73.26 s  wall 73.43 s
 Geometry Optimization Parameters
   NAtoms,    NIC,     NZ,  NCons,   NDum,   NFix, NCnnct, MaxDiis
        7      32       0       0       0       0       0       0

 Cartesian Hessian Update
 Hessian Updated using BFGS Update


** GEOMETRY OPTIMIZATION IN DELOCALIZED INTERNAL COORDINATES **
   Searching for a Minimum

   Optimization Cycle:   5

                       Coordinates (Angstroms)
     ATOM              X           Y           Z
    1  C          -0.296454   -1.098385    0.725411
    2  O          -0.307556    0.325698    0.749141
    3  H          -0.697283   -1.393995    1.690101
    4  H           0.718289   -1.475449    0.598922
    5  H          -0.922367   -1.476103   -0.083015
    6  N           0.162742    0.933639   -0.371073
    7  O           0.488316    0.196305   -1.225967
   Point Group: c1    Number of degrees of freedom:  15


   Energy is   -244.926183595

 Hessian Updated using BFGS Update

 15 Hessian modes will be used to form the next step
  Hessian Eigenvalues:
     0.010435    0.034737    0.100593    0.106697    0.152628    0.160190
     0.163160    0.247263    0.303334    0.343584    0.344593    0.348899
     0.410584    0.605866    0.983988

 Minimum Search - Taking Simple RFO Step
 Searching for Lamda that Minimizes Along All modes
 Value Taken    Lamda =  -0.00007325
 Step Taken.  Stepsize is  0.042624

                             Maximum     Tolerance    Cnvgd?
         Gradient           0.001426      0.000300      NO
         Displacement       0.033439      0.001200      NO
         Energy change      0.000010      0.000001      NO


 New Cartesian Coordinates Obtained by Inverse Iteration

 Displacement from previous Coordinates is:  0.069235
 Writing REM_CC_EA            7
 ----------------------------------------------------
       Standard Nuclear Orientation (Angstroms)
    I     Atom         X            Y            Z
 ----------------------------------------------------
    1      C      -0.298412    -1.097351     0.723527
    2      O      -0.311687     0.326334     0.749098
    3      H      -0.687449    -1.393154     1.692843
    4      H       0.715908    -1.471162     0.584531
    5      H      -0.932887    -1.475024    -0.078199
    6      N       0.149557     0.930427    -0.373828
    7      O       0.510658     0.191640    -1.214452
 ----------------------------------------------------
 Nuclear Repulsion Energy =   124.9527560522 hartrees
 There are       16 alpha and       16 beta electrons
 Applying Cartesian multipole field
    Component          Value
    ---------          -----
     (2,0,0)        1.00000E-11
     (0,2,0)        2.00000E-11
     (0,0,2)       -3.00000E-11
 Nucleus-field energy     =    -0.0000000009 hartrees
 Requested basis set is G3large
 There are 58 shells and 198 basis functions
 A cutoff of  1.0D-11 yielded   1629 shell pairs
 There are  19093 function pairs ( 24099 Cartesian)
Evaluating contribution to one-electron hamiltonian from nuclear
 Smallest overlap matrix eigenvalue = 4.49E-04
 Multipole matrices computed through 2nd order
 Guess MOs from SCF MO coefficient file
Reading MOs from coefficient file
Reading MOs from coefficient file
 Long-range K will be added via erf
 Coulomb attenuation parameter = 0.4 bohr**(-1)
 A restricted Kohn-Sham SCF calculation will be
 performed using Pulay DIIS extrapolation
 Exchange:  wPBE + LR-HF      Correlation:  PBE
 Using SG-1 standard quadrature grid
 SCF converges when DIIS error is below 1.0E-08
 Requested basis set is G3large
 There are 58 shells and 198 basis functions
 A cutoff of  1.0D-11 yielded   1629 shell pairs
 There are  19093 function pairs ( 24099 Cartesian)
 ---------------------------------------
  Cycle       Energy         DIIS Error
 ---------------------------------------
    1    -244.9250858152      7.98E-04
    2    -244.9260380442      1.07E-04
    3    -244.9261473192      8.58E-05
    4    -244.9261757194      4.35E-05
    5    -244.9261893420      1.55E-05
    6    -244.9261935188      1.02E-05
    7    -244.9261945784      4.26E-06
    8    -244.9261950491      1.75E-06
    9    -244.9261951451      6.33E-07
   10    -244.9261951763      2.47E-07
   11    -244.9261951474      6.76E-08
   12    -244.9261951739      1.67E-08
   13    -244.9261951740      3.83E-09 Convergence criterion met
 ---------------------------------------
 One-Electron    Energy =  -581.4901917591
 Total Coulomb   Energy =   241.9908836876
 Alpha Exchange  Energy =    -3.2452642430
 Beta  Exchange  Energy =    -3.2452642430
 DFT   Exchange  Energy =   -22.8163464371
 DFT Correlation Energy =    -1.0727682305
 Nuclear Repu.   Energy =   124.9527560513
 Nuclear Attr.   Energy =  -825.7327350669
 Kinetic         Energy =   244.2425433078
 SCF time:  CPU 150.89 s  wall 154.13 s
 Final Alpha MO Eigenvalues
            1           2           3           4           5           6
    1 -19.0446502 -19.0331606 -14.3801904 -10.1692935  -1.3776452  -1.2104927
            7           8           9          10          11          12
    1  -0.9227366  -0.7654453  -0.6970499  -0.6712755  -0.6559390  -0.5730353
           13          14          15          16          17          18
    1  -0.5522678  -0.5020162  -0.4541343  -0.4031554   0.0249135   0.0365897
           19          20          21
    1   0.0656946   0.0686321   0.0915014
 Analysis of SCF Wavefunction
 
 --------------------------------------------------------------
                    Orbital Energies (a.u.)
 --------------------------------------------------------------
 
 Alpha MOs
 -- Occupied --
-19.045 -19.033 -14.380 -10.169  -1.378  -1.210  -0.923  -0.765
 -0.697  -0.671  -0.656  -0.573  -0.552  -0.502  -0.454  -0.403
 -- Virtual --
  0.025   0.037   0.066   0.069   0.092   0.139   0.148   0.162
  0.172   0.178   0.189   0.222   0.235   0.248   0.251   0.258
  0.301   0.312   0.323   0.340   0.345   0.377   0.396   0.442
  0.462   0.498   0.541   0.562   0.630   0.635   0.642   0.678
  0.699   0.775   0.821   0.853   0.891   0.902   0.939   0.987
  1.001   1.082   1.094   1.112   1.142   1.154   1.176   1.194
  1.239   1.267   1.277   1.304   1.308   1.343   1.421   1.430
  1.480   1.517   1.555   1.610   1.629   1.664   1.719   1.791
  1.847   1.977   2.001   2.096   2.104   2.232   2.291   2.402
  2.501   2.534   2.557   2.657   2.819   3.006   3.105   3.148
  3.174   3.203   3.316   3.362   3.440   3.442   3.523   3.537
  3.635   3.670   3.728   3.735   3.785   3.795   3.908   3.952
  3.978   4.001   4.066   4.160   4.217   4.249   4.335   4.391
  4.400   4.415   4.528   4.610   4.731   4.752   4.798   4.888
  4.957   5.044   5.082   5.092   5.115   5.134   5.217   5.224
  5.281   5.379   5.490   5.517   5.619   5.670   5.697   5.803
  5.834   6.082   6.217   6.486   6.657   6.725   6.822   6.931
  7.038   7.109   7.221   7.233   7.301   7.349   7.450   7.719
  7.831   7.947  24.298  27.979  28.015  28.089  35.721  37.237
 37.647  38.143  40.366  40.391  40.446  40.529  40.754  40.910
 40.967  41.120  41.159  41.213  43.652  43.674  43.724  43.745
 43.778  43.791  43.813  43.918  43.943  43.994  45.605  45.648
 45.751  45.911  46.343  46.520  49.843  50.059
 --------------------------------------------------------------
 
          Ground-State Mulliken Net Atomic Charges

     Atom                 Charge (a.u.)
  ----------------------------------------
      1 C                    -0.194413
      2 O                     0.081344
      3 H                     0.105656
      4 H                     0.116509
      5 H                     0.117615
      6 N                    -0.149828
      7 O                    -0.076885
  ----------------------------------------
  Sum of atomic charges =     0.000000

 -----------------------------------------------------------------
                    Cartesian Multipole Moments
 -----------------------------------------------------------------
    Charge (ESU x 10^10)
                 0.0000
    Dipole Moment (Debye)
         X      -0.4236      Y      -2.1043      Z       1.0250
       Tot       2.3786
    Quadrupole Moments (Debye-Ang)
        XX     -22.4546     XY       0.6282     YY     -22.8227
        XZ       0.9924     YZ      -1.4666     ZZ     -24.3927
    Octapole Moments (Debye-Ang^2)
       XXX       1.5054    XXY      -0.1268    XYY      -0.2469
       YYY      -1.9950    XXZ      -0.5476    XYZ       0.8629
       YYZ       0.6212    XZZ      -1.9519    YZZ      -1.8664
       ZZZ       1.4904
    Hexadecapole Moments (Debye-Ang^3)
      XXXX     -42.2967   XXXY      -9.8079   XXYY     -25.3223
      XYYY      -9.6086   YYYY    -121.4885   XXXZ      20.0172
      XXYZ       7.5772   XYYZ       6.3245   YYYZ      23.6302
      XXZZ     -27.0273   XYZZ      -1.7479   YYZZ     -37.9065
      XZZZ      18.9355   YZZZ      20.6485   ZZZZ    -119.3648
 -----------------------------------------------------------------
 Calculating analytic gradient of the SCF energy
 Gradient of AOints
            1           2           3           4           5           6
    1   1.2024901   4.2199426   1.3724028  -3.5199296   2.4177637   0.8266515
    2   5.2481681  -3.8124270   1.5375235   2.2047824   2.2153137 -14.4769827
    3  -2.9337383 -10.1819478  -3.4247838   0.1870794   2.5720025  -1.5408433
            7
    1  -6.5193210
    2   7.0836221
    3  15.3222314
 Gradient of XC Energy
            1           2           3           4           5           6
    1  -0.0022281  -0.0838018  -0.0627324   0.1611146  -0.1013121  -0.0611240
    2  -0.0075968   0.0744829  -0.0498384  -0.0673383  -0.0680394   0.4074656
    3   0.0055614   0.2035652   0.1564683  -0.0216217  -0.1270557   0.1328087
            7
    1   0.1500838
    2  -0.2891355
    3  -0.3497262
 Gradient of SCF Energy
            1           2           3           4           5           6
    1  -0.0000592   0.0000478   0.0000111   0.0002855  -0.0001371  -0.0007529
    2   0.0008215   0.0002473   0.0001927   0.0000699  -0.0000754  -0.0006897
    3  -0.0010678   0.0014365   0.0000439  -0.0001234  -0.0001320   0.0003227
            7
    1   0.0006048
    2  -0.0005663
    3  -0.0004799
 Max gradient component =       1.437E-03
 RMS gradient           =       5.430E-04
 Gradient time:  CPU 64.02 s  wall 64.43 s
 Geometry Optimization Parameters
   NAtoms,    NIC,     NZ,  NCons,   NDum,   NFix, NCnnct, MaxDiis
        7      32       0       0       0       0       0       0

 Cartesian Hessian Update
 Hessian Updated using BFGS Update


** GEOMETRY OPTIMIZATION IN DELOCALIZED INTERNAL COORDINATES **
   Searching for a Minimum

   Optimization Cycle:   6

                       Coordinates (Angstroms)
     ATOM              X           Y           Z
    1  C          -0.298412   -1.097351    0.723527
    2  O          -0.311687    0.326334    0.749098
    3  H          -0.687449   -1.393154    1.692843
    4  H           0.715908   -1.471162    0.584531
    5  H          -0.932887   -1.475024   -0.078199
    6  N           0.149557    0.930427   -0.373828
    7  O           0.510658    0.191640   -1.214452
   Point Group: c1    Number of degrees of freedom:  15


   Energy is   -244.926195174

 Hessian Updated using BFGS Update

 15 Hessian modes will be used to form the next step
  Hessian Eigenvalues:
     0.010451    0.052333    0.100620    0.106957    0.156896    0.160220
     0.165473    0.261365    0.305362    0.343601    0.343812    0.348932
     0.417106    0.601759    0.985390

 Minimum Search - Taking Simple RFO Step
 Searching for Lamda that Minimizes Along All modes
 Value Taken    Lamda =  -0.00004450
 Step Taken.  Stepsize is  0.014641

                             Maximum     Tolerance    Cnvgd?
         Gradient           0.002795      0.000300      NO
         Displacement       0.008835      0.001200      NO
         Energy change     -0.000012      0.000001      NO


 New Cartesian Coordinates Obtained by Inverse Iteration

 Displacement from previous Coordinates is:  0.037198
 Writing REM_CC_EA            7
 ----------------------------------------------------
       Standard Nuclear Orientation (Angstroms)
    I     Atom         X            Y            Z
 ----------------------------------------------------
    1      C      -0.298496    -1.100186     0.725479
    2      O      -0.308594     0.324368     0.744883
    3      H      -0.690867    -1.392766     1.694366
    4      H       0.714775    -1.477390     0.591208
    5      H      -0.931209    -1.480048    -0.076085
    6      N       0.152991     0.935557    -0.374785
    7      O       0.507089     0.202176    -1.221545
 ----------------------------------------------------
 Nuclear Repulsion Energy =   124.8309507712 hartrees
 There are       16 alpha and       16 beta electrons
 Applying Cartesian multipole field
    Component          Value
    ---------          -----
     (2,0,0)        1.00000E-11
     (0,2,0)        2.00000E-11
     (0,0,2)       -3.00000E-11
 Nucleus-field energy     =    -0.0000000009 hartrees
 Requested basis set is G3large
 There are 58 shells and 198 basis functions
 A cutoff of  1.0D-11 yielded   1628 shell pairs
 There are  19068 function pairs ( 24063 Cartesian)
Evaluating contribution to one-electron hamiltonian from nuclear
 Smallest overlap matrix eigenvalue = 4.55E-04
 Multipole matrices computed through 2nd order
 Guess MOs from SCF MO coefficient file
Reading MOs from coefficient file
Reading MOs from coefficient file
 Long-range K will be added via erf
 Coulomb attenuation parameter = 0.4 bohr**(-1)
 A restricted Kohn-Sham SCF calculation will be
 performed using Pulay DIIS extrapolation
 Exchange:  wPBE + LR-HF      Correlation:  PBE
 Using SG-1 standard quadrature grid
 SCF converges when DIIS error is below 1.0E-08
 Requested basis set is G3large
 There are 58 shells and 198 basis functions
 A cutoff of  1.0D-11 yielded   1628 shell pairs
 There are  19068 function pairs ( 24063 Cartesian)
 ---------------------------------------
  Cycle       Energy         DIIS Error
 ---------------------------------------
    1    -244.9261199896      2.64E-04
    2    -244.9261969664      3.95E-05
    3    -244.9262040720      3.91E-05
    4    -244.9262090778      9.83E-06
    5    -244.9262099740      4.60E-06
    6    -244.9262100852      3.41E-06
    7    -244.9262102404      9.66E-07
    8    -244.9262103440      4.41E-07
    9    -244.9262102407      1.62E-07
   10    -244.9262103049      6.34E-08
   11    -244.9262102860      2.09E-08
   12    -244.9262103083      4.87E-09 Convergence criterion met
 ---------------------------------------
 One-Electron    Energy =  -581.2496423233
 Total Coulomb   Energy =   241.8720560254
 Alpha Exchange  Energy =    -3.2452677903
 Beta  Exchange  Energy =    -3.2452677903
 DFT   Exchange  Energy =   -22.8164457676
 DFT Correlation Energy =    -1.0725934324
 Nuclear Repu.   Energy =   124.8309507703
 Nuclear Attr.   Energy =  -825.4925360120
 Kinetic         Energy =   244.2428936887
 SCF time:  CPU 136.54 s  wall 138.84 s
 Final Alpha MO Eigenvalues
            1           2           3           4           5           6
    1 -19.0438265 -19.0332324 -14.3803602 -10.1694112  -1.3778066  -1.2100389
            7           8           9          10          11          12
    1  -0.9227607  -0.7655228  -0.6966924  -0.6709367  -0.6557459  -0.5736091
           13          14          15          16          17          18
    1  -0.5533126  -0.5008937  -0.4536822  -0.4031447   0.0251547   0.0365359
           19          20          21
    1   0.0657357   0.0686027   0.0915658
 Analysis of SCF Wavefunction
 
 --------------------------------------------------------------
                    Orbital Energies (a.u.)
 --------------------------------------------------------------
 
 Alpha MOs
 -- Occupied --
-19.044 -19.033 -14.380 -10.169  -1.378  -1.210  -0.923  -0.766
 -0.697  -0.671  -0.656  -0.574  -0.553  -0.501  -0.454  -0.403
 -- Virtual --
  0.025   0.037   0.066   0.069   0.092   0.139   0.148   0.162
  0.172   0.178   0.189   0.222   0.235   0.248   0.250   0.258
  0.301   0.312   0.324   0.341   0.345   0.377   0.396   0.442
  0.462   0.499   0.542   0.562   0.631   0.635   0.642   0.679
  0.699   0.774   0.821   0.853   0.891   0.901   0.940   0.985
  1.001   1.083   1.094   1.112   1.144   1.154   1.177   1.194
  1.238   1.267   1.275   1.305   1.309   1.343   1.420   1.429
  1.480   1.517   1.556   1.610   1.629   1.661   1.719   1.787
  1.844   1.976   2.002   2.098   2.100   2.233   2.290   2.400
  2.500   2.533   2.558   2.656   2.815   3.006   3.105   3.149
  3.173   3.203   3.312   3.362   3.440   3.441   3.523   3.537
  3.635   3.671   3.728   3.735   3.785   3.796   3.908   3.947
  3.978   4.003   4.066   4.160   4.218   4.249   4.338   4.390
  4.400   4.417   4.526   4.613   4.728   4.752   4.796   4.887
  4.954   5.043   5.081   5.092   5.113   5.134   5.216   5.222
  5.280   5.378   5.490   5.517   5.620   5.669   5.697   5.799
  5.834   6.084   6.221   6.483   6.662   6.727   6.821   6.930
  7.039   7.107   7.220   7.233   7.303   7.349   7.446   7.719
  7.833   7.949  24.298  27.980  28.015  28.086  35.723  37.237
 37.647  38.143  40.366  40.391  40.446  40.529  40.754  40.910
 40.966  41.120  41.158  41.213  43.651  43.674  43.724  43.745
 43.778  43.791  43.815  43.919  43.944  43.995  45.606  45.649
 45.751  45.908  46.344  46.521  49.843  50.059
 --------------------------------------------------------------
 
          Ground-State Mulliken Net Atomic Charges

     Atom                 Charge (a.u.)
  ----------------------------------------
      1 C                    -0.193236
      2 O                     0.079952
      3 H                     0.105846
      4 H                     0.116494
      5 H                     0.117126
      6 N                    -0.148887
      7 O                    -0.077293
  ----------------------------------------
  Sum of atomic charges =     0.000000

 -----------------------------------------------------------------
                    Cartesian Multipole Moments
 -----------------------------------------------------------------
    Charge (ESU x 10^10)
                 0.0000
    Dipole Moment (Debye)
         X      -0.4207      Y      -2.1133      Z       1.0233
       Tot       2.3855
    Quadrupole Moments (Debye-Ang)
        XX     -22.4464     XY       0.6197     YY     -22.8034
        XZ       0.9813     YZ      -1.4866     ZZ     -24.3954
    Octapole Moments (Debye-Ang^2)
       XXX       1.4724    XXY      -0.1794    XYY      -0.2782
       YYY      -2.1836    XXZ      -0.4993    XYZ       0.8738
       YYZ       0.6740    XZZ      -1.9793    YZZ      -1.9402
       ZZZ       1.6615
    Hexadecapole Moments (Debye-Ang^3)
      XXXX     -42.1516   XXXY      -9.9901   XXYY     -25.4060
      XYYY      -9.8132   YYYY    -122.1799   XXXZ      19.9707
      XXYZ       7.6916   XYYZ       6.3246   YYYZ      23.9571
      XXZZ     -27.0600   XYZZ      -1.8171   YYZZ     -38.0886
      XZZZ      18.8935   YZZZ      21.0577   ZZZZ    -119.9013
 -----------------------------------------------------------------
 Calculating analytic gradient of the SCF energy
 Gradient of AOints
            1           2           3           4           5           6
    1   1.1975805   4.1877845   1.3853525  -3.5115137   2.4079895   0.7506069
    2   5.2250997  -3.7255115   1.5337428   2.2151275   2.2208898 -14.4975839
    3  -2.9286550 -10.1101770  -3.4230967   0.1644845   2.5640330  -1.6641549
            7
    1  -6.4178002
    2   7.0282356
    3  15.3975662
 Gradient of XC Energy
            1           2           3           4           5           6
    1  -0.0022270  -0.0831958  -0.0633401   0.1610470  -0.1010831  -0.0586940
    2  -0.0066916   0.0725461  -0.0495984  -0.0679788  -0.0683919   0.4083027
    3   0.0056984   0.2013034   0.1564674  -0.0207492  -0.1270151   0.1371746
            7
    1   0.1474931
    2  -0.2881881
    3  -0.3528795
 Gradient of SCF Energy
            1           2           3           4           5           6
    1  -0.0002558   0.0003000   0.0000258  -0.0001019   0.0000474   0.0001848
    2   0.0000289  -0.0005022  -0.0001189   0.0000023  -0.0000247   0.0000126
    3   0.0002879  -0.0002376  -0.0000271   0.0000137   0.0001189  -0.0008713
            7
    1  -0.0002004
    2   0.0006020
    3   0.0007156
 Max gradient component =       8.713E-04
 RMS gradient           =       3.309E-04
 Gradient time:  CPU 71.54 s  wall 72.10 s
 Geometry Optimization Parameters
   NAtoms,    NIC,     NZ,  NCons,   NDum,   NFix, NCnnct, MaxDiis
        7      32       0       0       0       0       0       0

 Cartesian Hessian Update
 Hessian Updated using BFGS Update


** GEOMETRY OPTIMIZATION IN DELOCALIZED INTERNAL COORDINATES **
   Searching for a Minimum

   Optimization Cycle:   7

                       Coordinates (Angstroms)
     ATOM              X           Y           Z
    1  C          -0.298496   -1.100186    0.725479
    2  O          -0.308594    0.324368    0.744883
    3  H          -0.690867   -1.392766    1.694366
    4  H           0.714775   -1.477390    0.591208
    5  H          -0.931209   -1.480048   -0.076085
    6  N           0.152991    0.935557   -0.374785
    7  O           0.507089    0.202176   -1.221545
   Point Group: c1    Number of degrees of freedom:  15


   Energy is   -244.926210308

 Hessian Updated using BFGS Update

 15 Hessian modes will be used to form the next step
  Hessian Eigenvalues:
     0.010459    0.046889    0.100644    0.106884    0.158806    0.160433
     0.164715    0.282603    0.343243    0.343596    0.348753    0.364684
     0.454512    0.611710    1.005249

 Minimum Search - Taking Simple RFO Step
 Searching for Lamda that Minimizes Along All modes
 Value Taken    Lamda =  -0.00000654
 Step Taken.  Stepsize is  0.006269

                             Maximum     Tolerance    Cnvgd?
         Gradient           0.001109      0.000300      NO
         Displacement       0.003251      0.001200      NO
         Energy change     -0.000015      0.000001      NO


 New Cartesian Coordinates Obtained by Inverse Iteration

 Displacement from previous Coordinates is:  0.012408
 Writing REM_CC_EA            7
 ----------------------------------------------------
       Standard Nuclear Orientation (Angstroms)
    I     Atom         X            Y            Z
 ----------------------------------------------------
    1      C      -0.298081    -1.099455     0.725035
    2      O      -0.309038     0.325156     0.746315
    3      H      -0.691444    -1.392817     1.693311
    4      H       0.715740    -1.475738     0.591255
    5      H      -0.929811    -1.478349    -0.077944
    6      N       0.154214     0.934082    -0.373375
    7      O       0.504109     0.198833    -1.221078
 ----------------------------------------------------
 Nuclear Repulsion Energy =   124.8618541704 hartrees
 There are       16 alpha and       16 beta electrons
 Applying Cartesian multipole field
    Component          Value
    ---------          -----
     (2,0,0)        1.00000E-11
     (0,2,0)        2.00000E-11
     (0,0,2)       -3.00000E-11
 Nucleus-field energy     =    -0.0000000009 hartrees
 Requested basis set is G3large
 There are 58 shells and 198 basis functions
 A cutoff of  1.0D-11 yielded   1628 shell pairs
 There are  19068 function pairs ( 24063 Cartesian)
Evaluating contribution to one-electron hamiltonian from nuclear
 Smallest overlap matrix eigenvalue = 4.53E-04
 Multipole matrices computed through 2nd order
 Guess MOs from SCF MO coefficient file
Reading MOs from coefficient file
Reading MOs from coefficient file
 Long-range K will be added via erf
 Coulomb attenuation parameter = 0.4 bohr**(-1)
 A restricted Kohn-Sham SCF calculation will be
 performed using Pulay DIIS extrapolation
 Exchange:  wPBE + LR-HF      Correlation:  PBE
 Using SG-1 standard quadrature grid
 SCF converges when DIIS error is below 1.0E-08
 Requested basis set is G3large
 There are 58 shells and 198 basis functions
 A cutoff of  1.0D-11 yielded   1628 shell pairs
 There are  19068 function pairs ( 24063 Cartesian)
 ---------------------------------------
  Cycle       Energy         DIIS Error
 ---------------------------------------
    1    -244.9261102364      1.09E-04
    2    -244.9262103929      1.68E-05
    3    -244.9262118653      1.67E-05
    4    -244.9262128290      5.04E-06
    5    -244.9262130154      2.24E-06
    6    -244.9262131011      1.68E-06
    7    -244.9262131390      5.04E-07
    8    -244.9262132095      1.99E-07
    9    -244.9262131932      7.06E-08
   10    -244.9262131652      2.36E-08
   11    -244.9262131654      8.74E-09 Convergence criterion met
 ---------------------------------------
 One-Electron    Energy =  -581.3111447061
 Total Coulomb   Energy =   241.9024032512
 Alpha Exchange  Energy =    -3.2452534020
 Beta  Exchange  Energy =    -3.2452534020
 DFT   Exchange  Energy =   -22.8161880451
 DFT Correlation Energy =    -1.0726310309
 Nuclear Repu.   Energy =   124.8618541695
 Nuclear Attr.   Energy =  -825.5527264537
 Kinetic         Energy =   244.2415817476
 SCF time:  CPU 126.48 s  wall 129.02 s
 Final Alpha MO Eigenvalues
            1           2           3           4           5           6
    1 -19.0441660 -19.0331273 -14.3803017 -10.1694368  -1.3776308  -1.2101302
            7           8           9          10          11          12
    1  -0.9227987  -0.7655061  -0.6967288  -0.6709983  -0.6557844  -0.5733738
           13          14          15          16          17          18
    1  -0.5529609  -0.5012430  -0.4538725  -0.4031475   0.0250627   0.0365438
           19          20          21
    1   0.0657154   0.0686080   0.0915311
 Analysis of SCF Wavefunction
 
 --------------------------------------------------------------
                    Orbital Energies (a.u.)
 --------------------------------------------------------------
 
 Alpha MOs
 -- Occupied --
-19.044 -19.033 -14.380 -10.169  -1.378  -1.210  -0.923  -0.766
 -0.697  -0.671  -0.656  -0.573  -0.553  -0.501  -0.454  -0.403
 -- Virtual --
  0.025   0.037   0.066   0.069   0.092   0.139   0.148   0.162
  0.172   0.178   0.189   0.222   0.235   0.248   0.251   0.258
  0.301   0.312   0.323   0.340   0.345   0.377   0.396   0.442
  0.462   0.498   0.542   0.562   0.631   0.635   0.642   0.679
  0.699   0.775   0.821   0.853   0.891   0.901   0.939   0.986
  1.001   1.083   1.094   1.112   1.144   1.154   1.177   1.194
  1.238   1.267   1.276   1.304   1.309   1.343   1.420   1.430
  1.480   1.517   1.556   1.610   1.629   1.662   1.719   1.788
  1.845   1.976   2.002   2.098   2.101   2.233   2.290   2.401
  2.501   2.533   2.558   2.656   2.817   3.006   3.104   3.148
  3.173   3.203   3.314   3.362   3.440   3.441   3.523   3.537
  3.635   3.670   3.728   3.735   3.785   3.796   3.908   3.949
  3.978   4.002   4.066   4.160   4.217   4.249   4.337   4.390
  4.400   4.416   4.527   4.611   4.729   4.752   4.797   4.887
[...]
    1  -0.1471862  -0.0483030  -0.1236478   0.0200509  -0.0212098   0.0103661
    2  -0.0528072  -0.0762809  -0.0658586  -0.0208906  -0.0397205   0.0506922
    3  -0.1218046  -0.0610525  -0.2039457   0.0104445   0.0513267  -0.0012894
    4   0.0030415  -0.0239040   0.0045053  -0.0463856  -0.0137336   0.0192896
    5  -0.0027699  -0.0294887  -0.0052077  -0.0181442  -0.2053094   0.0434624
    6   0.0060941  -0.0248631   0.0048192   0.0193909   0.0330148  -0.0844669
    7   0.0085359   0.0063948  -0.0171966   0.0003725   0.0010667   0.0006621
    8   0.0054594   0.0043824  -0.0084907   0.0022985  -0.0098005  -0.0055258
    9   0.0095257   0.0055397  -0.0162146   0.0005706  -0.0025877  -0.0007786
   10  -0.0154683   0.0052791   0.0039605  -0.0026854  -0.0010345   0.0026836
   11  -0.0095956   0.0057247   0.0021721  -0.0000139   0.0008837  -0.0090412
   12  -0.0220510   0.0081760   0.0031484  -0.0003557   0.0020956   0.0033408
   13   0.1500077   0.0580032   0.1319522   0.0013762  -0.0007263  -0.0045103
   14   0.0580032   0.0925769   0.0749708   0.0064248   0.0008247  -0.0063322
   15   0.1319522   0.0749708   0.2128717  -0.0015732   0.0022283  -0.0007578
   16   0.0013762   0.0064248  -0.0015732   0.1148645  -0.0990391  -0.1868068
   17  -0.0007263   0.0008247   0.0022283  -0.0990391   0.7292708   0.2393165
   18  -0.0045103  -0.0063322  -0.0007578  -0.1868068   0.2393165   0.4883309
   19  -0.0003050  -0.0038944   0.0020035  -0.0875420   0.1346778   0.1583368
   20   0.0024342   0.0022585   0.0001841   0.1293722  -0.4761471  -0.3125761
   21   0.0007919   0.0035627   0.0000743   0.1582482  -0.3253823  -0.4044129
           19          20          21
    1  -0.0131501  -0.0009777  -0.0066120
    2   0.0069125  -0.0032661  -0.0167346
    3  -0.0066898   0.0026017   0.0002165
    4  -0.0068188   0.0143759   0.0694932
    5   0.0037848   0.0747051  -0.0089192
    6   0.0695428  -0.0345513  -0.1461892
    7   0.0005634  -0.0010979  -0.0001046
    8   0.0004605   0.0056136  -0.0010772
    9  -0.0001047   0.0025453   0.0007800
   10   0.0012378  -0.0019233   0.0004228
   11   0.0002335   0.0021591   0.0053465
   12  -0.0008095  -0.0014234  -0.0017308
   13  -0.0003050   0.0024342   0.0007919
   14  -0.0038944   0.0022585   0.0035627
   15   0.0020035   0.0001841   0.0000743
   16  -0.0875420   0.1293722   0.1582482
   17   0.1346778  -0.4761471  -0.3253823
   18   0.1583368  -0.3125761  -0.4044129
   19   0.1060044  -0.1421828  -0.2222493
   20  -0.1421828   0.3946808   0.3432092
   21  -0.2222493   0.3432092   0.5512834
 Writing REM_CC_EA            7
 ----------------------------------------------------
       Standard Nuclear Orientation (Angstroms)
    I     Atom         X            Y            Z
 ----------------------------------------------------
    1      C      -0.298081    -1.099455     0.725035
    2      O      -0.309038     0.325156     0.746315
    3      H      -0.691444    -1.392817     1.693311
    4      H       0.715740    -1.475738     0.591255
    5      H      -0.929811    -1.478349    -0.077944
    6      N       0.154214     0.934082    -0.373375
    7      O       0.504109     0.198833    -1.221078
 ----------------------------------------------------
 Nuclear Repulsion Energy =   124.8618541704 hartrees
 There are       16 alpha and       16 beta electrons
 old dipole drv.
            1           2           3           4           5           6
    1   0.2477325   0.0391692   0.0230457  -0.3347761  -0.2290231   0.3439114
    2   0.0094922   0.5011503  -0.0231913  -0.1077183  -0.7095364   0.2609153
    3   0.0240857  -0.0941477   0.2019035   0.3448703   0.5536738  -1.0251186
            7           8           9          10          11          12
    1   0.0870598  -0.0121695   0.0482825  -0.0562253  -0.0259637   0.0273146
    2  -0.0202021   0.0520733   0.0498373   0.0560954   0.0023437  -0.0145815
    3   0.0480090   0.0290794  -0.0123943  -0.0007873   0.0419300   0.0813175
           13          14          15          16          17          18
    1   0.0240339  -0.0115097  -0.0828485   0.2629861  -0.0125614  -0.6939851
    2  -0.0303353   0.0018810  -0.0497805   0.1629201   0.3292061  -0.3927268
    3  -0.0554988   0.0479168   0.0001949  -0.6945731   0.0319739   1.6555944
           19          20          21
    1  -0.2306941   0.2519651   0.3341180
    2  -0.0701472  -0.1772052   0.1694958
    3   0.3338892  -0.6103179  -0.9016058
 New transposed dipole drv.
            1           2           3
    1   0.2477325   0.0094922   0.0240857
    2   0.0391692   0.5011503  -0.0941477
    3   0.0230457  -0.0231913   0.2019035
    4  -0.3347761  -0.1077183   0.3448703
    5  -0.2290231  -0.7095364   0.5536738
    6   0.3439114   0.2609153  -1.0251186
    7   0.0870598  -0.0202021   0.0480090
    8  -0.0121695   0.0520733   0.0290794
    9   0.0482825   0.0498373  -0.0123943
   10  -0.0562253   0.0560954  -0.0007873
   11  -0.0259637   0.0023437   0.0419300
   12   0.0273146  -0.0145815   0.0813175
   13   0.0240339  -0.0303353  -0.0554988
   14  -0.0115097   0.0018810   0.0479168
   15  -0.0828485  -0.0497805   0.0001949
   16   0.2629861   0.1629201  -0.6945731
   17  -0.0125614   0.3292061   0.0319739
   18  -0.6939851  -0.3927268   1.6555944
   19  -0.2306941  -0.0701472   0.3338892
   20   0.2519651  -0.1772052  -0.6103179
   21   0.3341180   0.1694958  -0.9016058
FINAL TENSOR RESULT:
Order 2, Length 21
Order 1, Length 21
   0.6062775   0.0025048  -0.0157847  -0.0779751   0.0147593   0.0083787  -0.0899025  -0.0235104   0.0949850  -0.2981205   0.0767350   0.0323229  -0.1471862  -0.0483030  -0.1236478   0.0200509  -0.0212098   0.0103661  -0.0131501  -0.0009777  -0.0066120
Order 1, Length 21
   0.0025048   0.4625622  -0.0055035   0.0092133  -0.2068568  -0.0218727  -0.0281986  -0.0602846   0.0694497   0.0832644  -0.0761485  -0.0101788  -0.0528072  -0.0762809  -0.0658586  -0.0208906  -0.0397205   0.0506922   0.0069125  -0.0032661  -0.0167346
Order 1, Length 21
  -0.0157847  -0.0055035   0.6381672   0.0084200  -0.0351610  -0.0943135   0.0949394   0.0578233  -0.2854248   0.0304713  -0.0100351  -0.0534062  -0.1218046  -0.0610525  -0.2039457   0.0104445   0.0513267  -0.0012894  -0.0066898   0.0026017   0.0002165
Order 1, Length 21
  -0.0779751   0.0092133   0.0084200   0.1190408  -0.0039498  -0.0999820   0.0000206  -0.0164218  -0.0015462   0.0090391   0.0344234  -0.0001331   0.0030415  -0.0239040   0.0045053  -0.0463856  -0.0137336   0.0192896  -0.0068188   0.0143759   0.0694932
Order 1, Length 21
   0.0147593  -0.2068568  -0.0351610  -0.0039498   0.4208644   0.0090221   0.0005774  -0.0246827  -0.0012898   0.0057381  -0.0292365  -0.0019007  -0.0027699  -0.0294887  -0.0052077  -0.0181442  -0.2053094   0.0434624   0.0037848   0.0747051  -0.0089192
Order 1, Length 21
   0.0083787  -0.0218727  -0.0943135  -0.0999820   0.0090221   0.3183790  -0.0016343   0.0402656   0.0032122  -0.0017995  -0.0010185  -0.0014312   0.0060941  -0.0248631   0.0048192   0.0193909   0.0330148  -0.0844669   0.0695428  -0.0345513  -0.1461892
Order 1, Length 21
  -0.0899025  -0.0281986   0.0949394   0.0000206   0.0005774  -0.0016343   0.0877664   0.0297220  -0.1025667  -0.0073555  -0.0084664   0.0259001   0.0085359   0.0063948  -0.0171966   0.0003725   0.0010667   0.0006621   0.0005634  -0.0010979  -0.0001046
Order 1, Length 21
  -0.0235104  -0.0602846   0.0578233  -0.0164218  -0.0246827   0.0402656   0.0297220   0.0804112  -0.0731563   0.0019920   0.0043601  -0.0098383   0.0054594   0.0043824  -0.0084907   0.0022985  -0.0098005  -0.0055258   0.0004605   0.0056136  -0.0010772
Order 1, Length 21
   0.0949850   0.0694497  -0.2854248  -0.0015462  -0.0012898   0.0032122  -0.1025667  -0.0731563   0.2987633  -0.0008643  -0.0004961  -0.0003357   0.0095257   0.0055397  -0.0162146   0.0005706  -0.0025877  -0.0007786  -0.0001047   0.0025453   0.0007800
Order 1, Length 21
  -0.2981205   0.0832644   0.0304713   0.0090391   0.0057381  -0.0017995  -0.0073555   0.0019920  -0.0008643   0.3133529  -0.0933132  -0.0348749  -0.0154683   0.0052791   0.0039605  -0.0026854  -0.0010345   0.0026836   0.0012378  -0.0019233   0.0004228
Order 1, Length 21
   0.0767350  -0.0761485  -0.0100351   0.0344234  -0.0292365  -0.0010185  -0.0084664   0.0043601  -0.0004961  -0.0933132   0.0922542   0.0130693  -0.0095956   0.0057247   0.0021721  -0.0000139   0.0008837  -0.0090412   0.0002335   0.0021591   0.0053465
Order 1, Length 21
   0.0323229  -0.0101788  -0.0534062  -0.0001331  -0.0019007  -0.0014312   0.0259001  -0.0098383  -0.0003357  -0.0348749   0.0130693   0.0504163  -0.0220510   0.0081760   0.0031484  -0.0003557   0.0020956   0.0033408  -0.0008095  -0.0014234  -0.0017308
Order 1, Length 21
  -0.1471862  -0.0528072  -0.1218046   0.0030415  -0.0027699   0.0060941   0.0085359   0.0054594   0.0095257  -0.0154683  -0.0095956  -0.0220510   0.1500077   0.0580032   0.1319522   0.0013762  -0.0007263  -0.0045103  -0.0003050   0.0024342   0.0007919
Order 1, Length 21
  -0.0483030  -0.0762809  -0.0610525  -0.0239040  -0.0294887  -0.0248631   0.0063948   0.0043824   0.0055397   0.0052791   0.0057247   0.0081760   0.0580032   0.0925769   0.0749708   0.0064248   0.0008247  -0.0063322  -0.0038944   0.0022585   0.0035627
Order 1, Length 21
  -0.1236478  -0.0658586  -0.2039457   0.0045053  -0.0052077   0.0048192  -0.0171966  -0.0084907  -0.0162146   0.0039605   0.0021721   0.0031484   0.1319522   0.0749708   0.2128717  -0.0015732   0.0022283  -0.0007578   0.0020035   0.0001841   0.0000743
Order 1, Length 21
   0.0200509  -0.0208906   0.0104445  -0.0463856  -0.0181442   0.0193909   0.0003725   0.0022985   0.0005706  -0.0026854  -0.0000139  -0.0003557   0.0013762   0.0064248  -0.0015732   0.1148645  -0.0990391  -0.1868068  -0.0875420   0.1293722   0.1582482
Order 1, Length 21
  -0.0212098  -0.0397205   0.0513267  -0.0137336  -0.2053094   0.0330148   0.0010667  -0.0098005  -0.0025877  -0.0010345   0.0008837   0.0020956  -0.0007263   0.0008247   0.0022283  -0.0990391   0.7292708   0.2393165   0.1346778  -0.4761471  -0.3253823
Order 1, Length 21
   0.0103661   0.0506922  -0.0012894   0.0192896   0.0434624  -0.0844669   0.0006621  -0.0055258  -0.0007786   0.0026836  -0.0090412   0.0033408  -0.0045103  -0.0063322  -0.0007578  -0.1868068   0.2393165   0.4883309   0.1583368  -0.3125761  -0.4044129
Order 1, Length 21
  -0.0131501   0.0069125  -0.0066898  -0.0068188   0.0037848   0.0695428   0.0005634   0.0004605  -0.0001047   0.0012378   0.0002335  -0.0008095  -0.0003050  -0.0038944   0.0020035  -0.0875420   0.1346778   0.1583368   0.1060044  -0.1421828  -0.2222493
Order 1, Length 21
  -0.0009777  -0.0032661   0.0026017   0.0143759   0.0747051  -0.0345513  -0.0010979   0.0056136   0.0025453  -0.0019233   0.0021591  -0.0014234   0.0024342   0.0022585   0.0001841   0.1293722  -0.4761471  -0.3125761  -0.1421828   0.3946808   0.3432092
Order 1, Length 21
  -0.0066120  -0.0167346   0.0002165   0.0694932  -0.0089192  -0.1461892  -0.0001046  -0.0010772   0.0007800   0.0004228   0.0053465  -0.0017308   0.0007919   0.0035627   0.0000743   0.1582482  -0.3253823  -0.4044129  -0.2222493   0.3432092   0.5512834


 # Finishing finite difference calculation for IDERIV #
 ######################################################
 ######################################################
 Requested basis set is G3large
 There are 58 shells and 198 basis functions
 **********************************************************************
 **                                                                  **
 **                       VIBRATIONAL ANALYSIS                       **
 **                       --------------------                       **
 **                                                                  **
 **        VIBRATIONAL FREQUENCIES (CM**-1) AND NORMAL MODES         **
 **     FORCE CONSTANTS (mDYN/ANGSTROM) AND REDUCED MASSES (AMU)     **
 **                  INFRARED INTENSITIES (KM/MOL)                   **
 **                                                                  **
 **********************************************************************
 

 Mode:                 1                      2                      3
 Frequency:       216.27                 370.88                 374.93
 Force Cnst:      0.0299                 0.3188                 0.5256
 Red. Mass:       1.0855                 3.9340                 6.3456
 IR Active:          YES                    YES                    YES
 IR Intens:        0.077                  3.638                  1.867
 Raman Active:       YES                    YES                    YES
               X      Y      Z        X      Y      Z        X      Y      Z
 C          0.008  0.001  0.000   -0.104 -0.130  0.284    0.133  0.022  0.002
 O          0.045  0.001  0.020    0.002 -0.114 -0.083   -0.297  0.018 -0.110
 H         -0.540 -0.002 -0.224   -0.152  0.202  0.369    0.241 -0.030  0.030
 H          0.076 -0.021  0.562   -0.125 -0.254  0.452    0.309  0.453  0.081
 H          0.450  0.028 -0.358   -0.134 -0.332  0.403    0.337 -0.360  0.029
 N         -0.002  0.000  0.000    0.056  0.009 -0.014    0.424 -0.002  0.182
 O         -0.049 -0.002 -0.018    0.052  0.228 -0.195   -0.230 -0.037 -0.060
 TransDip  -0.008  0.001 -0.004   -0.014 -0.036  0.047    0.042  0.005  0.011

 Mode:                 4                      5                      6
 Frequency:       784.43                 932.37                1093.58
 Force Cnst:      1.6483                 3.5539                 5.4873
 Red. Mass:       4.5464                 6.9387                 7.7877
 IR Active:          YES                    YES                    YES
 IR Intens:       58.609                121.542                180.569
 Raman Active:       YES                    YES                    YES
               X      Y      Z        X      Y      Z        X      Y      Z
 C         -0.019  0.101  0.045   -0.005 -0.366  0.013   -0.019 -0.397  0.052
 O         -0.141 -0.020  0.340   -0.064  0.095  0.153    0.023  0.484 -0.058
 H          0.061 -0.628 -0.144   -0.001 -0.430  0.007    0.004 -0.588 -0.012
 H          0.053  0.354 -0.206   -0.012 -0.411  0.066    0.079  0.049 -0.254
 H          0.109  0.347 -0.185   -0.036 -0.411  0.055    0.117  0.064 -0.238
 N          0.056 -0.120 -0.133    0.139  0.377 -0.336   -0.084 -0.200  0.204
 O          0.092  0.045 -0.223   -0.051 -0.072  0.123    0.053  0.019 -0.128
 TransDip   0.092  0.051 -0.222    0.135  0.032 -0.325   -0.127 -0.274  0.307

 Mode:                 7                      8                      9
 Frequency:      1166.04                1203.75                1456.24
 Force Cnst:      1.0531                 1.4112                 1.4614
 Red. Mass:       1.3145                 1.6529                 1.1696
 IR Active:          YES                    YES                    YES
 IR Intens:        0.536                  0.547                  2.738
 Raman Active:       YES                    YES                    YES
               X      Y      Z        X      Y      Z        X      Y      Z
 C          0.133  0.001  0.054    0.062 -0.022 -0.152   -0.009 -0.106  0.021
 O         -0.066 -0.001 -0.027   -0.045  0.056  0.110   -0.008 -0.028  0.020
 H         -0.285  0.000 -0.116   -0.017  0.700  0.038   -0.074  0.642  0.213
 H         -0.130 -0.634 -0.136    0.007 -0.331  0.344    0.154  0.427 -0.223
 H         -0.191  0.637  0.006   -0.246 -0.330  0.244    0.051  0.434 -0.278
 N          0.015  0.000  0.006   -0.006 -0.055  0.014    0.004  0.027 -0.009
 O         -0.008  0.000 -0.003    0.020  0.006 -0.048    0.004 -0.011 -0.009
 TransDip   0.022  0.001  0.007    0.007 -0.016 -0.017    0.000  0.053  0.005

 Mode:                10                     11                     12
 Frequency:      1481.44                1493.95                1757.08
 Force Cnst:      1.3474                 1.3796                24.8328
 Red. Mass:       1.0420                 1.0491                13.6519
 IR Active:          YES                    YES                    YES
 IR Intens:       13.933                 12.118                176.107
 Raman Active:       YES                    YES                    YES
               X      Y      Z        X      Y      Z        X      Y      Z
 C         -0.049  0.001 -0.021   -0.016  0.035  0.039   -0.003  0.043  0.007
 O         -0.012  0.000 -0.006   -0.008  0.008  0.019   -0.016 -0.080  0.040
 H          0.666 -0.010  0.266   -0.023  0.233  0.081    0.020 -0.199 -0.043
 H         -0.088 -0.298  0.393   -0.225 -0.369 -0.529   -0.062 -0.104  0.091
 H          0.194  0.294 -0.328    0.536 -0.358 -0.231   -0.019 -0.102  0.107
 N          0.002  0.000  0.001   -0.001 -0.005  0.002   -0.178  0.550  0.430
 O         -0.001  0.000  0.000    0.003  0.001 -0.007    0.178 -0.408 -0.432
 TransDip   0.110 -0.001  0.046    0.043  0.017 -0.101   -0.162  0.010  0.393

 Mode:                13                     14                     15
 Frequency:      3097.74                3182.68                3224.41
 Force Cnst:      5.8306                 6.6060                 6.7780
 Red. Mass:       1.0313                 1.1069                 1.1065
 IR Active:          YES                    YES                    YES
 IR Intens:       10.322                  9.169                  2.752
 Raman Active:       YES                    YES                    YES
               X      Y      Z        X      Y      Z        X      Y      Z
 C         -0.004  0.044  0.013   -0.088  0.000 -0.036    0.036  0.004 -0.088
 O          0.000  0.002 -0.001    0.000  0.000  0.000    0.000  0.000  0.000
 H         -0.157 -0.115  0.387   -0.017 -0.002  0.001   -0.327 -0.239  0.806
 H          0.590 -0.212 -0.072    0.659 -0.239 -0.097   -0.282  0.100  0.023
 H         -0.378 -0.217 -0.471    0.399  0.238  0.523    0.182  0.099  0.209
 N         -0.001 -0.001  0.002    0.000  0.000  0.000    0.000 -0.001 -0.001
 O          0.000 -0.001 -0.001    0.000  0.000  0.000    0.000  0.001  0.000
 TransDip   0.007  0.102 -0.014   -0.089  0.000 -0.037    0.020  0.007 -0.049

 STANDARD THERMODYNAMIC QUANTITIES AT   298.18 K  AND     1.00 ATM

   This Molecule has  0 Imaginary Frequencies
   Zero point vibrational energy:       31.216 kcal/mol

   Atom    1 Element C  Has Mass   12.00000
   Atom    2 Element O  Has Mass   15.99491
   Atom    3 Element H  Has Mass    1.00783
   Atom    4 Element H  Has Mass    1.00783
   Atom    5 Element H  Has Mass    1.00783
   Atom    6 Element N  Has Mass   14.00307
   Atom    7 Element O  Has Mass   15.99491
   Molecular Mass:    61.016380 amu
   Principal axes and moments of inertia in atomic units:
                             1           2           3
    Eigenvalues --       86.85783   233.82426   309.32466
          X              -0.31863    -0.21041     0.92423
          Y              -0.54934     0.83560     0.00085
          Z               0.77247     0.50745     0.38183
   Rotational Symmetry Number is   1
   The Molecule is an Asymmetric Top
   Translational Enthalpy:        0.889 kcal/mol
   Rotational Enthalpy:           0.889 kcal/mol
   Vibrational Enthalpy:         32.106 kcal/mol
   gas constant (RT):             0.593 kcal/mol
   Translational Entropy:        38.246  cal/mol.K
   Rotational Entropy:           23.356  cal/mol.K
   Vibrational Entropy:           4.665  cal/mol.K

   Total Enthalpy:               34.477 kcal/mol
   Total Entropy:                66.267  cal/mol.K
 Total job time:  7302.28s(wall), 7199.06s(cpu) 
 Wed May  1 15:15:29 2013

        *************************************************************
        *                                                           *
        *  Thank you very much for using Q-Chem.  Have a nice day.  *
        *                                                           *
        *************************************************************


0 sent ACK to 0 
now end server 0 ... 
