Process 0 of 1 is on cl054.stfx.acenet.ca - thread support 1
initial socket setup ...start
initial socket setup ...done 
now start server 0 ... 

cmd = /usr/bin/ssh clhead /usr/local/qchem/bin/get_hostid 303100540 > /scratch/tmp/5997456.1.short.q/qchem17145/lic.dat
                  Welcome to Q-Chem
     A Quantum Leap Into The Future Of Chemistry

 Y. Shao, L. Fusti-Molnar, Y. Jung, J. Kussmann, C. Ochsenfeld,
 S. T. Brown, A. T. B. Gilbert, L. V. Slipchenko,S. V. Levchenko,
 D. P. O'Neill, R. A. DiStasio Jr., R. C. Lochan, T. Wang,
 G. J. O. Beran, N. A. Besley, J. M. Herbert, C. Y. Lin,
 T. Van Voorhis, S. H. Chien, A. Sodt, R. P. Steele, 
 V. A. Rassolov, P. E. Maslen, P. P. Korambath, R. D. Adamson,
 B. Austin, J. Baker, E. F. C. Byrd, H. Dachsel, R. J. Doerksen,
 A. Dreuw, B. D. Dunietz, A. D. Dutoi, T. R. Furlani,
 S. R. Gwaltney, A. Heyden, S. Hirata, C.-P. Hsu, G. Kedziora,
 R. Z. Khaliullin, P. Klunzinger, A. M. Lee, M. S. Lee, W. Liang,
 I. Lotan, N. Nair, B. Peters, E. I. Proynov, P. A. Pieniazek, 
 Y. M. Rhee, J. Ritchie, E. Rosta, C. D. Sherrill, 
 A. C. Simmonett, J. E. Subotnik, H. L. Woodcock III,
 W. Zhang, A. T. Bell, A. K. Chakraborty, D. M. Chipman,
 F. J. Keil, A. Warshel, W. J. Hehre, H. F. Schaefer III,
 J. Kong, A. I. Krylov, P. M. W. Gill, M. Head-Gordon,
 Q-Chem, Version 3.1, Q-Chem, Inc., Pittsburgh, PA (2007).

 Additional authors for Version 3.1: 
 Z. Gan, Y. Zhao, N. E. Schultz, D. Truhlar, E. Epifanovsky and M. Oana.

 Additional authors for Version 3.2: 
 R. Baer, B. R. Brooks, D. Casanova, J.-D. Chai, C.-L. Cheng, 
 C. Cramer, D. Crittenden, A. Ghysels, G. Hawkins, E. G. Hohenstein, 
 C. Kelley, W. Kurlancheek, D. Liotard, E. Livshits, P. Manohar, 
 A. Marenich, D. Neuhauser, R. Olson, M. A. Rohrdanz, K. S. Thanthiriwatte, 
 A. J. W. Thom, V. Vanovschi, C. F. Williams, Q. Wu and Z.-Q. You. 


 Intel X86 Linux Version

 Q-chem begins on Wed May 22 10:57:07 2013  

 Parallel job on  1  processors
Processing $rem in /usr/local/qchem/config/preferences.

theFileMan(): MAXOPENFILES=974 MAX_SUB_FILE_NUM=16
Maximum size of a physical file is 2.0 GB, maximum size of a tmp-file is 32.0 GB


--------------------------------------------------------------
User input:
--------------------------------------------------------------

$molecule
-1,2
Li         0.00000        0.00000        0.01009
Li         0.00000        0.00000        2.71297
$end

$comment
negative
$end

$xc_functional
C PBE   1.00
X wPBE  1.00
$end

$rem
SYMMETRY_DECOMPOSITION	0
exchange 		general
LRC_DFT                 true
BASIS                   g3large
omega			500
mem_static              760
max_scf_cycles          200
scf_final_print         1
sym_ignore              true
$end

--------------------------------------------------------------
 Writing REM_CC_EA            2
 ----------------------------------------------------
       Standard Nuclear Orientation (Angstroms)
    I     Atom         X            Y            Z
 ----------------------------------------------------
    1      Li      0.000000     0.000000     0.010090
    2      Li      0.000000     0.000000     2.712970
 ----------------------------------------------------
 Nuclear Repulsion Energy =     1.7620445218 hartrees
 There are        4 alpha and        3 beta electrons
 Requested basis set is G3large
 There are 20 shells and 84 basis functions

Total QAlloc Memory Limit   2000 MB
Mega-Array Size       743 MB
MEM_STATIC part       760 MB

                       Distance Matrix (Angstroms)
             Li(  1)
   Li(  2)  2.702880
 
 A cutoff of  1.0D-08 yielded    206 shell pairs
 There are   3662 function pairs (  4809 Cartesian)
Evaluating contribution to one-electron hamiltonian from nuclear
 Smallest overlap matrix eigenvalue = 7.37E-05

 Q-Chem warning in module mkSTV.C, line 194:

 Overlap eigenvalue is smaller than square root of threshold

 Multipole matrices computed through 2nd order

  Scale SEOQF with 1.000000e-02/1.000000e-02/1.000000e-02

 Standard Electronic Orientation quadrupole field applied
 Nucleus-field energy     =    -0.0000000002 hartrees
 Guess from superposition of atomic densities
 Warning:  Energy on first SCF cycle will be non-variational
 Long-range K will be added via erf
 Coulomb attenuation parameter = 0.5 bohr**(-1)
 An unrestricted Kohn-Sham SCF calculation will be
 performed using Pulay DIIS extrapolation
 Exchange:  wPBE + LR-HF      Correlation:  PBE
 Using SG-1 standard quadrature grid
 SCF converges when DIIS error is below 1.0E-05
 Requested basis set is G3large
 There are 20 shells and 84 basis functions
 A cutoff of  1.0D-08 yielded    206 shell pairs
 There are   3662 function pairs (  4809 Cartesian)
 Warning!  Inaccurate integrated density:
   Number of electrons =     7
   Numerical integral  =     6.017400868801
   Relative error      =   -14.0371304457 %
 ---------------------------------------
  Cycle       Energy         DIIS Error
 ---------------------------------------
    1     -14.7383625058      2.41E-03
    2     -14.9203998965      2.70E-03
    3     -14.9513747998      1.18E-03
    4     -14.9643816465      2.67E-04
    5     -14.9658054785      1.06E-04
    6     -14.9663050224      6.54E-05
    7     -14.9667079142      4.03E-05
    8     -14.9669656111      3.04E-05
    9     -14.9670522288      3.27E-05
   10     -14.9669027297      1.62E-05
   11     -14.9668849876      6.00E-06 Convergence criterion met
 ---------------------------------------
 One-Electron    Energy =   -23.7670722399
 Total Coulomb   Energy =    10.7570898022
 Alpha Exchange  Energy =    -0.6951775884
 Beta  Exchange  Energy =    -0.6311243885
 DFT   Exchange  Energy =    -2.2577395406
 DFT Correlation Energy =    -0.1349055540
 Nuclear Repu.   Energy =     1.7620445216
 Nuclear Attr.   Energy =   -38.5837875278
 Kinetic         Energy =    14.8167152879
 <S^2> = 0.7645
 SCF time:  CPU 12.44 s  wall 13.04 s
 Final Alpha MO Eigenvalues
            1           2           3           4           5           6
    1  -2.0169669  -2.0166003  -0.0919519  -0.0021314   0.0673142   0.0731173
            7           8           9
    1   0.0797771   0.0803017   0.0829484
 Final Beta MO Eigenvalues
            1           2           3           4           5           6
    1  -2.0172650  -2.0169222  -0.0872250   0.0685422   0.0743496   0.0819579
            7           8
    1   0.0826191   0.0833711
 Analysis of SCF Wavefunction
 
 --------------------------------------------------------------
                    Orbital Energies (a.u.)
 --------------------------------------------------------------
 
 Alpha MOs
 -- Occupied --
 -2.017  -2.017  -0.092  -0.002
 -- Virtual --
  0.067   0.073   0.080   0.080   0.083   0.086   0.094   0.100
  0.113   0.123   0.137   0.150   0.157   0.178   0.227   0.240
  0.243   0.246   0.246   0.279   0.280   0.360   0.360   0.374
  0.389   0.392   0.434   0.434   0.477   0.533   0.536   0.542
  0.656   0.658   0.660   0.662   0.667   0.688   0.688   0.702
  0.702   0.708   0.769   0.769   0.834   0.840   0.877   0.899
  0.899   0.987   1.032   1.041   1.399   1.407   1.408   1.432
  1.432   1.461   1.465   1.472   1.475   1.609   3.945   4.109
  7.059   7.059   7.063   7.063   7.141   7.217  20.210  20.212
 20.214  20.226  21.390  21.392  21.394  21.395  21.395  21.396
 
 Beta MOs
 -- Occupied --
 -2.017  -2.017  -0.087
 -- Virtual --
  0.069   0.074   0.082   0.083   0.083   0.084   0.089   0.099
  0.113   0.125   0.131   0.136   0.158   0.159   0.178   0.224
  0.240   0.244   0.245   0.246   0.278   0.284   0.366   0.366
  0.373   0.388   0.395   0.435   0.435   0.475   0.531   0.535
  0.542   0.655   0.657   0.660   0.662   0.666   0.689   0.689
  0.701   0.701   0.706   0.768   0.768   0.832   0.839   0.875
  0.898   0.898   0.985   1.031   1.038   1.398   1.406   1.408
  1.431   1.432   1.460   1.464   1.470   1.473   1.607   3.945
  4.108   7.058   7.059   7.062   7.063   7.141   7.216  20.209
 20.211  20.213  20.225  21.390  21.392  21.394  21.395  21.395
 21.395
 --------------------------------------------------------------
 
          Ground-State Mulliken Net Atomic Charges

     Atom                 Charge (a.u.)    Spin (a.u.)
  --------------------------------------------------------
      1 Li                   -0.499916       0.500022
      2 Li                   -0.500084       0.499978
  --------------------------------------------------------
  Sum of atomic charges =    -1.000000
  Sum of spin   charges =     1.000000

 -----------------------------------------------------------------
                    Cartesian Multipole Moments
 -----------------------------------------------------------------
    Charge (ESU x 10^10)
                -4.8032
    Dipole Moment (Debye)
         X      -0.0008      Y      -0.0007      Z      -6.5397
       Tot       6.5397
    Quadrupole Moments (Debye-Ang)
        XX     -68.6968     XY     -24.2168     YY     -68.6936
        XZ       0.0699     YZ       0.0698     ZZ     -44.4932
    Octapole Moments (Debye-Ang^2)
       XXX      -0.0186    XXY      -0.0060    XYY      -0.0062
       YYY      -0.0180    XXZ     -93.5311    XYZ     -32.9706
       YYZ     -93.5256    XZZ       0.1843    YZZ       0.1842
       ZZZ    -157.4875
    Hexadecapole Moments (Debye-Ang^3)
      XXXX   -1745.2155   XXXY    -531.4244   XXYY    -581.7086
      XYYY    -531.4244   YYYY   -1745.0997   XXXZ       2.1536
      XXYZ       0.7173   XYYZ       0.7177   YYYZ       2.1530
      XXZZ    -591.0165   XYZZ    -247.6831   YYZZ    -590.9847
      XZZZ       3.1912   YZZZ       3.1893   ZZZZ   -1273.5316
 -----------------------------------------------------------------
 Total job time:  13.15s(wall), 12.53s(cpu) 
 Wed May 22 10:57:21 2013

        *************************************************************
        *                                                           *
        *  Thank you very much for using Q-Chem.  Have a nice day.  *
        *                                                           *
        *************************************************************


0 sent ACK to 0 
now end server 0 ... 
 
**********************************************************************
Job 2 of 3 
**********************************************************************
 
Process 0 of 1 is on cl054.stfx.acenet.ca - thread support 1
initial socket setup ...start
initial socket setup ...done 
now start server 0 ... 

cmd = /usr/bin/ssh clhead /usr/local/qchem/bin/get_hostid 1576640690 > /scratch/tmp/5997456.1.short.q/qchem17145/lic.dat
                  Welcome to Q-Chem
     A Quantum Leap Into The Future Of Chemistry

 Y. Shao, L. Fusti-Molnar, Y. Jung, J. Kussmann, C. Ochsenfeld,
 S. T. Brown, A. T. B. Gilbert, L. V. Slipchenko,S. V. Levchenko,
 D. P. O'Neill, R. A. DiStasio Jr., R. C. Lochan, T. Wang,
 G. J. O. Beran, N. A. Besley, J. M. Herbert, C. Y. Lin,
 T. Van Voorhis, S. H. Chien, A. Sodt, R. P. Steele, 
 V. A. Rassolov, P. E. Maslen, P. P. Korambath, R. D. Adamson,
 B. Austin, J. Baker, E. F. C. Byrd, H. Dachsel, R. J. Doerksen,
 A. Dreuw, B. D. Dunietz, A. D. Dutoi, T. R. Furlani,
 S. R. Gwaltney, A. Heyden, S. Hirata, C.-P. Hsu, G. Kedziora,
 R. Z. Khaliullin, P. Klunzinger, A. M. Lee, M. S. Lee, W. Liang,
 I. Lotan, N. Nair, B. Peters, E. I. Proynov, P. A. Pieniazek, 
 Y. M. Rhee, J. Ritchie, E. Rosta, C. D. Sherrill, 
 A. C. Simmonett, J. E. Subotnik, H. L. Woodcock III,
 W. Zhang, A. T. Bell, A. K. Chakraborty, D. M. Chipman,
 F. J. Keil, A. Warshel, W. J. Hehre, H. F. Schaefer III,
 J. Kong, A. I. Krylov, P. M. W. Gill, M. Head-Gordon,
 Q-Chem, Version 3.1, Q-Chem, Inc., Pittsburgh, PA (2007).

 Additional authors for Version 3.1: 
 Z. Gan, Y. Zhao, N. E. Schultz, D. Truhlar, E. Epifanovsky and M. Oana.

 Additional authors for Version 3.2: 
 R. Baer, B. R. Brooks, D. Casanova, J.-D. Chai, C.-L. Cheng, 
 C. Cramer, D. Crittenden, A. Ghysels, G. Hawkins, E. G. Hohenstein, 
 C. Kelley, W. Kurlancheek, D. Liotard, E. Livshits, P. Manohar, 
 A. Marenich, D. Neuhauser, R. Olson, M. A. Rohrdanz, K. S. Thanthiriwatte, 
 A. J. W. Thom, V. Vanovschi, C. F. Williams, Q. Wu and Z.-Q. You. 


 Intel X86 Linux Version

 Q-chem begins on Wed May 22 10:57:23 2013  

 Parallel job on  1  processors
Processing $rem in /usr/local/qchem/config/preferences.

theFileMan(): MAXOPENFILES=974 MAX_SUB_FILE_NUM=16
Maximum size of a physical file is 2.0 GB, maximum size of a tmp-file is 32.0 GB


--------------------------------------------------------------
User input:
--------------------------------------------------------------

$molecule
0,1
Li         0.00000        0.00000        0.01009
Li         0.00000        0.00000        2.71297
$end

$comment
neutral
$end

$xc_functional
C PBE   1.00
X wPBE  1.00
$end


$rem
SYMMETRY_DECOMPOSITION	0
LRC_DFT                 true
exchange 		general
BASIS                   g3large
omega			500
mem_static              760
max_scf_cycles          200
scf_final_print         1
sym_ignore              true
$end

--------------------------------------------------------------
 Writing REM_CC_EA            2
 ----------------------------------------------------
       Standard Nuclear Orientation (Angstroms)
    I     Atom         X            Y            Z
 ----------------------------------------------------
    1      Li      0.000000     0.000000     0.010090
    2      Li      0.000000     0.000000     2.712970
 ----------------------------------------------------
 Nuclear Repulsion Energy =     1.7620445218 hartrees
 There are        3 alpha and        3 beta electrons
 Requested basis set is G3large
 There are 20 shells and 84 basis functions

Total QAlloc Memory Limit   2000 MB
Mega-Array Size       743 MB
MEM_STATIC part       760 MB

                       Distance Matrix (Angstroms)
             Li(  1)
   Li(  2)  2.702880
 
 A cutoff of  1.0D-08 yielded    206 shell pairs
 There are   3662 function pairs (  4809 Cartesian)
Evaluating contribution to one-electron hamiltonian from nuclear
 Smallest overlap matrix eigenvalue = 7.37E-05

 Q-Chem warning in module mkSTV.C, line 194:

 Overlap eigenvalue is smaller than square root of threshold

 Multipole matrices computed through 2nd order

  Scale SEOQF with 1.000000e-02/1.000000e-02/1.000000e-02

 Standard Electronic Orientation quadrupole field applied
 Nucleus-field energy     =    -0.0000000002 hartrees
 Guess from superposition of atomic densities
 Warning:  Energy on first SCF cycle will be non-variational
 Long-range K will be added via erf
 Coulomb attenuation parameter = 0.5 bohr**(-1)
 A restricted Kohn-Sham SCF calculation will be
 performed using Pulay DIIS extrapolation
 Exchange:  wPBE + LR-HF      Correlation:  PBE
 Using SG-1 standard quadrature grid
 SCF converges when DIIS error is below 1.0E-05
 Requested basis set is G3large
 There are 20 shells and 84 basis functions
 A cutoff of  1.0D-08 yielded    206 shell pairs
 There are   3662 function pairs (  4809 Cartesian)
 Warning!  Inaccurate integrated density:
   Number of electrons =     6
   Numerical integral  =     6.017400868801
   Relative error      =     0.2900144800 %
 ---------------------------------------
  Cycle       Energy         DIIS Error
 ---------------------------------------
    1     -14.7383625058      2.41E-03
    2     -14.9607640640      1.72E-03
    3     -14.9679473136      6.08E-04
    4     -14.9705607651      2.07E-04
    5     -14.9710005540      5.08E-05
    6     -14.9710384296      5.66E-06 Convergence criterion met
 ---------------------------------------
 One-Electron    Energy =   -23.1207308188
 Total Coulomb   Energy =    10.0472475807
 Alpha Exchange  Energy =    -0.6369222073
 Beta  Exchange  Energy =    -0.6369222073
 DFT   Exchange  Energy =    -2.2608608279
 DFT Correlation Energy =    -0.1248944707
 Nuclear Repu.   Energy =     1.7620445216
 Nuclear Attr.   Energy =   -37.9518687942
 Kinetic         Energy =    14.8311379754
 SCF time:  CPU 5.76 s  wall 6.03 s
 Final Alpha MO Eigenvalues
            1           2           3           4           5           6
    1  -2.1249098  -2.1245612  -0.2020666  -0.0044578   0.0104361   0.0104371
            7           8
    1   0.0108648   0.0185779
 Analysis of SCF Wavefunction
 
 --------------------------------------------------------------
                    Orbital Energies (a.u.)
 --------------------------------------------------------------
 
 Alpha MOs
 -- Occupied --
 -2.125  -2.125  -0.202
 -- Virtual --
 -0.004   0.010   0.010   0.011   0.019   0.023   0.023   0.030
  0.036   0.036   0.042   0.047   0.071   0.071   0.092   0.131
  0.144   0.144   0.148   0.155   0.178   0.178   0.253   0.253
  0.268   0.283   0.283   0.324   0.324   0.371   0.429   0.429
  0.429   0.548   0.549   0.549   0.556   0.556   0.573   0.573
  0.589   0.589   0.598   0.653   0.653   0.726   0.726   0.769
  0.785   0.785   0.875   0.925   0.925   1.289   1.293   1.294
  1.318   1.319   1.351   1.351   1.362   1.362   1.499   3.837
  4.001   6.951   6.951   6.955   6.955   7.033   7.109  20.101
 20.103  20.106  20.118  21.282  21.284  21.287  21.287  21.288
 21.288
 --------------------------------------------------------------
 
          Ground-State Mulliken Net Atomic Charges

     Atom                 Charge (a.u.)
  ----------------------------------------
      1 Li                   -0.000011
      2 Li                    0.000011
  ----------------------------------------
  Sum of atomic charges =     0.000000

 -----------------------------------------------------------------
                    Cartesian Multipole Moments
 -----------------------------------------------------------------
    Charge (ESU x 10^10)
                 0.0000
    Dipole Moment (Debye)
         X      -0.0001      Y      -0.0001      Z       0.0001
       Tot       0.0001
    Quadrupole Moments (Debye-Ang)
        XX     -15.9334     XY       0.0005     YY     -15.9334
        XZ      -0.0002     YZ      -0.0002     ZZ      -0.5692
    Octapole Moments (Debye-Ang^2)
       XXX      -0.0003    XXY      -0.0001    XYY      -0.0001
       YYY      -0.0003    XXZ     -21.6936    XYZ       0.0007
       YYZ     -21.6936    XZZ      -0.0007    YZZ      -0.0006
       ZZZ      -2.3248
    Hexadecapole Moments (Debye-Ang^3)
      XXXX     -77.5874   XXXY       0.0016   XXYY     -25.8624
      XYYY       0.0016   YYYY     -77.5872   XXXZ      -0.0010
      XXYZ      -0.0002   XYYZ      -0.0004   YYYZ      -0.0008
      XXZZ     -62.9537   XYZZ       0.0021   YYZZ     -62.9537
      XZZZ      -0.0025   YZZZ      -0.0021   ZZZZ     -93.8527
 -----------------------------------------------------------------
 Total job time:  6.12s(wall), 5.85s(cpu) 
 Wed May 22 10:57:30 2013

        *************************************************************
        *                                                           *
        *  Thank you very much for using Q-Chem.  Have a nice day.  *
        *                                                           *
        *************************************************************


0 sent ACK to 0 
now end server 0 ... 
 
**********************************************************************
Job 3 of 3 
**********************************************************************
 
Process 0 of 1 is on cl054.stfx.acenet.ca - thread support 1
initial socket setup ...start
initial socket setup ...done 
now start server 0 ... 

cmd = /usr/bin/ssh clhead /usr/local/qchem/bin/get_hostid 2067104813 > /scratch/tmp/5997456.1.short.q/qchem17145/lic.dat
                  Welcome to Q-Chem
     A Quantum Leap Into The Future Of Chemistry

 Y. Shao, L. Fusti-Molnar, Y. Jung, J. Kussmann, C. Ochsenfeld,
 S. T. Brown, A. T. B. Gilbert, L. V. Slipchenko,S. V. Levchenko,
 D. P. O'Neill, R. A. DiStasio Jr., R. C. Lochan, T. Wang,
 G. J. O. Beran, N. A. Besley, J. M. Herbert, C. Y. Lin,
 T. Van Voorhis, S. H. Chien, A. Sodt, R. P. Steele, 
 V. A. Rassolov, P. E. Maslen, P. P. Korambath, R. D. Adamson,
 B. Austin, J. Baker, E. F. C. Byrd, H. Dachsel, R. J. Doerksen,
 A. Dreuw, B. D. Dunietz, A. D. Dutoi, T. R. Furlani,
 S. R. Gwaltney, A. Heyden, S. Hirata, C.-P. Hsu, G. Kedziora,
 R. Z. Khaliullin, P. Klunzinger, A. M. Lee, M. S. Lee, W. Liang,
 I. Lotan, N. Nair, B. Peters, E. I. Proynov, P. A. Pieniazek, 
 Y. M. Rhee, J. Ritchie, E. Rosta, C. D. Sherrill, 
 A. C. Simmonett, J. E. Subotnik, H. L. Woodcock III,
 W. Zhang, A. T. Bell, A. K. Chakraborty, D. M. Chipman,
 F. J. Keil, A. Warshel, W. J. Hehre, H. F. Schaefer III,
 J. Kong, A. I. Krylov, P. M. W. Gill, M. Head-Gordon,
 Q-Chem, Version 3.1, Q-Chem, Inc., Pittsburgh, PA (2007).

 Additional authors for Version 3.1: 
 Z. Gan, Y. Zhao, N. E. Schultz, D. Truhlar, E. Epifanovsky and M. Oana.

 Additional authors for Version 3.2: 
 R. Baer, B. R. Brooks, D. Casanova, J.-D. Chai, C.-L. Cheng, 
 C. Cramer, D. Crittenden, A. Ghysels, G. Hawkins, E. G. Hohenstein, 
 C. Kelley, W. Kurlancheek, D. Liotard, E. Livshits, P. Manohar, 
 A. Marenich, D. Neuhauser, R. Olson, M. A. Rohrdanz, K. S. Thanthiriwatte, 
 A. J. W. Thom, V. Vanovschi, C. F. Williams, Q. Wu and Z.-Q. You. 


 Intel X86 Linux Version

 Q-chem begins on Wed May 22 10:57:32 2013  

 Parallel job on  1  processors
Processing $rem in /usr/local/qchem/config/preferences.

theFileMan(): MAXOPENFILES=974 MAX_SUB_FILE_NUM=16
Maximum size of a physical file is 2.0 GB, maximum size of a tmp-file is 32.0 GB


--------------------------------------------------------------
User input:
--------------------------------------------------------------

$molecule
1,2
Li         0.00000        0.00000        0.01009
Li         0.00000        0.00000        2.71297
$end

$comment
positive
$end

$xc_functional
C PBE   1.00
X wPBE  1.00
$end

$rem
SYMMETRY_DECOMPOSITION	0
LRC_DFT                 true
exchange 		general
BASIS                   g3large
omega			500
mem_static              760
max_scf_cycles          200
scf_final_print         1
sym_ignore              true
$end

--------------------------------------------------------------
 Writing REM_CC_EA            2
 ----------------------------------------------------
       Standard Nuclear Orientation (Angstroms)
    I     Atom         X            Y            Z
 ----------------------------------------------------
    1      Li      0.000000     0.000000     0.010090
    2      Li      0.000000     0.000000     2.712970
 ----------------------------------------------------
 Nuclear Repulsion Energy =     1.7620445218 hartrees
 There are        3 alpha and        2 beta electrons
 Requested basis set is G3large
 There are 20 shells and 84 basis functions

Total QAlloc Memory Limit   2000 MB
Mega-Array Size       743 MB
MEM_STATIC part       760 MB

                       Distance Matrix (Angstroms)
             Li(  1)
   Li(  2)  2.702880
 
 A cutoff of  1.0D-08 yielded    206 shell pairs
 There are   3662 function pairs (  4809 Cartesian)
Evaluating contribution to one-electron hamiltonian from nuclear
 Smallest overlap matrix eigenvalue = 7.37E-05

 Q-Chem warning in module mkSTV.C, line 194:

 Overlap eigenvalue is smaller than square root of threshold

 Multipole matrices computed through 2nd order

  Scale SEOQF with 1.000000e-02/1.000000e-02/1.000000e-02

 Standard Electronic Orientation quadrupole field applied
 Nucleus-field energy     =    -0.0000000002 hartrees
 Guess from superposition of atomic densities
 Warning:  Energy on first SCF cycle will be non-variational
 Long-range K will be added via erf
 Coulomb attenuation parameter = 0.5 bohr**(-1)
 An unrestricted Kohn-Sham SCF calculation will be
 performed using Pulay DIIS extrapolation
 Exchange:  wPBE + LR-HF      Correlation:  PBE
 Using SG-1 standard quadrature grid
 SCF converges when DIIS error is below 1.0E-05
 Requested basis set is G3large
 There are 20 shells and 84 basis functions
 A cutoff of  1.0D-08 yielded    206 shell pairs
 There are   3662 function pairs (  4809 Cartesian)
 Warning!  Inaccurate integrated density:
   Number of electrons =     5
   Numerical integral  =     6.017400868801
   Relative error      =    20.3480173760 %
 ---------------------------------------
  Cycle       Energy         DIIS Error
 ---------------------------------------
    1     -14.7383625058      2.41E-03
    2     -14.7716590051      9.87E-04
    3     -14.7813248309      4.65E-04
    4     -14.7841166723      1.01E-04
    5     -14.7842433091      3.62E-05
    6     -14.7842618508      6.24E-06 Convergence criterion met
 ---------------------------------------
 One-Electron    Energy =   -21.8144862828
 Total Coulomb   Energy =     8.8137186028
 Alpha Exchange  Energy =    -0.6699998643
 Beta  Exchange  Energy =    -0.5264125853
 DFT   Exchange  Energy =    -2.2507970026
 DFT Correlation Energy =    -0.0983292401
 Nuclear Repu.   Energy =     1.7620445216
 Nuclear Attr.   Energy =   -36.5083745170
 Kinetic         Energy =    14.6938882343
 <S^2> = 0.7500
 SCF time:  CPU 6.59 s  wall 6.89 s
 Final Alpha MO Eigenvalues
            1           2           3           4           5           6
    1  -2.3565900  -2.3561414  -0.4441720  -0.1343352  -0.1326692  -0.1326328
            7           8
    1  -0.1119677  -0.0664091
 Final Beta MO Eigenvalues
            1           2           3           4           5           6
    1  -2.3513109  -2.3509562  -0.1664126  -0.1244815  -0.1030482  -0.1025377
            7
    1  -0.0901167
 Analysis of SCF Wavefunction
 
 --------------------------------------------------------------
                    Orbital Energies (a.u.)
 --------------------------------------------------------------
 
 Alpha MOs
 -- Occupied --
 -2.357  -2.356  -0.444
 -- Virtual --
 -0.134  -0.133  -0.133  -0.112  -0.066  -0.066  -0.061  -0.054
 -0.054  -0.053  -0.047  -0.033  -0.033  -0.030  -0.012  -0.004
  0.006   0.006   0.020   0.035   0.037   0.037   0.087   0.087
  0.102   0.120   0.120   0.167   0.167   0.203   0.268   0.271
  0.271   0.356   0.356   0.362   0.368   0.368   0.401   0.401
  0.410   0.410   0.411   0.486   0.486   0.532   0.532   0.579
  0.614   0.614   0.684   0.763   0.763   1.082   1.082   1.083
  1.109   1.109   1.138   1.138   1.145   1.145   1.281   3.608
  3.779   6.721   6.721   6.725   6.725   6.805   6.878  19.869
 19.871  19.874  19.886  21.052  21.054  21.057  21.057  21.057
 21.057
 
 Beta MOs
 -- Occupied --
 -2.351  -2.351
 -- Virtual --
 -0.166  -0.124  -0.103  -0.103  -0.090  -0.063  -0.063  -0.060
 -0.052  -0.049  -0.049  -0.043  -0.031  -0.031  -0.030  -0.008
  0.008   0.016   0.016   0.022   0.036   0.042   0.042   0.107
  0.108   0.119   0.138   0.138   0.174   0.174   0.215   0.270
  0.278   0.278   0.363   0.364   0.372   0.372   0.380   0.416
  0.417   0.421   0.430   0.431   0.494   0.494   0.547   0.547
  0.587   0.625   0.625   0.695   0.767   0.767   1.085   1.085
  1.085   1.110   1.111   1.146   1.146   1.148   1.148   1.284
  3.615   3.784   6.725   6.725   6.729   6.729   6.809   6.883
 19.877  19.879  19.882  19.894  21.053  21.055  21.058  21.058
 21.059  21.059
 --------------------------------------------------------------
 
          Ground-State Mulliken Net Atomic Charges

     Atom                 Charge (a.u.)    Spin (a.u.)
  --------------------------------------------------------
      1 Li                    0.500000       0.500000
      2 Li                    0.500000       0.500000
  --------------------------------------------------------
  Sum of atomic charges =     1.000000
  Sum of spin   charges =     1.000000

 -----------------------------------------------------------------
                    Cartesian Multipole Moments
 -----------------------------------------------------------------
    Charge (ESU x 10^10)
                 4.8032
    Dipole Moment (Debye)
         X      -0.0001      Y       0.0000      Z       6.5397
       Tot       6.5397
    Quadrupole Moments (Debye-Ang)
        XX      -5.2995     XY       0.0001     YY      -5.2995
        XZ      -0.0001     YZ       0.0000     ZZ      22.0690
    Octapole Moments (Debye-Ang^2)
       XXX      -0.0001    XXY       0.0000    XYY       0.0000
       YYY       0.0000    XXZ      -7.2155    XYZ       0.0001
       YYZ      -7.2155    XZZ      -0.0002    YZZ      -0.0001
       ZZZ      65.8966
    Hexadecapole Moments (Debye-Ang^3)
      XXXX     -13.8605   XXXY       0.0002   XXYY      -4.6202
      XYYY       0.0002   YYYY     -13.8606   XXXZ      -0.0002
      XXYZ       0.0000   XYYZ      -0.0001   YYYZ       0.0000
      XXZZ     -15.7099   XYZZ       0.0002   YYZZ     -15.7100
      XZZZ      -0.0004   YZZZ      -0.0001   ZZZZ     174.1194
 -----------------------------------------------------------------
 Total job time:  6.98s(wall), 6.68s(cpu) 
 Wed May 22 10:57:39 2013

        *************************************************************
        *                                                           *
        *  Thank you very much for using Q-Chem.  Have a nice day.  *
        *                                                           *
        *************************************************************


0 sent ACK to 0 
now end server 0 ... 
