Process 0 of 1 is on cl224.stfx.acenet.ca - thread support 1
initial socket setup ...start
initial socket setup ...done 
now start server 0 ... 

cmd = /usr/bin/ssh clhead /usr/local/qchem/bin/get_hostid 484885534 > /scratch/tmp/6061478.1.long.q/qchem29859/lic.dat
                  Welcome to Q-Chem
     A Quantum Leap Into The Future Of Chemistry

 Y. Shao, L. Fusti-Molnar, Y. Jung, J. Kussmann, C. Ochsenfeld,
 S. T. Brown, A. T. B. Gilbert, L. V. Slipchenko,S. V. Levchenko,
 D. P. O'Neill, R. A. DiStasio Jr., R. C. Lochan, T. Wang,
 G. J. O. Beran, N. A. Besley, J. M. Herbert, C. Y. Lin,
 T. Van Voorhis, S. H. Chien, A. Sodt, R. P. Steele, 
 V. A. Rassolov, P. E. Maslen, P. P. Korambath, R. D. Adamson,
 B. Austin, J. Baker, E. F. C. Byrd, H. Dachsel, R. J. Doerksen,
 A. Dreuw, B. D. Dunietz, A. D. Dutoi, T. R. Furlani,
 S. R. Gwaltney, A. Heyden, S. Hirata, C.-P. Hsu, G. Kedziora,
 R. Z. Khaliullin, P. Klunzinger, A. M. Lee, M. S. Lee, W. Liang,
 I. Lotan, N. Nair, B. Peters, E. I. Proynov, P. A. Pieniazek, 
 Y. M. Rhee, J. Ritchie, E. Rosta, C. D. Sherrill, 
 A. C. Simmonett, J. E. Subotnik, H. L. Woodcock III,
 W. Zhang, A. T. Bell, A. K. Chakraborty, D. M. Chipman,
 F. J. Keil, A. Warshel, W. J. Hehre, H. F. Schaefer III,
 J. Kong, A. I. Krylov, P. M. W. Gill, M. Head-Gordon,
 Q-Chem, Version 3.1, Q-Chem, Inc., Pittsburgh, PA (2007).

 Additional authors for Version 3.1: 
 Z. Gan, Y. Zhao, N. E. Schultz, D. Truhlar, E. Epifanovsky and M. Oana.

 Additional authors for Version 3.2: 
 R. Baer, B. R. Brooks, D. Casanova, J.-D. Chai, C.-L. Cheng, 
 C. Cramer, D. Crittenden, A. Ghysels, G. Hawkins, E. G. Hohenstein, 
 C. Kelley, W. Kurlancheek, D. Liotard, E. Livshits, P. Manohar, 
 A. Marenich, D. Neuhauser, R. Olson, M. A. Rohrdanz, K. S. Thanthiriwatte, 
 A. J. W. Thom, V. Vanovschi, C. F. Williams, Q. Wu and Z.-Q. You. 


 Intel X86 Linux Version

 Q-chem begins on Thu Jul  4 19:05:04 2013  

 Parallel job on  1  processors
Processing $rem in /usr/local/qchem/config/preferences.

theFileMan(): MAXOPENFILES=974 MAX_SUB_FILE_NUM=16
Maximum size of a physical file is 2.0 GB, maximum size of a tmp-file is 32.0 GB


--------------------------------------------------------------
User input:
--------------------------------------------------------------

$molecule
-1,1
C
N,1,R

R=1.17392061

$end

$comment
negative
$end

$xc_functional
C PBE   1.00
X wPBE  1.00
$end

$rem
SYMMETRY_DECOMPOSITION	0
exchange 		general
LRC_DFT                 true
BASIS                   g3large
omega			2030
mem_static              760
max_scf_cycles          200
scf_final_print         1
sym_ignore              true
$end

--------------------------------------------------------------
 Writing REM_CC_EA            2
 ----------------------------------------------------
       Standard Nuclear Orientation (Angstroms)
    I     Atom         X            Y            Z
 ----------------------------------------------------
    1      C       0.000000     0.000000     0.000000
    2      N       0.000000     0.000000     1.173921
 ----------------------------------------------------
 Nuclear Repulsion Energy =    18.9326626215 hartrees
 There are        7 alpha and        7 beta electrons
 Requested basis set is G3large
 There are 20 shells and 84 basis functions

Total QAlloc Memory Limit   2000 MB
Mega-Array Size       743 MB
MEM_STATIC part       760 MB

                       Distance Matrix (Angstroms)
             C (  1)
   N (  2)  1.173921
 
 A cutoff of  1.0D-08 yielded    206 shell pairs
 There are   3662 function pairs (  4809 Cartesian)
Evaluating contribution to one-electron hamiltonian from nuclear
 Smallest overlap matrix eigenvalue = 1.01E-03
 Multipole matrices computed through 2nd order

  Scale SEOQF with 1.000000e-01/1.000000e-01/1.000000e-01

 Standard Electronic Orientation quadrupole field applied
 Nucleus-field energy     =    -0.0000000010 hartrees
 Guess from superposition of atomic densities
 Warning:  Energy on first SCF cycle will be non-variational
 Long-range K will be added via erf
 Coulomb attenuation parameter = 2.03 bohr**(-1)
 A restricted Kohn-Sham SCF calculation will be
 performed using Pulay DIIS extrapolation
 Exchange:  wPBE + LR-HF      Correlation:  PBE
 Using SG-1 standard quadrature grid
 SCF converges when DIIS error is below 1.0E-05
 Requested basis set is G3large
 There are 20 shells and 84 basis functions
 A cutoff of  1.0D-08 yielded    206 shell pairs
 There are   3662 function pairs (  4809 Cartesian)
 Warning!  Inaccurate integrated density:
   Number of electrons =    14
   Numerical integral  =    12.999997383438
   Relative error      =    -7.1428758326 %
 ---------------------------------------
  Cycle       Energy         DIIS Error
 ---------------------------------------
    1     -92.7125535925      4.64E-02
    2     -92.7121802983      7.04E-03
    3     -92.7532015868      4.89E-03
    4     -92.7707484556      1.04E-03
    5     -92.7728937169      4.95E-04
    6     -92.7736976378      2.34E-04
    7     -92.7740163607      6.72E-05
    8     -92.7740437223      1.02E-05
    9     -92.7740441887      2.65E-06 Convergence criterion met
 ---------------------------------------
 One-Electron    Energy =  -166.5596966294
 Total Coulomb   Energy =    67.1893017313
 Alpha Exchange  Energy =    -3.7701598877
 Beta  Exchange  Energy =    -3.7701598877
 DFT   Exchange  Energy =    -4.3586123234
 DFT Correlation Energy =    -0.4373798124
 Nuclear Repu.   Energy =    18.9326626205
 Nuclear Attr.   Energy =  -258.8155088216
 Kinetic         Energy =    92.2558121922
 SCF time:  CPU 8.99 s  wall 9.27 s
 Final Alpha MO Eigenvalues
            1           2           3           4           5           6
    1 -14.6731068 -10.5545681  -0.9526010  -0.3706661  -0.2294960  -0.2294900
            7           8           9          10          11          12
    1  -0.2212268   0.2434416   0.2686602   0.2686604   0.2745601   0.3863769
 Analysis of SCF Wavefunction
 
 --------------------------------------------------------------
                    Orbital Energies (a.u.)
 --------------------------------------------------------------
 
 Alpha MOs
 -- Occupied --
-14.673 -10.555  -0.953  -0.371  -0.229  -0.229  -0.221
 -- Virtual --
  0.243   0.269   0.269   0.275   0.386   0.386   0.392   0.493
  0.493   0.526   0.709   0.956   0.956   1.045   1.060   1.060
  1.165   1.213   1.213   1.286   1.356   1.356   1.583   1.625
  1.625   1.894   2.040   2.040   2.422   3.298   3.298   3.324
  3.331   3.331   3.402   3.402   3.639   3.639   3.847   3.847
  3.943   3.984   3.984   4.240   4.240   4.452   4.502   4.502
  4.711   4.871   4.871   5.462   5.462   5.665   5.665   6.154
  6.268   6.268   6.692  25.140  28.178  28.178  28.872  36.719
 38.403  38.403  39.151  41.438  41.522  41.547  41.603  41.603
 41.824  42.015  42.184  42.184  42.339
 --------------------------------------------------------------
 
          Ground-State Mulliken Net Atomic Charges

     Atom                 Charge (a.u.)
  ----------------------------------------
      1 C                    -0.497634
      2 N                    -0.502366
  ----------------------------------------
  Sum of atomic charges =    -1.000000

 -----------------------------------------------------------------
                    Cartesian Multipole Moments
 -----------------------------------------------------------------
    Charge (ESU x 10^10)
                -4.8032
    Dipole Moment (Debye)
         X       0.0000      Y       0.0000      Z      -2.6523
       Tot       2.6523
    Quadrupole Moments (Debye-Ang)
        XX     -14.4494     XY      -0.0001     YY     -14.4494
        XZ       0.0001     YZ      -0.0001     ZZ     -20.3548
    Octapole Moments (Debye-Ang^2)
       XXX       0.0000    XXY       0.0000    XYY       0.0000
       YYY       0.0000    XXZ      -7.8742    XYZ       0.0000
       YYZ      -7.8742    XZZ       0.0001    YZZ       0.0000
       ZZZ     -30.0015
    Hexadecapole Moments (Debye-Ang^3)
      XXXX     -19.7121   XXXY      -0.0002   XXYY      -6.5707
      XYYY      -0.0002   YYYY     -19.7120   XXXZ       0.0001
      XXYZ       0.0000   XYYZ       0.0000   YYYZ      -0.0001
      XXZZ     -16.8779   XYZZ      -0.0001   YYZZ     -16.8779
      XZZZ       0.0003   YZZZ      -0.0002   ZZZZ     -91.5252
 -----------------------------------------------------------------
 Total job time:  9.38s(wall), 9.09s(cpu) 
 Thu Jul  4 19:05:13 2013

        *************************************************************
        *                                                           *
        *  Thank you very much for using Q-Chem.  Have a nice day.  *
        *                                                           *
        *************************************************************


0 sent ACK to 0 
now end server 0 ... 
 
**********************************************************************
Job 2 of 3 
**********************************************************************
 
Process 0 of 1 is on cl224.stfx.acenet.ca - thread support 1
initial socket setup ...start
initial socket setup ...done 
now start server 0 ... 

cmd = /usr/bin/ssh clhead /usr/local/qchem/bin/get_hostid 66518433 > /scratch/tmp/6061478.1.long.q/qchem29859/lic.dat
                  Welcome to Q-Chem
     A Quantum Leap Into The Future Of Chemistry

 Y. Shao, L. Fusti-Molnar, Y. Jung, J. Kussmann, C. Ochsenfeld,
 S. T. Brown, A. T. B. Gilbert, L. V. Slipchenko,S. V. Levchenko,
 D. P. O'Neill, R. A. DiStasio Jr., R. C. Lochan, T. Wang,
 G. J. O. Beran, N. A. Besley, J. M. Herbert, C. Y. Lin,
 T. Van Voorhis, S. H. Chien, A. Sodt, R. P. Steele, 
 V. A. Rassolov, P. E. Maslen, P. P. Korambath, R. D. Adamson,
 B. Austin, J. Baker, E. F. C. Byrd, H. Dachsel, R. J. Doerksen,
 A. Dreuw, B. D. Dunietz, A. D. Dutoi, T. R. Furlani,
 S. R. Gwaltney, A. Heyden, S. Hirata, C.-P. Hsu, G. Kedziora,
 R. Z. Khaliullin, P. Klunzinger, A. M. Lee, M. S. Lee, W. Liang,
 I. Lotan, N. Nair, B. Peters, E. I. Proynov, P. A. Pieniazek, 
 Y. M. Rhee, J. Ritchie, E. Rosta, C. D. Sherrill, 
 A. C. Simmonett, J. E. Subotnik, H. L. Woodcock III,
 W. Zhang, A. T. Bell, A. K. Chakraborty, D. M. Chipman,
 F. J. Keil, A. Warshel, W. J. Hehre, H. F. Schaefer III,
 J. Kong, A. I. Krylov, P. M. W. Gill, M. Head-Gordon,
 Q-Chem, Version 3.1, Q-Chem, Inc., Pittsburgh, PA (2007).

 Additional authors for Version 3.1: 
 Z. Gan, Y. Zhao, N. E. Schultz, D. Truhlar, E. Epifanovsky and M. Oana.

 Additional authors for Version 3.2: 
 R. Baer, B. R. Brooks, D. Casanova, J.-D. Chai, C.-L. Cheng, 
 C. Cramer, D. Crittenden, A. Ghysels, G. Hawkins, E. G. Hohenstein, 
 C. Kelley, W. Kurlancheek, D. Liotard, E. Livshits, P. Manohar, 
 A. Marenich, D. Neuhauser, R. Olson, M. A. Rohrdanz, K. S. Thanthiriwatte, 
 A. J. W. Thom, V. Vanovschi, C. F. Williams, Q. Wu and Z.-Q. You. 


 Intel X86 Linux Version

 Q-chem begins on Thu Jul  4 19:05:16 2013  

 Parallel job on  1  processors
Processing $rem in /usr/local/qchem/config/preferences.

theFileMan(): MAXOPENFILES=974 MAX_SUB_FILE_NUM=16
Maximum size of a physical file is 2.0 GB, maximum size of a tmp-file is 32.0 GB


--------------------------------------------------------------
User input:
--------------------------------------------------------------

$molecule
0,2
C
N,1,R

R=1.17392061

$end

$comment
neutral
$end

$xc_functional
C PBE   1.00
X wPBE  1.00
$end


$rem
SYMMETRY_DECOMPOSITION	0
LRC_DFT                 true
exchange 		general
BASIS                   g3large
omega			2030
mem_static              760
max_scf_cycles          200
scf_final_print         1
sym_ignore              true
$end

--------------------------------------------------------------
 Writing REM_CC_EA            2
 ----------------------------------------------------
       Standard Nuclear Orientation (Angstroms)
    I     Atom         X            Y            Z
 ----------------------------------------------------
    1      C       0.000000     0.000000     0.000000
    2      N       0.000000     0.000000     1.173921
 ----------------------------------------------------
 Nuclear Repulsion Energy =    18.9326626215 hartrees
 There are        7 alpha and        6 beta electrons
 Requested basis set is G3large
 There are 20 shells and 84 basis functions

Total QAlloc Memory Limit   2000 MB
Mega-Array Size       743 MB
MEM_STATIC part       760 MB

                       Distance Matrix (Angstroms)
             C (  1)
   N (  2)  1.173921
 
 A cutoff of  1.0D-08 yielded    206 shell pairs
 There are   3662 function pairs (  4809 Cartesian)
Evaluating contribution to one-electron hamiltonian from nuclear
 Smallest overlap matrix eigenvalue = 1.01E-03
 Multipole matrices computed through 2nd order

  Scale SEOQF with 1.000000e-01/1.000000e-01/1.000000e-01

 Standard Electronic Orientation quadrupole field applied
 Nucleus-field energy     =    -0.0000000010 hartrees
 Guess from superposition of atomic densities
 Warning:  Energy on first SCF cycle will be non-variational
 Long-range K will be added via erf
 Coulomb attenuation parameter = 2.03 bohr**(-1)
 An unrestricted Kohn-Sham SCF calculation will be
 performed using Pulay DIIS extrapolation
 Exchange:  wPBE + LR-HF      Correlation:  PBE
 Using SG-1 standard quadrature grid
 SCF converges when DIIS error is below 1.0E-05
 Requested basis set is G3large
 There are 20 shells and 84 basis functions
 A cutoff of  1.0D-08 yielded    206 shell pairs
 There are   3662 function pairs (  4809 Cartesian)
 ---------------------------------------
  Cycle       Energy         DIIS Error
 ---------------------------------------
    1     -92.7125535925      4.64E-02
    2     -92.5594800431      5.32E-03
    3     -92.5782266323      5.35E-03
    4     -92.6050434029      1.05E-03
    5     -92.6096005516      6.48E-04
    6     -92.6133760090      4.48E-04
    7     -92.6167267085      2.62E-04
    8     -92.6191251800      1.65E-04
    9     -92.6211629551      6.64E-05
   10     -92.6216174293      3.74E-05
   11     -92.6222826897      5.52E-05
   12     -92.6225564224      3.67E-05
   13     -92.6231795866      3.45E-05
   14     -92.6231815018      2.38E-05
   15     -92.6231858540      4.84E-06 Convergence criterion met
 ---------------------------------------
 One-Electron    Energy =  -162.0115879941
 Total Coulomb   Energy =    62.5471009000
 Alpha Exchange  Energy =    -3.8496870041
 Beta  Exchange  Energy =    -3.4892136529
 DFT   Exchange  Energy =    -4.3567976857
 DFT Correlation Energy =    -0.3956630376
 Nuclear Repu.   Energy =    18.9326626205
 Nuclear Attr.   Energy =  -254.0954844358
 Kinetic         Energy =    92.0838964417
 <S^2> = 0.9509
 SCF time:  CPU 17.23 s  wall 17.97 s
 Final Alpha MO Eigenvalues
            1           2           3           4           5           6
    1 -15.0128929 -10.9529588  -1.2849195  -0.7636261  -0.6119426  -0.5550101
            7           8           9          10          11          12
    1  -0.5550003   0.0716090   0.0878566   0.0878699   0.0968119   0.1315007
 Final Beta MO Eigenvalues
            1           2           3           4           5           6
    1 -15.0242564 -10.9208059  -1.2767472  -0.6473492  -0.5655396  -0.5655061
            7           8           9          10          11
    1  -0.0895327   0.0877101   0.0877122   0.0898771   0.1046537
 Analysis of SCF Wavefunction
 
 --------------------------------------------------------------
                    Orbital Energies (a.u.)
 --------------------------------------------------------------
 
 Alpha MOs
 -- Occupied --
-15.013 -10.953  -1.285  -0.764  -0.612  -0.555  -0.555
 -- Virtual --
  0.072   0.088   0.088   0.097   0.132   0.132   0.210   0.262
  0.262   0.318   0.442   0.642   0.642   0.724   0.739   0.739
  0.876   0.926   0.926   0.965   1.063   1.063   1.312   1.348
  1.348   1.550   1.745   1.745   2.124   2.929   2.929   2.952
  2.976   2.976   3.053   3.053   3.240   3.240   3.446   3.446
  3.521   3.611   3.611   3.939   3.939   4.075   4.188   4.188
  4.382   4.548   4.548   5.165   5.165   5.357   5.357   5.823
  5.920   5.920   6.340  24.746  27.793  27.793  28.474  36.379
 38.065  38.065  38.805  41.105  41.187  41.188  41.259  41.259
 41.440  41.632  41.793  41.793  41.956
 
 Beta MOs
 -- Occupied --
-15.024 -10.921  -1.277  -0.647  -0.566  -0.566
 -- Virtual --
 -0.090   0.088   0.088   0.090   0.105   0.172   0.172   0.214
  0.252   0.252   0.326   0.475   0.684   0.684   0.771   0.771
  0.792   0.903   0.943   0.943   1.004   1.048   1.048   1.309
  1.323   1.323   1.576   1.747   1.747   2.134   2.970   2.970
  2.994   3.001   3.001   3.068   3.068   3.291   3.291   3.502
  3.502   3.572   3.624   3.624   3.917   3.917   4.102   4.162
  4.162   4.387   4.544   4.544   5.117   5.117   5.347   5.347
  5.832   5.923   5.923   6.354  24.773  27.811  27.811  28.496
 36.368  38.053  38.053  38.805  41.083  41.166  41.193  41.253
 41.253  41.458  41.648  41.812  41.812  41.973
 --------------------------------------------------------------
 
          Ground-State Mulliken Net Atomic Charges

     Atom                 Charge (a.u.)    Spin (a.u.)
  --------------------------------------------------------
      1 C                     0.094059       1.588961
      2 N                    -0.094059      -0.588961
  --------------------------------------------------------
  Sum of atomic charges =     0.000000
  Sum of spin   charges =     1.000000

 -----------------------------------------------------------------
                    Cartesian Multipole Moments
 -----------------------------------------------------------------
    Charge (ESU x 10^10)
                 0.0000
    Dipole Moment (Debye)
         X      -0.0009      Y       0.0008      Z      -2.2388
       Tot       2.2388
    Quadrupole Moments (Debye-Ang)
        XX     -10.9422     XY       0.0000     YY     -10.9422
        XZ       0.0000     YZ       0.0000     ZZ     -12.8384
    Octapole Moments (Debye-Ang^2)
       XXX      -0.0012    XXY       0.0003    XYY      -0.0004
       YYY       0.0010    XXZ      -6.9618    XYZ      -0.0001
       YYZ      -6.9618    XZZ      -0.0007    YZZ       0.0006
       ZZZ     -23.7771
    Hexadecapole Moments (Debye-Ang^3)
      XXXX     -10.7993   XXXY       0.0000   XXYY      -3.5998
      XYYY       0.0000   YYYY     -10.7993   XXXZ      -0.0001
      XXYZ       0.0000   XYYZ       0.0000   YYYZ       0.0001
      XXZZ     -11.3673   XYZZ      -0.0001   YYZZ     -11.3673
      XZZZ      -0.0008   YZZZ       0.0006   ZZZZ     -63.4351
 -----------------------------------------------------------------
 Total job time:  18.05s(wall), 17.32s(cpu) 
 Thu Jul  4 19:05:34 2013

        *************************************************************
        *                                                           *
        *  Thank you very much for using Q-Chem.  Have a nice day.  *
        *                                                           *
        *************************************************************


0 sent ACK to 0 
now end server 0 ... 
 
**********************************************************************
Job 3 of 3 
**********************************************************************
 
Process 0 of 1 is on cl224.stfx.acenet.ca - thread support 1
initial socket setup ...start
initial socket setup ...done 
now start server 0 ... 

cmd = /usr/bin/ssh clhead /usr/local/qchem/bin/get_hostid 114576516 > /scratch/tmp/6061478.1.long.q/qchem29859/lic.dat
                  Welcome to Q-Chem
     A Quantum Leap Into The Future Of Chemistry

 Y. Shao, L. Fusti-Molnar, Y. Jung, J. Kussmann, C. Ochsenfeld,
 S. T. Brown, A. T. B. Gilbert, L. V. Slipchenko,S. V. Levchenko,
 D. P. O'Neill, R. A. DiStasio Jr., R. C. Lochan, T. Wang,
 G. J. O. Beran, N. A. Besley, J. M. Herbert, C. Y. Lin,
 T. Van Voorhis, S. H. Chien, A. Sodt, R. P. Steele, 
 V. A. Rassolov, P. E. Maslen, P. P. Korambath, R. D. Adamson,
 B. Austin, J. Baker, E. F. C. Byrd, H. Dachsel, R. J. Doerksen,
 A. Dreuw, B. D. Dunietz, A. D. Dutoi, T. R. Furlani,
 S. R. Gwaltney, A. Heyden, S. Hirata, C.-P. Hsu, G. Kedziora,
 R. Z. Khaliullin, P. Klunzinger, A. M. Lee, M. S. Lee, W. Liang,
 I. Lotan, N. Nair, B. Peters, E. I. Proynov, P. A. Pieniazek, 
 Y. M. Rhee, J. Ritchie, E. Rosta, C. D. Sherrill, 
 A. C. Simmonett, J. E. Subotnik, H. L. Woodcock III,
 W. Zhang, A. T. Bell, A. K. Chakraborty, D. M. Chipman,
 F. J. Keil, A. Warshel, W. J. Hehre, H. F. Schaefer III,
 J. Kong, A. I. Krylov, P. M. W. Gill, M. Head-Gordon,
 Q-Chem, Version 3.1, Q-Chem, Inc., Pittsburgh, PA (2007).

 Additional authors for Version 3.1: 
 Z. Gan, Y. Zhao, N. E. Schultz, D. Truhlar, E. Epifanovsky and M. Oana.

 Additional authors for Version 3.2: 
 R. Baer, B. R. Brooks, D. Casanova, J.-D. Chai, C.-L. Cheng, 
 C. Cramer, D. Crittenden, A. Ghysels, G. Hawkins, E. G. Hohenstein, 
 C. Kelley, W. Kurlancheek, D. Liotard, E. Livshits, P. Manohar, 
 A. Marenich, D. Neuhauser, R. Olson, M. A. Rohrdanz, K. S. Thanthiriwatte, 
 A. J. W. Thom, V. Vanovschi, C. F. Williams, Q. Wu and Z.-Q. You. 


 Intel X86 Linux Version

 Q-chem begins on Thu Jul  4 19:05:36 2013  

 Parallel job on  1  processors
Processing $rem in /usr/local/qchem/config/preferences.

theFileMan(): MAXOPENFILES=974 MAX_SUB_FILE_NUM=16
Maximum size of a physical file is 2.0 GB, maximum size of a tmp-file is 32.0 GB


--------------------------------------------------------------
User input:
--------------------------------------------------------------

$molecule
1,1
C
N,1,R

R=1.17392061

$end

$comment
positive
$end

$xc_functional
C PBE   1.00
X wPBE  1.00
$end

$rem
SYMMETRY_DECOMPOSITION	0
LRC_DFT                 true
exchange 		general
BASIS                   g3large
omega			2030
mem_static              760
max_scf_cycles          200
scf_final_print         1
sym_ignore              true
$end

--------------------------------------------------------------
 Writing REM_CC_EA            2
 ----------------------------------------------------
       Standard Nuclear Orientation (Angstroms)
    I     Atom         X            Y            Z
 ----------------------------------------------------
    1      C       0.000000     0.000000     0.000000
    2      N       0.000000     0.000000     1.173921
 ----------------------------------------------------
 Nuclear Repulsion Energy =    18.9326626215 hartrees
 There are        6 alpha and        6 beta electrons
 Requested basis set is G3large
 There are 20 shells and 84 basis functions

Total QAlloc Memory Limit   2000 MB
Mega-Array Size       743 MB
MEM_STATIC part       760 MB

                       Distance Matrix (Angstroms)
             C (  1)
   N (  2)  1.173921
 
 A cutoff of  1.0D-08 yielded    206 shell pairs
 There are   3662 function pairs (  4809 Cartesian)
Evaluating contribution to one-electron hamiltonian from nuclear
 Smallest overlap matrix eigenvalue = 1.01E-03
 Multipole matrices computed through 2nd order

  Scale SEOQF with 1.000000e-01/1.000000e-01/1.000000e-01

 Standard Electronic Orientation quadrupole field applied
 Nucleus-field energy     =    -0.0000000010 hartrees
 Guess from superposition of atomic densities
 Warning:  Energy on first SCF cycle will be non-variational
 Long-range K will be added via erf
 Coulomb attenuation parameter = 2.03 bohr**(-1)
 A restricted Kohn-Sham SCF calculation will be
 performed using Pulay DIIS extrapolation
 Exchange:  wPBE + LR-HF      Correlation:  PBE
 Using SG-1 standard quadrature grid
 SCF converges when DIIS error is below 1.0E-05
 Requested basis set is G3large
 There are 20 shells and 84 basis functions
 A cutoff of  1.0D-08 yielded    206 shell pairs
 There are   3662 function pairs (  4809 Cartesian)
 Warning!  Inaccurate integrated density:
   Number of electrons =    12
   Numerical integral  =    12.999997383438
   Relative error      =     8.3333115287 %
 ---------------------------------------
  Cycle       Energy         DIIS Error
 ---------------------------------------
    1     -92.7125535925      4.64E-02
    2     -91.9066519013      8.99E-03
    3     -91.9367800104      9.23E-03
    4     -91.9968339530      3.09E-03
    5     -92.0044659422      5.83E-04
    6     -92.0059587945      4.13E-04
    7     -92.0072364735      1.52E-04
    8     -92.0074263444      8.24E-05
    9     -92.0074829408      5.03E-05
   10     -92.0075235672      3.61E-05
   11     -92.0075350949      3.67E-05
   12     -92.0075127094      3.34E-05
   13     -92.0074176418      2.83E-05
   14     -92.0074159094      1.64E-05
   15     -92.0074153135      1.53E-06 Convergence criterion met
 ---------------------------------------
 One-Electron    Energy =  -156.4419693363
 Total Coulomb   Energy =    57.0626497738
 Alpha Exchange  Energy =    -3.4346742302
 Beta  Exchange  Energy =    -3.4346742302
 DFT   Exchange  Energy =    -4.3182486503
 DFT Correlation Energy =    -0.3731612607
 Nuclear Repu.   Energy =    18.9326626205
 Nuclear Attr.   Energy =  -247.9676898766
 Kinetic         Energy =    91.5257205402
 SCF time:  CPU 14.35 s  wall 15.63 s
 Final Alpha MO Eigenvalues
            1           2           3           4           5           6
    1 -15.4873484 -11.4435683  -1.6878469  -1.0220727  -0.9508042  -0.9507901
            7           8           9          10          11
    1  -0.5603431  -0.2372759  -0.2372734  -0.1072879  -0.0808592
 Analysis of SCF Wavefunction
 
 --------------------------------------------------------------
                    Orbital Energies (a.u.)
 --------------------------------------------------------------
 
 Alpha MOs
 -- Occupied --
-15.487 -11.444  -1.688  -1.022  -0.951  -0.951
 -- Virtual --
 -0.560  -0.237  -0.237  -0.107  -0.081  -0.069  -0.069   0.011
  0.042   0.042   0.104   0.194   0.356   0.356   0.428   0.428
  0.436   0.573   0.622   0.622   0.660   0.715   0.715   0.986
  0.994   0.994   1.192   1.394   1.394   1.763   2.538   2.538
  2.567   2.609   2.609   2.666   2.666   2.837   2.837   3.055
  3.055   3.113   3.200   3.200   3.553   3.553   3.650   3.773
  3.773   3.976   4.149   4.149   4.732   4.732   4.930   4.930
  5.387   5.492   5.492   5.889  24.263  27.303  27.303  27.971
 35.910  37.596  37.596  38.327  40.635  40.699  40.719  40.781
 40.781  40.947  41.139  41.291  41.291  41.456
 --------------------------------------------------------------
 
          Ground-State Mulliken Net Atomic Charges

     Atom                 Charge (a.u.)
  ----------------------------------------
      1 C                     0.629703
      2 N                     0.370297
  ----------------------------------------
  Sum of atomic charges =     1.000000

 -----------------------------------------------------------------
                    Cartesian Multipole Moments
 -----------------------------------------------------------------
    Charge (ESU x 10^10)
                 4.8032
    Dipole Moment (Debye)
         X      -0.0001      Y       0.0002      Z       0.0921
       Tot       0.0921
    Quadrupole Moments (Debye-Ang)
        XX      -8.9923     XY       0.0000     YY      -8.9924
        XZ       0.0000     YZ       0.0000     ZZ      -5.0432
    Octapole Moments (Debye-Ang^2)
       XXX       0.0000    XXY       0.0001    XYY       0.0000
       YYY       0.0002    XXZ      -5.9220    XYZ       0.0000
       YYZ      -5.9219    XZZ      -0.0001    YZZ       0.0003
       ZZZ     -12.3613
    Hexadecapole Moments (Debye-Ang^3)
      XXXX      -7.4176   XXXY       0.0000   XXYY      -2.4725
      XYYY       0.0000   YYYY      -7.4177   XXXZ       0.0000
      XXYZ       0.0000   XYYZ       0.0000   YYYZ       0.0000
      XXZZ      -8.4166   XYZZ       0.0000   YYZZ      -8.4164
      XZZZ      -0.0001   YZZZ       0.0004   ZZZZ     -36.1322
 -----------------------------------------------------------------
 Total job time:  15.72s(wall), 14.44s(cpu) 
 Thu Jul  4 19:05:52 2013

        *************************************************************
        *                                                           *
        *  Thank you very much for using Q-Chem.  Have a nice day.  *
        *                                                           *
        *************************************************************


0 sent ACK to 0 
now end server 0 ... 
