Process 0 of 1 is on cl184.stfx.acenet.ca - thread support 1
initial socket setup ...start
initial socket setup ...done 
now start server 0 ... 

cmd = /usr/bin/ssh clhead /usr/local/qchem/bin/get_hostid 425198994 > /scratch/tmp/4825349.1.medium.q/qchem6767/lic.dat
                  Welcome to Q-Chem
     A Quantum Leap Into The Future Of Chemistry

 Y. Shao, L. Fusti-Molnar, Y. Jung, J. Kussmann, C. Ochsenfeld,
 S. T. Brown, A. T. B. Gilbert, L. V. Slipchenko,S. V. Levchenko,
 D. P. O'Neill, R. A. DiStasio Jr., R. C. Lochan, T. Wang,
 G. J. O. Beran, N. A. Besley, J. M. Herbert, C. Y. Lin,
 T. Van Voorhis, S. H. Chien, A. Sodt, R. P. Steele, 
 V. A. Rassolov, P. E. Maslen, P. P. Korambath, R. D. Adamson,
 B. Austin, J. Baker, E. F. C. Byrd, H. Dachsel, R. J. Doerksen,
 A. Dreuw, B. D. Dunietz, A. D. Dutoi, T. R. Furlani,
 S. R. Gwaltney, A. Heyden, S. Hirata, C.-P. Hsu, G. Kedziora,
 R. Z. Khaliullin, P. Klunzinger, A. M. Lee, M. S. Lee, W. Liang,
 I. Lotan, N. Nair, B. Peters, E. I. Proynov, P. A. Pieniazek, 
 Y. M. Rhee, J. Ritchie, E. Rosta, C. D. Sherrill, 
 A. C. Simmonett, J. E. Subotnik, H. L. Woodcock III,
 W. Zhang, A. T. Bell, A. K. Chakraborty, D. M. Chipman,
 F. J. Keil, A. Warshel, W. J. Hehre, H. F. Schaefer III,
 J. Kong, A. I. Krylov, P. M. W. Gill, M. Head-Gordon,
 Q-Chem, Version 3.1, Q-Chem, Inc., Pittsburgh, PA (2007).

 Additional authors for Version 3.1: 
 Z. Gan, Y. Zhao, N. E. Schultz, D. Truhlar, E. Epifanovsky and M. Oana.

 Additional authors for Version 3.2: 
 R. Baer, B. R. Brooks, D. Casanova, J.-D. Chai, C.-L. Cheng, 
 C. Cramer, D. Crittenden, A. Ghysels, G. Hawkins, E. G. Hohenstein, 
 C. Kelley, W. Kurlancheek, D. Liotard, E. Livshits, P. Manohar, 
 A. Marenich, D. Neuhauser, R. Olson, M. A. Rohrdanz, K. S. Thanthiriwatte, 
 A. J. W. Thom, V. Vanovschi, C. F. Williams, Q. Wu and Z.-Q. You. 


 Intel X86 Linux Version

 Q-chem begins on Mon Nov 14 15:13:37 2011  

 Parallel job on  1  processors
Processing $rem in /usr/local/qchem/config/preferences.

theFileMan(): MAXOPENFILES=974 MAX_SUB_FILE_NUM=16
Maximum size of a physical file is 2.0 GB, maximum size of a tmp-file is 32.0 GB


--------------------------------------------------------------
User input:
--------------------------------------------------------------

$molecule
-1,1
C
C,1,CC
O,2,CO,1,OCC
X,3,0.97,2,107.,1,180.,0
X,2,1.,1,XCC,3,180.,0
H,2,CH,5,A1,1,90.,0
H,2,CH,5,A1,1,-90.,0
H,1,CH3,2,H3CC,3,180.,0
X,1,1.,2,YCC,3,0.,0
H,1,CH4,9,A2,2,90.,0
H,1,CH4,9,A2,2,-90.,0

CC=1.55380371
CO=1.3708761
OCC=106.53444686
XCC=122.81869313
CH=1.10383091
A1=54.76163191
CH3=1.09470615
H3CC=108.59935331
YCC=126.7607798
CH4=1.09293226
A2=54.53735592

$end

$comment
negative
$end

$xc_functional
   X HF 1.0
   X BNL 1.0
   C LYP 1.0
$end

$rem
SYMMETRY_DECOMPOSITION	0
exchange 		general
BASIS                   g3large
omega			700
separate_jk		true
mem_static              760
max_scf_cycles          200
scf_final_print         1
sym_ignore              true
$end

--------------------------------------------------------------
 Writing REM_CC_EA            8
 ----------------------------------------------------
       Standard Nuclear Orientation (Angstroms)
    I     Atom         X            Y            Z
 ----------------------------------------------------
    1      C       0.000000     0.000000     0.000000
    2      C       0.000000     0.000000     1.553804
    3      O       1.314189     0.000000     1.943944
    4      H      -0.535234     0.901564     1.898986
    5      H      -0.535234    -0.901564     1.898986
    6      H      -1.037532     0.000000    -0.349155
    7      H       0.507995     0.890187    -0.379486
    8      H       0.507995    -0.890187    -0.379486
 ----------------------------------------------------
 Nuclear Repulsion Energy =    74.3897211119 hartrees
 There are       13 alpha and       13 beta electrons
 Requested basis set is G3large
 There are 60 shells and 176 basis functions

Total QAlloc Memory Limit   2000 MB
Mega-Array Size       743 MB
MEM_STATIC part       760 MB

                       Distance Matrix (Angstroms)
             C (  1)   C (  2)   O (  3)   H (  4)   H (  5)   H (  6)
   C (  2)  1.553804
   O (  3)  2.346489  1.370876
   H (  4)  2.169202  1.103831  2.057961
   H (  5)  2.169202  1.103831  2.057961  1.803127
   H (  6)  1.094706  2.167423  3.284645  2.473713  2.473713
   H (  7)  1.092932  2.188173  2.615475  2.505971  3.080605  1.783817
   H (  8)  1.092932  2.188173  2.615475  3.080605  2.505971  1.783817
             H (  7)
   H (  8)  1.780373
 
 A cutoff of  1.0D-08 yielded   1760 shell pairs
 There are  15158 function pairs ( 18470 Cartesian)
Evaluating contribution to one-electron hamiltonian from nuclear
 Smallest overlap matrix eigenvalue = 1.37E-04
 Multipole matrices computed through 2nd order

  Scale SEOQF with 1.000000e-01/1.000000e-01/1.000000e-01

 Standard Electronic Orientation quadrupole field applied
 Nucleus-field energy     =    -0.0000000048 hartrees
 Guess from superposition of atomic densities
 Warning:  Energy on first SCF cycle will be non-variational
 A restricted hybrid HF-DFT SCF calculation will be
 performed using Pulay DIIS extrapolation
 Exchange:     1.0000 Hartree-Fock + 1.0000 BNL
 Correlation:  1.0000 LYP
 Using SG-1 standard quadrature grid
 SCF converges when DIIS error is below 1.0E-05
 Warning!  Inaccurate integrated density:
   Number of electrons =    26
   Numerical integral  =    24.999848811569
   Relative error      =    -3.8467353401 %
 ---------------------------------------
  Cycle       Energy         DIIS Error
 ---------------------------------------
    1    -153.4907648743      3.19E-02
    2    -152.9001574897      7.01E-03
    3    -152.8539234395      8.66E-03
    4    -153.0769263955      7.68E-04
    5    -153.0794640923      2.79E-04
    6    -153.0798758522      6.59E-05
    7    -153.0799206958      1.73E-05
    8    -153.0799262051      6.08E-06 Convergence criterion met
 ---------------------------------------
 One-Electron    Energy =  -363.0382639128
 Total Coulomb   Energy =   155.6443808792
 Alpha Exchange  Energy =    -3.8781426140
 Beta  Exchange  Energy =    -3.8781426140
 DFT   Exchange  Energy =   -11.4660125697
 DFT Correlation Energy =    -0.8534664809
 Nuclear Repu.   Energy =    74.3897211070
 Nuclear Attr.   Energy =  -515.2253777713
 Kinetic         Energy =   152.1871138586
 SCF time:  CPU 62.33 s  wall 79.84 s
 Final Alpha MO Eigenvalues
            1           2           3           4           5           6
    1 -18.5763354  -9.9548217  -9.9336467  -0.9029634  -0.7287478  -0.5640438
            7           8           9          10          11          12
    1  -0.4185256  -0.3803354  -0.3296982  -0.3140520  -0.2601349  -0.1131284
           13          14          15          16          17          18
    1  -0.1093199   0.1538021   0.1709399   0.1767648   0.1864025   0.2098808
 Analysis of SCF Wavefunction
 
 --------------------------------------------------------------
                    Orbital Energies (a.u.)
 --------------------------------------------------------------
 
 Alpha MOs
 -- Occupied --
-18.576  -9.955  -9.934  -0.903  -0.729  -0.564  -0.419  -0.380
 -0.330  -0.314  -0.260  -0.113  -0.109
 -- Virtual --
  0.154   0.171   0.177   0.186   0.210   0.262   0.267   0.280
  0.290   0.309   0.324   0.334   0.337   0.421   0.430   0.460
  0.474   0.492   0.528   0.536   0.559   0.573   0.613   0.675
  0.712   0.729   0.765   0.779   0.847   0.863   0.877   0.893
  0.900   0.937   0.946   0.957   0.976   1.057   1.130   1.160
  1.193   1.289   1.320   1.384   1.393   1.399   1.460   1.478
  1.478   1.513   1.523   1.568   1.578   1.633   1.676   1.688
  1.697   1.752   1.774   1.803   1.822   1.852   1.855   1.891
  1.946   2.172   2.184   2.233   2.449   2.564   2.803   2.814
  2.888   2.959   3.020   3.025   3.217   3.230   3.235   3.333
  3.379   3.472   3.475   3.493   3.578   3.626   3.660   3.687
  3.714   3.779   3.820   3.910   3.938   3.974   3.977   4.007
  4.088   4.127   4.249   4.292   4.365   4.383   4.408   4.448
  4.503   4.599   4.626   4.636   4.701   4.723   4.841   4.846
  4.909   4.934   4.962   5.052   5.529   5.545   5.587   5.646
  5.682   5.762   5.808   5.887   5.952   6.015   6.049   6.098
  6.438   6.444   7.053   7.421   7.437   7.832   7.840   8.120
 24.723  24.889  28.015  28.471  28.513  28.560  28.600  28.813
 41.318  41.342  41.365  41.415  41.595  41.613  41.636  41.645
 41.669  41.695  44.216  44.284  44.359  44.404  44.445  46.311
 46.330  46.853  50.643
 --------------------------------------------------------------
 
          Ground-State Mulliken Net Atomic Charges

     Atom                 Charge (a.u.)
  ----------------------------------------
      1 C                    -0.152236
      2 C                    -0.071919
      3 O                    -0.827550
      4 H                    -0.021254
      5 H                    -0.020778
      6 H                    -0.026882
      7 H                     0.060383
      8 H                     0.060236
  ----------------------------------------
  Sum of atomic charges =    -1.000000

 -----------------------------------------------------------------
                    Cartesian Multipole Moments
 -----------------------------------------------------------------
    Charge (ESU x 10^10)
                -4.8032
    Dipole Moment (Debye)
         X      -5.4364      Y      -0.0004      Z      -8.3378
       Tot       9.9536
    Quadrupole Moments (Debye-Ang)
        XX     -33.3530     XY       0.0040     YY     -23.4543
        XZ     -11.9540     YZ      -0.0010     ZZ     -41.7803
    Octapole Moments (Debye-Ang^2)
       XXX     -37.7132    XXY      -0.0003    XYY      -8.3658
       YYY      -0.0034    XXZ     -44.7406    XYZ       0.0069
       YYZ     -26.4616    XZZ     -32.6015    YZZ      -0.0023
       ZZZ    -114.0696
    Hexadecapole Moments (Debye-Ang^3)
      XXXX    -140.4758   XXXY       0.0175   XXYY     -30.7542
      XYYY       0.0189   YYYY     -46.9243   XXXZ     -73.5082
      XXYZ      -0.0009   XYYZ     -18.2267   YYYZ      -0.0076
      XXZZ    -113.1346   XYZZ       0.0178   YYZZ     -63.7858
      XZZZ    -102.4159   YZZZ      -0.0063   ZZZZ    -406.4847
 -----------------------------------------------------------------
 Total job time:  80.55s(wall), 62.52s(cpu) 
 Mon Nov 14 15:14:58 2011

        *************************************************************
        *                                                           *
        *  Thank you very much for using Q-Chem.  Have a nice day.  *
        *                                                           *
        *************************************************************


0 sent ACK to 0 
now end server 0 ... 
 
**********************************************************************
Job 2 of 3 
**********************************************************************
 
Process 0 of 1 is on cl184.stfx.acenet.ca - thread support 1
initial socket setup ...start
initial socket setup ...done 
now start server 0 ... 

cmd = /usr/bin/ssh clhead /usr/local/qchem/bin/get_hostid 944603122 > /scratch/tmp/4825349.1.medium.q/qchem6767/lic.dat
                  Welcome to Q-Chem
     A Quantum Leap Into The Future Of Chemistry

 Y. Shao, L. Fusti-Molnar, Y. Jung, J. Kussmann, C. Ochsenfeld,
 S. T. Brown, A. T. B. Gilbert, L. V. Slipchenko,S. V. Levchenko,
 D. P. O'Neill, R. A. DiStasio Jr., R. C. Lochan, T. Wang,
 G. J. O. Beran, N. A. Besley, J. M. Herbert, C. Y. Lin,
 T. Van Voorhis, S. H. Chien, A. Sodt, R. P. Steele, 
 V. A. Rassolov, P. E. Maslen, P. P. Korambath, R. D. Adamson,
 B. Austin, J. Baker, E. F. C. Byrd, H. Dachsel, R. J. Doerksen,
 A. Dreuw, B. D. Dunietz, A. D. Dutoi, T. R. Furlani,
 S. R. Gwaltney, A. Heyden, S. Hirata, C.-P. Hsu, G. Kedziora,
 R. Z. Khaliullin, P. Klunzinger, A. M. Lee, M. S. Lee, W. Liang,
 I. Lotan, N. Nair, B. Peters, E. I. Proynov, P. A. Pieniazek, 
 Y. M. Rhee, J. Ritchie, E. Rosta, C. D. Sherrill, 
 A. C. Simmonett, J. E. Subotnik, H. L. Woodcock III,
 W. Zhang, A. T. Bell, A. K. Chakraborty, D. M. Chipman,
 F. J. Keil, A. Warshel, W. J. Hehre, H. F. Schaefer III,
 J. Kong, A. I. Krylov, P. M. W. Gill, M. Head-Gordon,
 Q-Chem, Version 3.1, Q-Chem, Inc., Pittsburgh, PA (2007).

 Additional authors for Version 3.1: 
 Z. Gan, Y. Zhao, N. E. Schultz, D. Truhlar, E. Epifanovsky and M. Oana.

 Additional authors for Version 3.2: 
 R. Baer, B. R. Brooks, D. Casanova, J.-D. Chai, C.-L. Cheng, 
 C. Cramer, D. Crittenden, A. Ghysels, G. Hawkins, E. G. Hohenstein, 
 C. Kelley, W. Kurlancheek, D. Liotard, E. Livshits, P. Manohar, 
 A. Marenich, D. Neuhauser, R. Olson, M. A. Rohrdanz, K. S. Thanthiriwatte, 
 A. J. W. Thom, V. Vanovschi, C. F. Williams, Q. Wu and Z.-Q. You. 


 Intel X86 Linux Version

 Q-chem begins on Mon Nov 14 15:15:01 2011  

 Parallel job on  1  processors
Processing $rem in /usr/local/qchem/config/preferences.

theFileMan(): MAXOPENFILES=974 MAX_SUB_FILE_NUM=16
Maximum size of a physical file is 2.0 GB, maximum size of a tmp-file is 32.0 GB


--------------------------------------------------------------
User input:
--------------------------------------------------------------

$molecule
0,2
C
C,1,CC
O,2,CO,1,OCC
X,3,0.97,2,107.,1,180.,0
X,2,1.,1,XCC,3,180.,0
H,2,CH,5,A1,1,90.,0
H,2,CH,5,A1,1,-90.,0
H,1,CH3,2,H3CC,3,180.,0
X,1,1.,2,YCC,3,0.,0
H,1,CH4,9,A2,2,90.,0
H,1,CH4,9,A2,2,-90.,0

CC=1.55380371
CO=1.3708761
OCC=106.53444686
XCC=122.81869313
CH=1.10383091
A1=54.76163191
CH3=1.09470615
H3CC=108.59935331
YCC=126.7607798
CH4=1.09293226
A2=54.53735592

$end

$comment
neutral
$end

$xc_functional
   X HF 1.0
   X BNL 1.0
   C LYP 1.0
$end

$rem
SYMMETRY_DECOMPOSITION	0
exchange 		general
BASIS                   g3large
omega			700
separate_jk		true
mem_static              760
max_scf_cycles          200
scf_final_print         1
sym_ignore              true
$end

--------------------------------------------------------------
 Writing REM_CC_EA            8
 ----------------------------------------------------
       Standard Nuclear Orientation (Angstroms)
    I     Atom         X            Y            Z
 ----------------------------------------------------
    1      C       0.000000     0.000000     0.000000
    2      C       0.000000     0.000000     1.553804
    3      O       1.314189     0.000000     1.943944
    4      H      -0.535234     0.901564     1.898986
    5      H      -0.535234    -0.901564     1.898986
    6      H      -1.037532     0.000000    -0.349155
    7      H       0.507995     0.890187    -0.379486
    8      H       0.507995    -0.890187    -0.379486
 ----------------------------------------------------
 Nuclear Repulsion Energy =    74.3897211119 hartrees
 There are       13 alpha and       12 beta electrons
 Requested basis set is G3large
 There are 60 shells and 176 basis functions

Total QAlloc Memory Limit   2000 MB
Mega-Array Size       743 MB
MEM_STATIC part       760 MB

                       Distance Matrix (Angstroms)
             C (  1)   C (  2)   O (  3)   H (  4)   H (  5)   H (  6)
   C (  2)  1.553804
   O (  3)  2.346489  1.370876
   H (  4)  2.169202  1.103831  2.057961
   H (  5)  2.169202  1.103831  2.057961  1.803127
   H (  6)  1.094706  2.167423  3.284645  2.473713  2.473713
   H (  7)  1.092932  2.188173  2.615475  2.505971  3.080605  1.783817
   H (  8)  1.092932  2.188173  2.615475  3.080605  2.505971  1.783817
             H (  7)
   H (  8)  1.780373
 
 A cutoff of  1.0D-08 yielded   1760 shell pairs
 There are  15158 function pairs ( 18470 Cartesian)
Evaluating contribution to one-electron hamiltonian from nuclear
 Smallest overlap matrix eigenvalue = 1.37E-04
 Multipole matrices computed through 2nd order

  Scale SEOQF with 1.000000e-01/1.000000e-01/1.000000e-01

 Standard Electronic Orientation quadrupole field applied
 Nucleus-field energy     =    -0.0000000048 hartrees
 Guess from superposition of atomic densities
 Warning:  Energy on first SCF cycle will be non-variational
 An unrestricted hybrid HF-DFT SCF calculation will be
 performed using Pulay DIIS extrapolation
 Exchange:     1.0000 Hartree-Fock + 1.0000 BNL
 Correlation:  1.0000 LYP
 Using SG-1 standard quadrature grid
 SCF converges when DIIS error is below 1.0E-05
 ---------------------------------------
  Cycle       Energy         DIIS Error
 ---------------------------------------
    1    -153.4907648743      3.19E-02
    2    -152.9330419513      3.64E-03
    3    -152.9875873478      3.11E-03
    4    -153.0175183055      5.27E-04
    5    -153.0232036066      2.83E-04
    6    -153.0250234292      1.16E-04
    7    -153.0255185477      5.00E-05
    8    -153.0256259357      2.07E-05
    9    -153.0256556572      1.68E-05
   10    -153.0256778302      1.60E-05
   11    -153.0257082600      1.56E-05
   12    -153.0257324232      1.56E-05
   13    -153.0257428431      1.56E-05
   14    -153.0256844877      1.55E-05
   15    -153.0254183999      1.79E-05
   16    -153.0254321809      1.49E-05
   17    -153.0254436743      1.47E-05
   18    -153.0254535809      1.46E-05
   19    -153.0254535201      1.46E-05
   20    -153.0254540148      1.46E-05
   21    -153.0254667631      1.47E-05
   22    -153.0254231100      1.45E-05
   23    -153.0252842487      1.45E-05
   24    -153.0252727850      1.44E-05
   25    -153.0252846886      1.39E-05
   26    -153.0252961102      1.40E-05
   27    -153.0253023240      1.40E-05
   28    -153.0252853550      1.39E-05
   29    -153.0252056181      1.37E-05
   30    -153.0249822603      1.63E-05
   31    -153.0246416932      4.85E-05
   32    -153.0243235344      1.35E-04
   33    -153.0244612891      4.72E-05
   34    -153.0244805967      2.34E-05
   35    -153.0244874532      8.27E-06 Convergence criterion met
 ---------------------------------------
 One-Electron    Energy =  -356.1169345946
 Total Coulomb   Energy =   148.5090945156
 Alpha Exchange  Energy =    -3.9507311330
 Beta  Exchange  Energy =    -3.6174059048
 DFT   Exchange  Energy =   -11.4203966678
 DFT Correlation Energy =    -0.8178347758
 Nuclear Repu.   Energy =    74.3897211070
 Nuclear Attr.   Energy =  -508.2026429779
 Kinetic         Energy =   152.0857083834
 <S^2> = 0.7549
 SCF time:  CPU 305.00 s  wall 374.62 s
 Final Alpha MO Eigenvalues
            1           2           3           4           5           6
    1 -18.9941580 -10.2063714 -10.1360375  -1.2750784  -0.9645751  -0.8184560
            7           8           9          10          11          12
    1  -0.6938063  -0.6467496  -0.5978735  -0.5624358  -0.5459492  -0.4968427
           13          14          15          16          17          18
    1  -0.4507761   0.0330534   0.0514132   0.0549567   0.0668863   0.0886533
 Final Beta MO Eigenvalues
            1           2           3           4           5           6
    1 -18.9685934 -10.2075418 -10.1359718  -1.2129156  -0.9523134  -0.8042379
            7           8           9          10          11          12
    1  -0.6431042  -0.6269674  -0.5798802  -0.5409107  -0.5251745  -0.4294935
           13          14          15          16          17
    1  -0.0108222   0.0329063   0.0513032   0.0545849   0.0668144
 Analysis of SCF Wavefunction
 
 --------------------------------------------------------------
                    Orbital Energies (a.u.)
 --------------------------------------------------------------
 
 Alpha MOs
 -- Occupied --
-18.994 -10.206 -10.136  -1.275  -0.965  -0.818  -0.694  -0.647
 -0.598  -0.562  -0.546  -0.497  -0.451
 -- Virtual --
  0.033   0.051   0.055   0.067   0.089   0.111   0.121   0.135
  0.140   0.165   0.170   0.178   0.189   0.246   0.256   0.272
  0.282   0.309   0.322   0.339   0.342   0.367   0.393   0.446
  0.526   0.533   0.551   0.574   0.655   0.658   0.668   0.678
  0.685   0.703   0.717   0.757   0.781   0.847   0.915   0.919
  1.007   1.061   1.086   1.134   1.150   1.170   1.212   1.230
  1.249   1.292   1.295   1.307   1.308   1.400   1.422   1.453
  1.480   1.538   1.540   1.584   1.601   1.619   1.620   1.661
  1.747   1.854   1.870   1.891   2.152   2.233   2.496   2.574
  2.676   2.728   2.779   2.801   2.983   2.988   3.007   3.131
  3.145   3.228   3.243   3.265   3.360   3.405   3.410   3.452
  3.486   3.520   3.571   3.681   3.709   3.728   3.737   3.759
  3.822   3.899   4.008   4.059   4.137   4.168   4.184   4.206
  4.270   4.389   4.394   4.424   4.453   4.478   4.603   4.622
  4.685   4.710   4.740   4.820   5.112   5.198   5.213   5.239
  5.323   5.442   5.497   5.534   5.626   5.755   5.840   5.863
  6.064   6.103   6.702   6.983   7.001   7.402   7.463   7.733
 24.514  24.641  27.786  28.217  28.283  28.357  28.377  28.588
 41.079  41.115  41.145  41.193  41.344  41.383  41.407  41.421
 41.443  41.493  43.771  43.841  43.947  43.965  44.031  45.870
 45.924  46.447  50.226
 
 Beta MOs
 -- Occupied --
-18.969 -10.208 -10.136  -1.213  -0.952  -0.804  -0.643  -0.627
 -0.580  -0.541  -0.525  -0.429
 -- Virtual --
 -0.011   0.033   0.051   0.055   0.067   0.090   0.112   0.121
  0.140   0.141   0.165   0.170   0.178   0.189   0.247   0.260
  0.273   0.292   0.310   0.324   0.345   0.354   0.368   0.396
  0.450   0.528   0.534   0.561   0.576   0.656   0.660   0.671
  0.680   0.691   0.708   0.723   0.758   0.781   0.849   0.918
  0.922   1.007   1.064   1.093   1.140   1.160   1.173   1.220
  1.252   1.261   1.296   1.301   1.310   1.317   1.404   1.442
  1.455   1.483   1.541   1.548   1.588   1.603   1.622   1.629
  1.665   1.750   1.887   1.890   1.929   2.161   2.267   2.514
  2.579   2.678   2.731   2.784   2.803   2.985   2.989   3.009
  3.132   3.146   3.231   3.245   3.267   3.360   3.407   3.417
  3.455   3.487   3.521   3.576   3.682   3.711   3.729   3.739
  3.761   3.826   3.900   4.012   4.062   4.140   4.170   4.185
  4.210   4.273   4.395   4.396   4.425   4.461   4.483   4.608
  4.625   4.689   4.712   4.743   4.825   5.194   5.223   5.262
  5.291   5.359   5.479   5.512   5.552   5.650   5.768   5.841
  5.868   6.106   6.117   6.724   7.066   7.082   7.479   7.490
  7.772  24.514  24.640  27.786  28.216  28.282  28.357  28.377
 28.588  41.078  41.114  41.145  41.193  41.343  41.381  41.407
 41.420  41.443  41.493  43.838  43.905  43.978  44.024  44.064
 45.919  45.942  46.465  50.256
 --------------------------------------------------------------
 
          Ground-State Mulliken Net Atomic Charges

     Atom                 Charge (a.u.)    Spin (a.u.)
  --------------------------------------------------------
      1 C                    -0.244438       0.002780
      2 C                    -0.141405      -0.071171
      3 O                    -0.149833       0.940306
      4 H                     0.126767       0.078800
      5 H                     0.114514       0.048664
      6 H                     0.080194      -0.000807
      7 H                     0.107799       0.000248
      8 H                     0.106402       0.001180
  --------------------------------------------------------
  Sum of atomic charges =     0.000000
  Sum of spin   charges =     1.000000

 -----------------------------------------------------------------
                    Cartesian Multipole Moments
 -----------------------------------------------------------------
    Charge (ESU x 10^10)
                 0.0000
    Dipole Moment (Debye)
         X      -2.0318      Y       0.0713      Z      -0.6388
       Tot       2.1310
    Quadrupole Moments (Debye-Ang)
        XX     -22.3553     XY      -0.1305     YY     -17.9390
        XZ      -4.4799     YZ       0.3405     ZZ     -22.1077
    Octapole Moments (Debye-Ang^2)
       XXX     -24.9531    XXY      -0.0805    XYY      -5.7978
       YYY       0.1188    XXZ     -26.5975    XYZ       0.0472
       YYZ     -18.0249    XZZ     -15.8019    YZZ       1.0926
       ZZZ     -69.0458
    Hexadecapole Moments (Debye-Ang^3)
      XXXX     -95.0178   XXXY      -0.4934   XXYY     -18.7675
      XYYY      -0.1818   YYYY     -31.1209   XXXZ     -47.0149
      XXYZ       0.3035   XYYZ     -13.3270   YYYZ       0.3567
      XXZZ     -69.2682   XYZZ       0.6518   YYZZ     -42.3442
      XZZZ     -59.1850   YZZZ       3.1605   ZZZZ    -277.7073
 -----------------------------------------------------------------
 Total job time:  374.88s(wall), 305.17s(cpu) 
 Mon Nov 14 15:21:16 2011

        *************************************************************
        *                                                           *
        *  Thank you very much for using Q-Chem.  Have a nice day.  *
        *                                                           *
        *************************************************************


0 sent ACK to 0 
now end server 0 ... 
 
**********************************************************************
Job 3 of 3 
**********************************************************************
 
Process 0 of 1 is on cl184.stfx.acenet.ca - thread support 1
initial socket setup ...start
initial socket setup ...done 
now start server 0 ... 

cmd = /usr/bin/ssh clhead /usr/local/qchem/bin/get_hostid 1644563831 > /scratch/tmp/4825349.1.medium.q/qchem6767/lic.dat
                  Welcome to Q-Chem
     A Quantum Leap Into The Future Of Chemistry

 Y. Shao, L. Fusti-Molnar, Y. Jung, J. Kussmann, C. Ochsenfeld,
 S. T. Brown, A. T. B. Gilbert, L. V. Slipchenko,S. V. Levchenko,
 D. P. O'Neill, R. A. DiStasio Jr., R. C. Lochan, T. Wang,
 G. J. O. Beran, N. A. Besley, J. M. Herbert, C. Y. Lin,
 T. Van Voorhis, S. H. Chien, A. Sodt, R. P. Steele, 
 V. A. Rassolov, P. E. Maslen, P. P. Korambath, R. D. Adamson,
 B. Austin, J. Baker, E. F. C. Byrd, H. Dachsel, R. J. Doerksen,
 A. Dreuw, B. D. Dunietz, A. D. Dutoi, T. R. Furlani,
 S. R. Gwaltney, A. Heyden, S. Hirata, C.-P. Hsu, G. Kedziora,
 R. Z. Khaliullin, P. Klunzinger, A. M. Lee, M. S. Lee, W. Liang,
 I. Lotan, N. Nair, B. Peters, E. I. Proynov, P. A. Pieniazek, 
 Y. M. Rhee, J. Ritchie, E. Rosta, C. D. Sherrill, 
 A. C. Simmonett, J. E. Subotnik, H. L. Woodcock III,
 W. Zhang, A. T. Bell, A. K. Chakraborty, D. M. Chipman,
 F. J. Keil, A. Warshel, W. J. Hehre, H. F. Schaefer III,
 J. Kong, A. I. Krylov, P. M. W. Gill, M. Head-Gordon,
 Q-Chem, Version 3.1, Q-Chem, Inc., Pittsburgh, PA (2007).

 Additional authors for Version 3.1: 
 Z. Gan, Y. Zhao, N. E. Schultz, D. Truhlar, E. Epifanovsky and M. Oana.

 Additional authors for Version 3.2: 
 R. Baer, B. R. Brooks, D. Casanova, J.-D. Chai, C.-L. Cheng, 
 C. Cramer, D. Crittenden, A. Ghysels, G. Hawkins, E. G. Hohenstein, 
 C. Kelley, W. Kurlancheek, D. Liotard, E. Livshits, P. Manohar, 
 A. Marenich, D. Neuhauser, R. Olson, M. A. Rohrdanz, K. S. Thanthiriwatte, 
 A. J. W. Thom, V. Vanovschi, C. F. Williams, Q. Wu and Z.-Q. You. 


 Intel X86 Linux Version

 Q-chem begins on Mon Nov 14 15:21:19 2011  

 Parallel job on  1  processors
Processing $rem in /usr/local/qchem/config/preferences.

theFileMan(): MAXOPENFILES=974 MAX_SUB_FILE_NUM=16
Maximum size of a physical file is 2.0 GB, maximum size of a tmp-file is 32.0 GB


--------------------------------------------------------------
User input:
--------------------------------------------------------------

$molecule
1,3
C
C,1,CC
O,2,CO,1,OCC
X,3,0.97,2,107.,1,180.,0
X,2,1.,1,XCC,3,180.,0
H,2,CH,5,A1,1,90.,0
H,2,CH,5,A1,1,-90.,0
H,1,CH3,2,H3CC,3,180.,0
X,1,1.,2,YCC,3,0.,0
H,1,CH4,9,A2,2,90.,0
H,1,CH4,9,A2,2,-90.,0

CC=1.55380371
CO=1.3708761
OCC=106.53444686
XCC=122.81869313
CH=1.10383091
A1=54.76163191
CH3=1.09470615
H3CC=108.59935331
YCC=126.7607798
CH4=1.09293226
A2=54.53735592

$end

$comment
positive
$end

$xc_functional
   X HF 1.0
   X BNL 1.0
   C LYP 1.0
$end

$rem
SYMMETRY_DECOMPOSITION	0
exchange 		general
BASIS                   g3large
omega			700
separate_jk		true
mem_static              760
max_scf_cycles          200
scf_final_print         1
sym_ignore              true
$end

--------------------------------------------------------------
 Writing REM_CC_EA            8
 ----------------------------------------------------
       Standard Nuclear Orientation (Angstroms)
    I     Atom         X            Y            Z
 ----------------------------------------------------
    1      C       0.000000     0.000000     0.000000
    2      C       0.000000     0.000000     1.553804
    3      O       1.314189     0.000000     1.943944
    4      H      -0.535234     0.901564     1.898986
    5      H      -0.535234    -0.901564     1.898986
    6      H      -1.037532     0.000000    -0.349155
    7      H       0.507995     0.890187    -0.379486
    8      H       0.507995    -0.890187    -0.379486
 ----------------------------------------------------
 Nuclear Repulsion Energy =    74.3897211119 hartrees
 There are       13 alpha and       11 beta electrons
 Requested basis set is G3large
 There are 60 shells and 176 basis functions

Total QAlloc Memory Limit   2000 MB
Mega-Array Size       743 MB
MEM_STATIC part       760 MB

                       Distance Matrix (Angstroms)
             C (  1)   C (  2)   O (  3)   H (  4)   H (  5)   H (  6)
   C (  2)  1.553804
   O (  3)  2.346489  1.370876
   H (  4)  2.169202  1.103831  2.057961
   H (  5)  2.169202  1.103831  2.057961  1.803127
   H (  6)  1.094706  2.167423  3.284645  2.473713  2.473713
   H (  7)  1.092932  2.188173  2.615475  2.505971  3.080605  1.783817
   H (  8)  1.092932  2.188173  2.615475  3.080605  2.505971  1.783817
             H (  7)
   H (  8)  1.780373
 
 A cutoff of  1.0D-08 yielded   1760 shell pairs
 There are  15158 function pairs ( 18470 Cartesian)
Evaluating contribution to one-electron hamiltonian from nuclear
 Smallest overlap matrix eigenvalue = 1.37E-04
 Multipole matrices computed through 2nd order

  Scale SEOQF with 1.000000e-01/1.000000e-01/1.000000e-01

 Standard Electronic Orientation quadrupole field applied
 Nucleus-field energy     =    -0.0000000048 hartrees
 Guess from superposition of atomic densities
 Warning:  Energy on first SCF cycle will be non-variational
 An unrestricted hybrid HF-DFT SCF calculation will be
 performed using Pulay DIIS extrapolation
 Exchange:     1.0000 Hartree-Fock + 1.0000 BNL
 Correlation:  1.0000 LYP
 Using SG-1 standard quadrature grid
 SCF converges when DIIS error is below 1.0E-05
 Warning!  Inaccurate integrated density:
   Number of electrons =    24
   Numerical integral  =    24.999848811569
   Relative error      =     4.1660367149 %
 ---------------------------------------
  Cycle       Energy         DIIS Error
 ---------------------------------------
    1    -153.4907648743      3.19E-02
    2    -152.5035670306      3.49E-03
    3    -152.5877437738      2.12E-03
    4    -152.6091685363      6.82E-04
    5    -152.6188837491      6.39E-04
    6    -152.6242017740      2.93E-04
    7    -152.6287973100      1.45E-04
    8    -152.6300247446      6.47E-05
    9    -152.6303419994      3.78E-05
   10    -152.6304580032      2.16E-05
   11    -152.6304890503      8.32E-06 Convergence criterion met
 ---------------------------------------
 One-Electron    Energy =  -348.4261614566
 Total Coulomb   Energy =   140.8199921522
 Alpha Exchange  Energy =    -4.0040132931
 Beta  Exchange  Energy =    -3.3003527234
 DFT   Exchange  Energy =   -11.3297188952
 DFT Correlation Energy =    -0.7799559414
 Nuclear Repu.   Energy =    74.3897211070
 Nuclear Attr.   Energy =  -500.1088149800
 Kinetic         Energy =   151.6826535234
 <S^2> = 2.0167
 SCF time:  CPU 106.88 s  wall 126.46 s
 Final Alpha MO Eigenvalues
            1           2           3           4           5           6
    1 -19.4499340 -10.5033274 -10.3944196  -1.6705269  -1.2552633  -1.1098591
            7           8           9          10          11          12
    1  -1.0370817  -1.0175691  -0.9630990  -0.8664008  -0.7964284  -0.7897789
           13          14          15          16          17          18
    1  -0.7678656  -0.1196896  -0.0889484  -0.0882780  -0.0861226  -0.0467111
 Final Beta MO Eigenvalues
            1           2           3           4           5           6
    1 -19.4003605 -10.5031674 -10.3909438  -1.5557013  -1.2094147  -1.0703064
            7           8           9          10          11          12
    1  -0.9379361  -0.9099853  -0.8216279  -0.7843966  -0.7688652  -0.3574101
           13          14          15          16
    1  -0.3533258  -0.1187784  -0.0880194  -0.0862365
 Analysis of SCF Wavefunction
 
 --------------------------------------------------------------
                    Orbital Energies (a.u.)
 --------------------------------------------------------------
 
 Alpha MOs
 -- Occupied --
-19.450 -10.503 -10.394  -1.671  -1.255  -1.110  -1.037  -1.018
 -0.963  -0.866  -0.796  -0.790  -0.768
 -- Virtual --
 -0.120  -0.089  -0.088  -0.086  -0.047  -0.046  -0.038  -0.025
 -0.021   0.012   0.020   0.025   0.037   0.045   0.052   0.071
  0.095   0.097   0.104   0.127   0.143   0.167   0.195   0.218
  0.307   0.318   0.338   0.349   0.421   0.426   0.435   0.451
  0.452   0.482   0.487   0.524   0.584   0.617   0.668   0.679
  0.795   0.804   0.828   0.857   0.893   0.911   0.935   0.945
  0.997   1.035   1.058   1.059   1.071   1.146   1.158   1.207
  1.236   1.267   1.297   1.328   1.367   1.380   1.382   1.410
  1.511   1.547   1.555   1.583   1.824   1.916   2.165   2.317
  2.423   2.468   2.513   2.551   2.702   2.704   2.737   2.869
  2.889   2.952   2.973   2.999   3.097   3.129   3.144   3.193
  3.216   3.229   3.299   3.410   3.420   3.451   3.479   3.481
  3.538   3.632   3.726   3.788   3.876   3.909   3.929   3.936
  3.997   4.111   4.141   4.183   4.185   4.203   4.326   4.353
  4.432   4.450   4.491   4.558   4.728   4.764   4.823   4.823
  4.984   5.067   5.130   5.215   5.317   5.450   5.580   5.613
  5.721   5.728   6.334   6.533   6.551   7.009   7.022   7.331
 24.248  24.352  27.504  27.920  27.996  28.101  28.112  28.311
 40.786  40.821  40.888  40.923  41.046  41.083  41.119  41.152
 41.182  41.236  43.299  43.367  43.481  43.520  43.570  45.426
 45.449  46.004  49.773
 
 Beta MOs
 -- Occupied --
-19.400 -10.503 -10.391  -1.556  -1.209  -1.070  -0.938  -0.910
 -0.822  -0.784  -0.769
 -- Virtual --
 -0.357  -0.353  -0.119  -0.088  -0.086  -0.084  -0.044  -0.043
 -0.036  -0.023  -0.017   0.013   0.023   0.025   0.039   0.051
  0.064   0.080   0.101   0.103   0.113   0.136   0.152   0.181
  0.196   0.226   0.319   0.324   0.345   0.359   0.428   0.434
  0.443   0.461   0.462   0.484   0.498   0.531   0.587   0.623
  0.674   0.686   0.797   0.820   0.840   0.871   0.913   0.925
  0.959   0.983   1.006   1.056   1.065   1.066   1.075   1.158
  1.179   1.214   1.247   1.283   1.304   1.351   1.372   1.388
  1.393   1.422   1.529   1.593   1.596   1.624   1.860   1.957
  2.197   2.330   2.435   2.477   2.524   2.557   2.713   2.719
  2.749   2.880   2.892   2.960   2.980   3.010   3.105   3.143
  3.152   3.202   3.225   3.237   3.307   3.417   3.425   3.458
  3.486   3.492   3.547   3.639   3.740   3.799   3.885   3.920
  3.935   3.945   4.008   4.129   4.153   4.190   4.198   4.216
  4.341   4.366   4.442   4.460   4.498   4.571   4.829   4.859
  4.917   4.925   5.035   5.133   5.193   5.238   5.346   5.479
  5.594   5.623   5.768   5.774   6.373   6.690   6.706   7.107
  7.118   7.404  24.251  24.354  27.507  27.920  27.997  28.104
 28.114  28.315  40.788  40.821  40.891  40.929  41.047  41.084
 41.120  41.157  41.187  41.239  43.422  43.489  43.562  43.606
 43.647  45.492  45.512  46.039  49.832
 --------------------------------------------------------------
 
          Ground-State Mulliken Net Atomic Charges

     Atom                 Charge (a.u.)    Spin (a.u.)
  --------------------------------------------------------
      1 C                    -0.222433       0.143155
      2 C                    -0.181902      -0.029250
      3 O                     0.410703       1.637342
      4 H                     0.240472       0.115564
      5 H                     0.240908       0.116717
      6 H                     0.168339       0.019691
      7 H                     0.171997      -0.001550
      8 H                     0.171915      -0.001668
  --------------------------------------------------------
  Sum of atomic charges =     1.000000
  Sum of spin   charges =     2.000000

 -----------------------------------------------------------------
                    Cartesian Multipole Moments
 -----------------------------------------------------------------
    Charge (ESU x 10^10)
                 4.8032
    Dipole Moment (Debye)
         X       0.4495      Y      -0.0017      Z       5.9796
       Tot       5.9965
    Quadrupole Moments (Debye-Ang)
        XX     -14.0270     XY      -0.0002     YY     -14.6151
        XZ       1.0998     YZ      -0.0042     ZZ      -4.6638
    Octapole Moments (Debye-Ang^2)
       XXX     -16.0008    XXY      -0.0040    XYY      -5.4719
       YYY      -0.0017    XXZ     -13.6075    XYZ       0.0016
       YYZ     -14.1981    XZZ      -3.1846    YZZ      -0.0049
       ZZZ     -29.7232
    Hexadecapole Moments (Debye-Ang^3)
      XXXX     -67.6337   XXXY      -0.0058   XXYY     -14.4712
      XYYY       0.0010   YYYY     -23.4774   XXXZ     -28.3720
      XXYZ      -0.0059   XYYZ     -13.1816   YYYZ      -0.0053
      XXZZ     -38.0539   XYZZ       0.0082   YYZZ     -31.6850
      XZZZ     -26.2324   YZZZ      -0.0076   ZZZZ    -169.6293
 -----------------------------------------------------------------
 Total job time:  128.35s(wall), 107.06s(cpu) 
 Mon Nov 14 15:23:27 2011

        *************************************************************
        *                                                           *
        *  Thank you very much for using Q-Chem.  Have a nice day.  *
        *                                                           *
        *************************************************************


0 sent ACK to 0 
now end server 0 ... 
