Process 0 of 1 is on cl226.stfx.acenet.ca - thread support 1
initial socket setup ...start
initial socket setup ...done 
now start server 0 ... 

cmd = /usr/bin/ssh clhead /usr/local/qchem/bin/get_hostid 1962121195 > /scratch/tmp/4503950.1.medium.q/qchem9532/lic.dat
                  Welcome to Q-Chem
     A Quantum Leap Into The Future Of Chemistry

 Y. Shao, L. Fusti-Molnar, Y. Jung, J. Kussmann, C. Ochsenfeld,
 S. T. Brown, A. T. B. Gilbert, L. V. Slipchenko,S. V. Levchenko,
 D. P. O'Neill, R. A. DiStasio Jr., R. C. Lochan, T. Wang,
 G. J. O. Beran, N. A. Besley, J. M. Herbert, C. Y. Lin,
 T. Van Voorhis, S. H. Chien, A. Sodt, R. P. Steele, 
 V. A. Rassolov, P. E. Maslen, P. P. Korambath, R. D. Adamson,
 B. Austin, J. Baker, E. F. C. Byrd, H. Dachsel, R. J. Doerksen,
 A. Dreuw, B. D. Dunietz, A. D. Dutoi, T. R. Furlani,
 S. R. Gwaltney, A. Heyden, S. Hirata, C.-P. Hsu, G. Kedziora,
 R. Z. Khaliullin, P. Klunzinger, A. M. Lee, M. S. Lee, W. Liang,
 I. Lotan, N. Nair, B. Peters, E. I. Proynov, P. A. Pieniazek, 
 Y. M. Rhee, J. Ritchie, E. Rosta, C. D. Sherrill, 
 A. C. Simmonett, J. E. Subotnik, H. L. Woodcock III,
 W. Zhang, A. T. Bell, A. K. Chakraborty, D. M. Chipman,
 F. J. Keil, A. Warshel, W. J. Hehre, H. F. Schaefer III,
 J. Kong, A. I. Krylov, P. M. W. Gill, M. Head-Gordon,
 Q-Chem, Version 3.1, Q-Chem, Inc., Pittsburgh, PA (2007).

 Additional authors for Version 3.1: 
 Z. Gan, Y. Zhao, N. E. Schultz, D. Truhlar, E. Epifanovsky and M. Oana.

 Additional authors for Version 3.2: 
 R. Baer, B. R. Brooks, D. Casanova, J.-D. Chai, C.-L. Cheng, 
 C. Cramer, D. Crittenden, A. Ghysels, G. Hawkins, E. G. Hohenstein, 
 C. Kelley, W. Kurlancheek, D. Liotard, E. Livshits, P. Manohar, 
 A. Marenich, D. Neuhauser, R. Olson, M. A. Rohrdanz, K. S. Thanthiriwatte, 
 A. J. W. Thom, V. Vanovschi, C. F. Williams, Q. Wu and Z.-Q. You. 


 Intel X86 Linux Version

 Q-chem begins on Sun Apr 17 21:16:45 2011  

 Parallel job on  1  processors
Processing $rem in /usr/local/qchem/config/preferences.

theFileMan(): MAXOPENFILES=974 MAX_SUB_FILE_NUM=16
Maximum size of a physical file is 2.0 GB, maximum size of a tmp-file is 32.0 GB


--------------------------------------------------------------
User input:
--------------------------------------------------------------

$molecule
0,1
C
H,1,R
Cl,1,R1,2,A
Cl,1,R1,2,A,3,120.,0
Cl,1,R1,2,A,3,-120.,0

R=1.08553635
R1=1.78773686
A=107.50826708

$end

$comment
neutral
$end

$xc_functional
   X HF 1.0
   X BNL 1.0
   C LYP 1.0
$end

$rem
SYMMETRY_DECOMPOSITION	0
exchange 		general
BASIS                   g3large
omega			420 
JOBTYPE                 opt
separate_jk		true
mem_static              760
max_scf_cycles          200
scf_final_print         1
sym_ignore              true
$end


--------------------------------------------------------------
 Writing REM_CC_EA            5
 ----------------------------------------------------
       Standard Nuclear Orientation (Angstroms)
    I     Atom         X            Y            Z
 ----------------------------------------------------
    1      C       0.000000     0.000000     0.000000
    2      H       0.000000     0.000000     1.085536
    3      Cl      1.704917     0.000000    -0.537829
    4      Cl     -0.852459    -1.476502    -0.537829
    5      Cl     -0.852459     1.476502    -0.537829
 ----------------------------------------------------
 Nuclear Repulsion Energy =   260.3321865543 hartrees
 There are       29 alpha and       29 beta electrons
 Requested basis set is G3large
 There are 73 shells and 250 basis functions

Total QAlloc Memory Limit   2000 MB
Mega-Array Size       743 MB
MEM_STATIC part       760 MB
 A cutoff of  1.0D-11 yielded   2350 shell pairs
 There are  28024 function pairs ( 38791 Cartesian)
Evaluating contribution to one-electron hamiltonian from nuclear
 Smallest overlap matrix eigenvalue = 9.07E-05
 Multipole matrices computed through 2nd order

  Scale SEOQF with 1.000000e-01/1.000000e-01/1.000000e-01

 Standard Electronic Orientation quadrupole field applied
 Nucleus-field energy     =     0.0000000062 hartrees
 Guess from superposition of atomic densities
 Warning:  Energy on first SCF cycle will be non-variational
 A restricted hybrid HF-DFT SCF calculation will be
 performed using Pulay DIIS extrapolation
 Exchange:     1.0000 Hartree-Fock + 1.0000 BNL
 Correlation:  1.0000 LYP
 Using SG-1 standard quadrature grid
 SCF converges when DIIS error is below 1.0E-08
 ---------------------------------------
  Cycle       Energy         DIIS Error
 ---------------------------------------
    1   -1413.8103756595      2.32E-02
    2   -1413.1449760371      3.65E-03
    3   -1413.1308649403      4.49E-03
    4   -1413.2563769627      2.80E-04
    5   -1413.2573713081      1.11E-04
    6   -1413.2575543367      3.93E-05
    7   -1413.2575819658      1.20E-05
    8   -1413.2575849354      3.58E-06
    9   -1413.2575852766      1.04E-06
   10   -1413.2575853110      2.62E-07
   11   -1413.2575853145      8.19E-08
   12   -1413.2575853108      2.52E-08
   13   -1413.2575853138      5.38E-09 Convergence criterion met
 ---------------------------------------
 One-Electron    Energy = -2475.4032855157
 Total Coulomb   Energy =   886.0381865909
 Alpha Exchange  Energy =    -6.2658030477
 Beta  Exchange  Energy =    -6.2658030477
 DFT   Exchange  Energy =   -69.3310138009
 DFT Correlation Energy =    -2.3620530532
 Nuclear Repu.   Energy =   260.3321865605
 Nuclear Attr.   Energy = -3886.0832796693
 Kinetic         Energy =  1410.6799941536
 SCF time:  CPU 361.48 s  wall 366.28 s
 Final Alpha MO Eigenvalues
            1           2           3           4           5           6
    1-100.5305596-100.5305022-100.5305020 -10.1822400  -9.3838721  -9.3838048
            7           8           9          10          11          12
    1  -9.3837968  -7.2379373  -7.2379327  -7.2378445  -7.2260214  -7.2258307
           13          14          15          16          17          18
    1  -7.2258280  -7.2258244  -7.2257260  -7.2257229  -1.0999051  -0.9932134
           19          20          21          22          23          24
    1  -0.9931943  -0.7940480  -0.6430116  -0.6032308  -0.6032247  -0.4838045
           25          26          27          28          29          30
    1  -0.4837935  -0.4527174  -0.4527023  -0.4465300  -0.4341969   0.0304561
           31          32          33          34
    1   0.0394088   0.0657194   0.0657280   0.0853983
 Analysis of SCF Wavefunction
 
 --------------------------------------------------------------
                    Orbital Energies (a.u.)
 --------------------------------------------------------------
 
 Alpha MOs
 -- Occupied --
*******-100.531-100.531 -10.182  -9.384  -9.384  -9.384  -7.238
 -7.238  -7.238  -7.226  -7.226  -7.226  -7.226  -7.226  -7.226
 -1.100  -0.993  -0.993  -0.794  -0.643  -0.603  -0.603  -0.484
 -0.484  -0.453  -0.453  -0.447  -0.434
 -- Virtual --
  0.030   0.039   0.066   0.066   0.085   0.102   0.102   0.127
  0.127   0.133   0.144   0.144   0.167   0.169   0.172   0.172
  0.178   0.189   0.217   0.217   0.310   0.327   0.327   0.364
  0.364   0.381   0.423   0.423   0.432   0.432   0.439   0.439
  0.490   0.501   0.511   0.511   0.548   0.548   0.550   0.578
  0.578   0.608   0.637   0.637   0.659   0.744   0.773   0.773
  0.789   0.913   0.959   0.959   0.990   0.990   1.042   1.090
  1.090   1.129   1.129   1.137   1.173   1.183   1.183   1.189
  1.193   1.200   1.200   1.213   1.213   1.236   1.242   1.244
  1.244   1.295   1.296   1.300   1.368   1.368   1.456   1.475
  1.475   1.523   1.536   1.536   1.549   1.566   1.644   1.644
  1.712   1.712   1.764   1.793   1.793   1.807   1.831   1.831
  1.944   2.272   2.272   2.272   2.310   2.357   2.357   2.389
  2.389   2.615   2.784   3.082   3.082   3.216   3.279   3.279
  3.419   3.424   3.470   3.470   3.549   3.686   3.687   3.851
  3.851   3.971   4.337   4.337   4.410   4.411   4.429   4.441
  4.441   4.450   4.461   4.490   4.490   4.515   4.515   4.516
  4.576   4.576   4.608   4.649   4.649   4.678   4.691   4.719
  4.719   5.100   5.110   5.111   5.127   5.127   5.134   5.206
  5.280   5.281   5.301   5.302   5.385   5.513   5.805   5.806
  5.844   9.866   9.866   9.892  20.569  20.569  20.579  20.586
 20.615  20.615  20.827  20.828  20.904  23.970  27.120  27.128
 27.139  27.142  27.187  27.191  27.219  27.226  27.229  27.232
 27.259  27.270  27.274  27.306  27.341  27.965  27.974  28.009
 36.860  36.862  36.862  36.863  36.864  36.864  36.867  36.870
 36.870  36.873  36.873  36.876  36.876  36.879  36.884  36.885
 36.887  36.890  36.892  36.894  36.897  40.775  40.824  41.096
 41.099  41.115 216.330 216.330 216.385
 --------------------------------------------------------------
 
          Ground-State Mulliken Net Atomic Charges

     Atom                 Charge (a.u.)
  ----------------------------------------
      1 C                     0.505955
      2 H                     0.111298
      3 Cl                   -0.205931
      4 Cl                   -0.205661
      5 Cl                   -0.205661
  ----------------------------------------
  Sum of atomic charges =     0.000000

 -----------------------------------------------------------------
                    Cartesian Multipole Moments
 -----------------------------------------------------------------
    Charge (ESU x 10^10)
                 0.0000
    Dipole Moment (Debye)
         X       0.0009      Y       0.0000      Z       1.1353
       Tot       1.1353
    Quadrupole Moments (Debye-Ang)
        XX     -44.7548     XY       0.0000     YY     -44.7558
        XZ      -0.0009     YZ       0.0000     ZZ     -43.6199
    Octapole Moments (Debye-Ang^2)
       XXX       4.0091    XXY       0.0000    XYY      -4.0063
       YYY       0.0000    XXZ      17.3572    XYZ       0.0000
       YYZ      17.3559    XZZ       0.0009    YZZ       0.0000
       ZZZ      62.0768
    Hexadecapole Moments (Debye-Ang^3)
      XXXX    -365.7763   XXXY       0.0000   XXYY    -121.9319
      XYYY       0.0000   YYYY    -365.7892   XXXZ      -5.8465
      XXYZ       0.0000   XYYZ       5.8428   YYYZ       0.0000
      XXZZ     -82.6779   XYZZ       0.0000   YYZZ     -82.6768
      XZZZ      -0.0022   YZZZ       0.0000   ZZZZ    -121.9531
 -----------------------------------------------------------------
 Calculating analytic gradient of the SCF energy
 Gradient of AOints
            1           2           3           4           5
    1  -0.0064970   0.0007775 -26.8887906  13.4472546  13.4472555
    2   0.0000006  -0.0000002   0.0000005  23.2831287 -23.2831295
    3  -3.3447863  -6.8739610   3.4047005   3.4070252   3.4070216
 Gradient of XC Energy
            1           2           3           4           5
    1   0.0003630  -0.0000380   0.1838087  -0.0920668  -0.0920669
    2  -0.0000000   0.0000000  -0.0000000  -0.1595919   0.1595920
    3  -0.0199151   0.1711714  -0.0502403  -0.0505081  -0.0505080
 Gradient of SCF Energy
            1           2           3           4           5
    1   0.0003143  -0.0000298   0.0227824  -0.0115334  -0.0115335
    2   0.0000000   0.0000000  -0.0000000  -0.0201953   0.0201953
    3   0.0181881  -0.0025245  -0.0050565  -0.0053036  -0.0053035
 Max gradient component =       2.278E-02
 RMS gradient           =       1.160E-02
 Gradient time:  CPU 166.51 s  wall 166.91 s
 Geometry Optimization Parameters
   NAtoms,    NIC,     NZ,  NCons,   NDum,   NFix, NCnnct, MaxDiis
        5      20       5       0       0       0       0       0


** GEOMETRY OPTIMIZATION IN DELOCALIZED INTERNAL COORDINATES **
   Searching for a Minimum

   Optimization Cycle:   1

                       Coordinates (Angstroms)
     ATOM              X           Y           Z
    1  C           0.000000    0.000000    0.000000
    2  H           0.000000    0.000000    1.085536
    3  Cl          1.704917    0.000000   -0.537829
    4  Cl         -0.852459   -1.476502   -0.537829
    5  Cl         -0.852459    1.476502   -0.537829
   Point Group: c1    Number of degrees of freedom:   9


   Energy is  -1413.257585314


 Attempting to Generate Delocalized Internal Coordinates

  9 Hessian modes will be used to form the next step
  Hessian Eigenvalues:
     0.160000    0.160000    0.201460    0.250000    0.250000    0.271070
     0.271070    0.271070    0.353336

 Minimum Search - Taking Simple RFO Step
 Searching for Lamda that Minimizes Along All modes
 Value Taken    Lamda =  -0.00638517
 Step Taken.  Stepsize is  0.153018

                             Maximum     Tolerance    Cnvgd?
         Gradient           0.035082      0.000300      NO
         Displacement       0.127405      0.001200      NO
         Energy change     *********      0.000001      NO


 New Cartesian Coordinates Obtained by Inverse Iteration

 Displacement from previous Coordinates is:  0.174180
 Writing REM_CC_EA            5
 ----------------------------------------------------
       Standard Nuclear Orientation (Angstroms)
    I     Atom         X            Y            Z
 ----------------------------------------------------
    1      C       0.000163     0.000000     0.008139
    2      H      -0.000166     0.000000     1.097389
    3      Cl      1.653620     0.000000    -0.544564
    4      Cl     -0.826808    -1.430631    -0.544457
    5      Cl     -0.826808     1.430631    -0.544457
 ----------------------------------------------------
 Nuclear Repulsion Energy =   267.6825919728 hartrees
 There are       29 alpha and       29 beta electrons
 Applying Cartesian multipole field
    Component          Value
    ---------          -----
     (2,0,0)        1.00000E-11
     (0,2,0)        2.00000E-11
     (0,0,2)       -3.00000E-11
 Nucleus-field energy     =     0.0000000057 hartrees
 Requested basis set is G3large
 There are 73 shells and 250 basis functions
 A cutoff of  1.0D-11 yielded   2386 shell pairs
 There are  28456 function pairs ( 39445 Cartesian)
Evaluating contribution to one-electron hamiltonian from nuclear
 Smallest overlap matrix eigenvalue = 7.18E-05
 Multipole matrices computed through 2nd order
 Guess MOs from SCF MO coefficient file
Reading MOs from coefficient file
Reading MOs from coefficient file
 A restricted hybrid HF-DFT SCF calculation will be
 performed using Pulay DIIS extrapolation
 Exchange:     1.0000 Hartree-Fock + 1.0000 BNL
 Correlation:  1.0000 LYP
 Using SG-1 standard quadrature grid
 SCF converges when DIIS error is below 1.0E-08
 ---------------------------------------
  Cycle       Energy         DIIS Error
 ---------------------------------------
    1   -1413.3504710144      1.31E-03
    2   -1413.2600644382      2.82E-04
    3   -1413.2601934003      2.80E-04
    4   -1413.2606659633      2.39E-05
    5   -1413.2606738408      1.12E-05
    6   -1413.2606761184      3.78E-06
    7   -1413.2606765033      9.51E-07
    8   -1413.2606765344      3.42E-07
    9   -1413.2606765338      6.28E-08
   10   -1413.2606765341      1.76E-08
   11   -1413.2606765340      3.19E-09 Convergence criterion met
 ---------------------------------------
 One-Electron    Energy = -2490.0888376660
 Total Coulomb   Energy =   893.4311664147
 Alpha Exchange  Energy =    -6.2704671477
 Beta  Exchange  Energy =    -6.2704671477
 DFT   Exchange  Energy =   -69.3782870066
 DFT Correlation Energy =    -2.3663759592
 Nuclear Repu.   Energy =   267.6825919785
 Nuclear Attr.   Energy = -3901.0090843402
 Kinetic         Energy =  1410.9202466742
 SCF time:  CPU 315.90 s  wall 320.05 s
 Final Alpha MO Eigenvalues
            1           2           3           4           5           6
    1-100.5272162-100.5271529-100.5271529 -10.1730436  -9.3816198  -9.3815806
            7           8           9          10          11          12
    1  -9.3815683  -7.2354245  -7.2354197  -7.2353261  -7.2236836  -7.2235501
           13          14          15          16          17          18
    1  -7.2235476  -7.2235310  -7.2234191  -7.2234167  -1.1170473  -0.9973152
           19          20          21          22          23          24
    1  -0.9973084  -0.7905679  -0.6525959  -0.6114290  -0.6113865  -0.4866407
           25          26          27          28          29          30
    1  -0.4865715  -0.4498949  -0.4498220  -0.4459370  -0.4292673   0.0319672
           31          32          33          34
    1   0.0514903   0.0704314   0.0704699   0.0865113
 Analysis of SCF Wavefunction
 
 --------------------------------------------------------------
                    Orbital Energies (a.u.)
 --------------------------------------------------------------
 
 Alpha MOs
 -- Occupied --
*******-100.527-100.527 -10.173  -9.382  -9.382  -9.382  -7.235
 -7.235  -7.235  -7.224  -7.224  -7.224  -7.224  -7.223  -7.223
 -1.117  -0.997  -0.997  -0.791  -0.653  -0.611  -0.611  -0.487
 -0.487  -0.450  -0.450  -0.446  -0.429
 -- Virtual --
  0.032   0.051   0.070   0.070   0.087   0.105   0.105   0.127
  0.127   0.135   0.147   0.147   0.165   0.170   0.175   0.176
  0.182   0.196   0.218   0.218   0.308   0.331   0.331   0.363
  0.363   0.379   0.424   0.430   0.435   0.435   0.443   0.443
  0.482   0.508   0.508   0.508   0.553   0.553   0.556   0.583
  0.583   0.619   0.654   0.654   0.657   0.758   0.768   0.768
  0.796   0.933   0.959   0.959   1.000   1.000   1.045   1.092
  1.092   1.126   1.133   1.133   1.161   1.188   1.188   1.191
  1.194   1.203   1.203   1.214   1.214   1.243   1.256   1.257
  1.257   1.314   1.314   1.315   1.388   1.388   1.490   1.490
  1.491   1.518   1.558   1.561   1.562   1.587   1.668   1.668
  1.731   1.731   1.775   1.808   1.808   1.826   1.854   1.854
  2.007   2.269   2.280   2.280   2.338   2.359   2.360   2.408
  2.408   2.652   2.785   3.111   3.112   3.232   3.293   3.293
  3.422   3.434   3.479   3.480   3.584   3.686   3.686   3.870
  3.870   3.968   4.343   4.343   4.410   4.410   4.428   4.444
  4.450   4.450   4.471   4.495   4.495   4.527   4.527   4.537
  4.591   4.591   4.602   4.663   4.663   4.710   4.727   4.735
  4.735   5.108   5.117   5.117   5.133   5.134   5.146   5.238
  5.314   5.314   5.362   5.363   5.405   5.516   5.877   5.879
  5.911   9.910   9.912   9.912  20.577  20.577  20.585  20.603
 20.620  20.620  20.837  20.838  20.923  24.014  27.126  27.137
 27.146  27.155  27.196  27.201  27.227  27.232  27.235  27.238
 27.272  27.289  27.289  27.321  27.360  28.045  28.055  28.063
 36.862  36.864  36.864  36.866  36.867  36.867  36.870  36.872
 36.873  36.876  36.877  36.880  36.880  36.883  36.887  36.891
 36.893  36.897  36.897  36.902  36.905  40.786  40.832  41.107
 41.112  41.128 216.377 216.377 216.401
 --------------------------------------------------------------
 
          Ground-State Mulliken Net Atomic Charges

     Atom                 Charge (a.u.)
  ----------------------------------------
      1 C                     0.485592
      2 H                     0.104031
      3 Cl                   -0.196947
      4 Cl                   -0.196338
      5 Cl                   -0.196338
  ----------------------------------------
  Sum of atomic charges =     0.000000

 -----------------------------------------------------------------
                    Cartesian Multipole Moments
 -----------------------------------------------------------------
    Charge (ESU x 10^10)
                 0.0000
    Dipole Moment (Debye)
         X      -0.0015      Y       0.0000      Z       1.1253
       Tot       1.1253
    Quadrupole Moments (Debye-Ang)
        XX     -44.7011     XY       0.0000     YY     -44.7051
        XZ       0.0001     YZ       0.0000     ZZ     -43.4203
    Octapole Moments (Debye-Ang^2)
       XXX       3.6512    XXY       0.0000    XYY      -3.6689
       YYY       0.0000    XXZ      17.4804    XYZ       0.0000
       YYZ      17.4853    XZZ      -0.0038    YZZ       0.0000
       ZZZ      62.4469
    Hexadecapole Moments (Debye-Ang^3)
      XXXX    -347.8335   XXXY       0.0000   XXYY    -115.8438
      XYYY       0.0000   YYYY    -347.2983   XXXZ      -5.7255
      XXYZ       0.0000   XYYZ       5.7388   YYYZ       0.0000
      XXZZ     -79.2221   XYZZ       0.0000   YYZZ     -79.1200
      XZZZ       0.0072   YZZZ       0.0000   ZZZZ    -123.2398
 -----------------------------------------------------------------
 Calculating analytic gradient of the SCF energy
 Gradient of AOints
            1           2           3           4           5
    1  -0.0236224   0.0063332 -27.8064672  13.9118790  13.9118774
    2  -0.0000004   0.0000017  -0.0000013  24.0793245 -24.0793244
    3  -4.3250405  -7.0191050   3.7794060   3.7823680   3.7823714
 Gradient of XC Energy
            1           2           3           4           5
    1   0.0006264  -0.0001489   0.1894966  -0.0949871  -0.0949871
    2   0.0000000  -0.0000000   0.0000000  -0.1644356   0.1644356
    3  -0.0011956   0.1718160  -0.0567331  -0.0569437  -0.0569437
 Gradient of SCF Energy
            1           2           3           4           5
    1   0.0000040  -0.0001127  -0.0010268   0.0005677   0.0005678
    2  -0.0000000  -0.0000000   0.0000000   0.0010376  -0.0010376
    3   0.0058073  -0.0010245  -0.0015997  -0.0015915  -0.0015915
 Max gradient component =       5.807E-03
 RMS gradient           =       1.756E-03
 Gradient time:  CPU 187.63 s  wall 188.02 s
 Geometry Optimization Parameters
   NAtoms,    NIC,     NZ,  NCons,   NDum,   NFix, NCnnct, MaxDiis
        5      20       5       0       0       0       0       0

 Cartesian Hessian Update
 Hessian Updated using BFGS Update


** GEOMETRY OPTIMIZATION IN DELOCALIZED INTERNAL COORDINATES **
   Searching for a Minimum

   Optimization Cycle:   2

                       Coordinates (Angstroms)
     ATOM              X           Y           Z
    1  C           0.000163    0.000000    0.008139
    2  H          -0.000166    0.000000    1.097389
    3  Cl          1.653620    0.000000   -0.544564
    4  Cl         -0.826808   -1.430631   -0.544457
    5  Cl         -0.826808    1.430631   -0.544457
   Point Group: c1    Number of degrees of freedom:   9


   Energy is  -1413.260676534

 Hessian Updated using BFGS Update

  8 Hessian modes will be used to form the next step
  Hessian Eigenvalues:
     0.159998    0.160000    0.199069    0.249996    0.250000    0.271054
     0.300749    0.353354

 Minimum Search - Taking Simple RFO Step
 Searching for Lamda that Minimizes Along All modes
 Value Taken    Lamda =  -0.00026283
 Step Taken.  Stepsize is  0.034234

                             Maximum     Tolerance    Cnvgd?
         Gradient           0.007013      0.000300      NO
         Displacement       0.030432      0.001200      NO
         Energy change     -0.003091      0.000001      NO


 New Cartesian Coordinates Obtained by Inverse Iteration

 Displacement from previous Coordinates is:  0.053066
 Writing REM_CC_EA            5
 ----------------------------------------------------
       Standard Nuclear Orientation (Angstroms)
    I     Atom         X            Y            Z
 ----------------------------------------------------
    1      C      -0.000052     0.000000    -0.006478
    2      H       0.000221     0.000000     1.084345
    3      Cl      1.660351     0.000000    -0.535136
    4      Cl     -0.830260    -1.436968    -0.535341
    5      Cl     -0.830260     1.436968    -0.535341
 ----------------------------------------------------
 Nuclear Repulsion Energy =   267.0872220122 hartrees
 There are       29 alpha and       29 beta electrons
 Applying Cartesian multipole field
    Component          Value
    ---------          -----
     (2,0,0)        1.00000E-11
     (0,2,0)        2.00000E-11
     (0,0,2)       -3.00000E-11
 Nucleus-field energy     =     0.0000000058 hartrees
 Requested basis set is G3large
 There are 73 shells and 250 basis functions
 A cutoff of  1.0D-11 yielded   2382 shell pairs
 There are  28372 function pairs ( 39325 Cartesian)
Evaluating contribution to one-electron hamiltonian from nuclear
 Smallest overlap matrix eigenvalue = 7.53E-05
 Multipole matrices computed through 2nd order
 Guess MOs from SCF MO coefficient file
Reading MOs from coefficient file
Reading MOs from coefficient file
 A restricted hybrid HF-DFT SCF calculation will be
 performed using Pulay DIIS extrapolation
 Exchange:     1.0000 Hartree-Fock + 1.0000 BNL
 Correlation:  1.0000 LYP
 Using SG-1 standard quadrature grid
 SCF converges when DIIS error is below 1.0E-08
 ---------------------------------------
  Cycle       Energy         DIIS Error
 ---------------------------------------
    1   -1413.2606110783      3.49E-04
    2   -1413.2607324717      5.65E-05
    3   -1413.2607585384      4.84E-05
    4   -1413.2607755088      1.10E-05
    5   -1413.2607782781      4.45E-06
    6   -1413.2607786637      1.30E-06
    7   -1413.2607787135      3.26E-07
    8   -1413.2607787170      6.39E-08
    9   -1413.2607787203      1.13E-08
   10   -1413.2607787233      3.17E-09 Convergence criterion met
 ---------------------------------------
 One-Electron    Energy = -2488.8839342443
 Total Coulomb   Energy =   892.8207043768
 Alpha Exchange  Energy =    -6.2704031789
 Beta  Exchange  Energy =    -6.2704031789
 DFT   Exchange  Energy =   -69.3777052896
 DFT Correlation Energy =    -2.3662592264
 Nuclear Repu.   Energy =   267.0872220180
 Nuclear Attr.   Energy = -3899.7989022332
 Kinetic         Energy =  1410.9149679889
 SCF time:  CPU 282.97 s  wall 287.68 s
 Final Alpha MO Eigenvalues
            1           2           3           4           5           6
    1-100.5276381-100.5276048-100.5276048 -10.1726254  -9.3820153  -9.3819968
            7           8           9          10          11          12
    1  -9.3819839  -7.2358311  -7.2358266  -7.2357002  -7.2240957  -7.2239722
           13          14          15          16          17          18
    1  -7.2239693  -7.2239356  -7.2238509  -7.2238482  -1.1165874  -0.9981094
           19          20          21          22          23          24
    1  -0.9980979  -0.7897965  -0.6516451  -0.6119505  -0.6119336  -0.4863290
           25          26          27          28          29          30
    1  -0.4862859  -0.4514783  -0.4514369  -0.4433601  -0.4303293   0.0322194
           31          32          33          34
    1   0.0507101   0.0708175   0.0708448   0.0863238
 Analysis of SCF Wavefunction
 
 --------------------------------------------------------------
                    Orbital Energies (a.u.)
 --------------------------------------------------------------
 
 Alpha MOs
 -- Occupied --
*******-100.528-100.528 -10.173  -9.382  -9.382  -9.382  -7.236
 -7.236  -7.236  -7.224  -7.224  -7.224  -7.224  -7.224  -7.224
 -1.117  -0.998  -0.998  -0.790  -0.652  -0.612  -0.612  -0.486
 -0.486  -0.451  -0.451  -0.443  -0.430
 -- Virtual --
  0.032   0.051   0.071   0.071   0.086   0.105   0.105   0.127
  0.127   0.135   0.148   0.148   0.164   0.170   0.175   0.175
  0.182   0.193   0.218   0.218   0.310   0.330   0.330   0.363
  0.363   0.380   0.426   0.429   0.434   0.434   0.441   0.442
  0.483   0.506   0.508   0.508   0.554   0.554   0.554   0.582
  0.582   0.617   0.652   0.652   0.661   0.756   0.773   0.773
  0.799   0.925   0.959   0.959   0.998   0.998   1.050   1.094
  1.094   1.129   1.131   1.131   1.163   1.187   1.187   1.191
  1.195   1.202   1.202   1.214   1.214   1.241   1.254   1.256
  1.256   1.313   1.313   1.313   1.389   1.389   1.486   1.489
  1.490   1.521   1.556   1.558   1.559   1.588   1.667   1.667
  1.731   1.731   1.771   1.808   1.808   1.828   1.854   1.854
  1.998   2.268   2.282   2.283   2.333   2.364   2.364   2.407
  2.407   2.646   2.794   3.108   3.108   3.232   3.293   3.293
  3.425   3.432   3.480   3.480   3.586   3.686   3.687   3.870
  3.870   3.963   4.343   4.343   4.410   4.410   4.430   4.446
  4.448   4.448   4.471   4.494   4.494   4.523   4.523   4.534
  4.588   4.589   4.607   4.662   4.662   4.704   4.730   4.735
  4.736   5.108   5.116   5.116   5.133   5.133   5.144   5.233
  5.316   5.316   5.357   5.358   5.410   5.508   5.880   5.882
  5.915   9.908   9.909   9.909  20.577  20.577  20.584  20.600
 20.621  20.622  20.839  20.839  20.917  24.010  27.125  27.136
 27.145  27.153  27.197  27.202  27.227  27.231  27.234  27.238
 27.273  27.289  27.289  27.321  27.362  28.047  28.056  28.059
 36.862  36.863  36.864  36.865  36.866  36.866  36.869  36.872
 36.873  36.875  36.876  36.880  36.880  36.882  36.887  36.890
 36.892  36.896  36.897  36.902  36.904  40.788  40.832  41.107
 41.111  41.129 216.373 216.374 216.400
 --------------------------------------------------------------
 
          Ground-State Mulliken Net Atomic Charges

     Atom                 Charge (a.u.)
  ----------------------------------------
      1 C                     0.480518
      2 H                     0.102519
      3 Cl                   -0.194708
      4 Cl                   -0.194165
      5 Cl                   -0.194165
  ----------------------------------------
  Sum of atomic charges =     0.000000

 -----------------------------------------------------------------
                    Cartesian Multipole Moments
 -----------------------------------------------------------------
    Charge (ESU x 10^10)
                 0.0000
    Dipole Moment (Debye)
         X      -0.0013      Y       0.0000      Z       1.1064
       Tot       1.1064
    Quadrupole Moments (Debye-Ang)
        XX     -44.6533     XY       0.0000     YY     -44.6547
        XZ       0.0009     YZ       0.0000     ZZ     -43.5168
    Octapole Moments (Debye-Ang^2)
       XXX       3.7597    XXY       0.0000    XYY      -3.7632
       YYY       0.0000    XXZ      17.3473    XYZ       0.0000
       YYZ      17.3476    XZZ      -0.0005    YZZ       0.0000
       ZZZ      61.7092
    Hexadecapole Moments (Debye-Ang^3)
      XXXX    -349.6262   XXXY       0.0000   XXYY    -116.4735
      XYYY       0.0000   YYYY    -349.2533   XXXZ      -5.5817
      XXYZ       0.0000   XYYZ       5.5673   YYYZ       0.0000
      XXZZ     -79.5849   XYZZ       0.0000   YYZZ     -79.5086
      XZZZ      -0.0138   YZZZ       0.0000   ZZZZ    -121.2314
 -----------------------------------------------------------------
 Calculating analytic gradient of the SCF energy
 Gradient of AOints
            1           2           3           4           5
    1  -0.0080845  -0.0009737 -27.7951846  13.9021215  13.9021213
    2  -0.0000006   0.0000003   0.0000000  24.0706383 -24.0706379
    3  -3.6766214  -6.9516513   3.5364399   3.5459161   3.5459167
 Gradient of XC Energy
            1           2           3           4           5
    1   0.0003299   0.0000077   0.1910177  -0.0956777  -0.0956777
    2   0.0000000  -0.0000000   0.0000000  -0.1657557   0.1657557
    3  -0.0111266   0.1709977  -0.0531553  -0.0533579  -0.0533579
 Gradient of SCF Energy
            1           2           3           4           5
    1  -0.0000038  -0.0000215  -0.0000246   0.0000249   0.0000249
    2  -0.0000000  -0.0000000   0.0000000   0.0000135  -0.0000135
    3  -0.0012630  -0.0000638   0.0004598   0.0004335   0.0004335
 Max gradient component =       1.263E-03
 RMS gradient           =       3.820E-04
 Gradient time:  CPU 170.58 s  wall 170.95 s
 Geometry Optimization Parameters
   NAtoms,    NIC,     NZ,  NCons,   NDum,   NFix, NCnnct, MaxDiis
        5      20       5       0       0       0       0       0

 Cartesian Hessian Update
 Hessian Updated using BFGS Update


** GEOMETRY OPTIMIZATION IN DELOCALIZED INTERNAL COORDINATES **
   Searching for a Minimum

   Optimization Cycle:   3

                       Coordinates (Angstroms)
     ATOM              X           Y           Z
    1  C          -0.000052    0.000000   -0.006478
    2  H           0.000221    0.000000    1.084345
    3  Cl          1.660351    0.000000   -0.535136
    4  Cl         -0.830260   -1.436968   -0.535341
    5  Cl         -0.830260    1.436968   -0.535341
   Point Group: c1    Number of degrees of freedom:   9


   Energy is  -1413.260778723

 Hessian Updated using BFGS Update

  6 Hessian modes will be used to form the next step
  Hessian Eigenvalues:
     0.159980    0.235588    0.250012    0.271055    0.313162    0.351853

 Minimum Search - Taking Simple RFO Step
 Searching for Lamda that Minimizes Along All modes
 Value Taken    Lamda =  -0.00001167
 Step Taken.  Stepsize is  0.006728

                             Maximum     Tolerance    Cnvgd?
         Gradient           0.001588      0.000300      NO
         Displacement       0.005734      0.001200      NO
         Energy change     -0.000102      0.000001      NO


 New Cartesian Coordinates Obtained by Inverse Iteration

 Displacement from previous Coordinates is:  0.010197
 Writing REM_CC_EA            5
 ----------------------------------------------------
       Standard Nuclear Orientation (Angstroms)
    I     Atom         X            Y            Z
 ----------------------------------------------------
    1      C      -0.000040     0.000000    -0.003675
    2      H       0.000262     0.000000     1.087209
    3      Cl      1.659490     0.000000    -0.536996
    4      Cl     -0.829856    -1.436167    -0.537244
    5      Cl     -0.829856     1.436167    -0.537244
 ----------------------------------------------------
 Nuclear Repulsion Energy =   267.1272171860 hartrees
 There are       29 alpha and       29 beta electrons
 Applying Cartesian multipole field
    Component          Value
    ---------          -----
     (2,0,0)        1.00000E-11
     (0,2,0)        2.00000E-11
     (0,0,2)       -3.00000E-11
 Nucleus-field energy     =     0.0000000058 hartrees
 Requested basis set is G3large
 There are 73 shells and 250 basis functions
 A cutoff of  1.0D-11 yielded   2386 shell pairs
 There are  28456 function pairs ( 39445 Cartesian)
Evaluating contribution to one-electron hamiltonian from nuclear
 Smallest overlap matrix eigenvalue = 7.48E-05
 Multipole matrices computed through 2nd order
 Guess MOs from SCF MO coefficient file
Reading MOs from coefficient file
Reading MOs from coefficient file
 A restricted hybrid HF-DFT SCF calculation will be
 performed using Pulay DIIS extrapolation
 Exchange:     1.0000 Hartree-Fock + 1.0000 BNL
 Correlation:  1.0000 LYP
 Using SG-1 standard quadrature grid
 SCF converges when DIIS error is below 1.0E-08
 ---------------------------------------
  Cycle       Energy         DIIS Error
 ---------------------------------------
    1   -1413.2598895830      6.71E-05
    2   -1413.2607829790      9.31E-06
    3   -1413.2607839758      6.24E-06
    4   -1413.2607843066      2.44E-06
    5   -1413.2607843891      9.26E-07
    6   -1413.2607844123      2.53E-07
    7   -1413.2607844074      6.59E-08
    8   -1413.2607844030      1.23E-08
    9   -1413.2607844030      3.51E-09 Convergence criterion met
 ---------------------------------------
 One-Electron    Energy = -2488.9673469919
 Total Coulomb   Energy =   892.8634947930
 Alpha Exchange  Energy =    -6.2703576057
 Beta  Exchange  Energy =    -6.2703576057
 DFT   Exchange  Energy =   -69.3772026665
 DFT Correlation Energy =    -2.3662315180
 Nuclear Repu.   Energy =   267.1272171918
 Nuclear Attr.   Energy = -3899.8801726292
 Kinetic         Energy =  1410.9128256373
 SCF time:  CPU 252.23 s  wall 256.45 s
 Final Alpha MO Eigenvalues
            1           2           3           4           5           6
    1-100.5275852-100.5275501-100.5275500 -10.1728366  -9.3819567  -9.3819365
            7           8           9          10          11          12
    1  -9.3819237  -7.2357755  -7.2357709  -7.2356481  -7.2240349  -7.2239116
           13          14          15          16          17          18
    1  -7.2239088  -7.2238758  -7.2237885  -7.2237858  -1.1164859  -0.9979015
           19          20          21          22          23          24
    1  -0.9978975  -0.7899260  -0.6517002  -0.6117615  -0.6117393  -0.4863615
           25          26          27          28          29          30
    1  -0.4863106  -0.4511911  -0.4511431  -0.4438668  -0.4301694   0.0321609
           31          32          33          34
    1   0.0507535   0.0707061   0.0707322   0.0863397
 Analysis of SCF Wavefunction
 
 --------------------------------------------------------------
                    Orbital Energies (a.u.)
 --------------------------------------------------------------
 
 Alpha MOs
 -- Occupied --
*******-100.528-100.528 -10.173  -9.382  -9.382  -9.382  -7.236
 -7.236  -7.236  -7.224  -7.224  -7.224  -7.224  -7.224  -7.224
 -1.116  -0.998  -0.998  -0.790  -0.652  -0.612  -0.612  -0.486
 -0.486  -0.451  -0.451  -0.444  -0.430
 -- Virtual --
  0.032   0.051   0.071   0.071   0.086   0.105   0.105   0.127
  0.127   0.135   0.148   0.148   0.164   0.170   0.175   0.175
  0.182   0.194   0.218   0.218   0.309   0.330   0.330   0.363
  0.363   0.380   0.425   0.429   0.434   0.434   0.442   0.442
  0.483   0.506   0.508   0.508   0.553   0.553   0.554   0.582
  0.582   0.618   0.652   0.652   0.660   0.756   0.772   0.772
  0.798   0.927   0.959   0.959   0.999   0.999   1.049   1.093
  1.093   1.129   1.131   1.131   1.163   1.187   1.187   1.191
  1.195   1.202   1.202   1.214   1.214   1.241   1.254   1.256
  1.256   1.313   1.313   1.313   1.388   1.389   1.487   1.490
  1.490   1.520   1.556   1.559   1.559   1.588   1.667   1.667
  1.731   1.731   1.772   1.808   1.808   1.827   1.854   1.854
  2.000   2.268   2.282   2.282   2.334   2.363   2.363   2.407
  2.407   2.647   2.792   3.108   3.108   3.232   3.293   3.293
  3.424   3.432   3.480   3.480   3.585   3.686   3.687   3.870
  3.870   3.964   4.343   4.343   4.410   4.410   4.430   4.445
  4.448   4.448   4.471   4.494   4.495   4.524   4.524   4.535
  4.589   4.589   4.606   4.662   4.662   4.705   4.729   4.735
  4.735   5.108   5.116   5.116   5.133   5.133   5.144   5.234
  5.315   5.315   5.358   5.358   5.409   5.509   5.879   5.880
  5.914   9.908   9.909   9.909  20.577  20.577  20.584  20.600
 20.621  20.621  20.838  20.839  20.918  24.009  27.125  27.136
 27.146  27.154  27.197  27.201  27.227  27.232  27.234  27.238
 27.272  27.288  27.289  27.321  27.361  28.046  28.056  28.057
 36.862  36.863  36.864  36.866  36.866  36.866  36.869  36.872
 36.873  36.876  36.876  36.880  36.880  36.882  36.887  36.890
 36.892  36.896  36.897  36.902  36.904  40.787  40.831  41.107
 41.111  41.128 216.373 216.374 216.400
 --------------------------------------------------------------
 
          Ground-State Mulliken Net Atomic Charges

     Atom                 Charge (a.u.)
  ----------------------------------------
      1 C                     0.481909
      2 H                     0.102742
      3 Cl                   -0.195248
      4 Cl                   -0.194702
      5 Cl                   -0.194702
  ----------------------------------------
  Sum of atomic charges =     0.000000

 -----------------------------------------------------------------
                    Cartesian Multipole Moments
 -----------------------------------------------------------------
    Charge (ESU x 10^10)
                 0.0000
    Dipole Moment (Debye)
         X      -0.0013      Y       0.0000      Z       1.1105
       Tot       1.1105
    Quadrupole Moments (Debye-Ang)
        XX     -44.6636     XY       0.0000     YY     -44.6653
        XZ       0.0011     YZ       0.0000     ZZ     -43.4996
    Octapole Moments (Debye-Ang^2)
       XXX       3.7454    XXY       0.0000    XYY      -3.7468
       YYY       0.0000    XXZ      17.3761    XYZ       0.0000
       YYZ      17.3766    XZZ      -0.0001    YZZ       0.0000
       ZZZ      61.8668
    Hexadecapole Moments (Debye-Ang^3)
      XXXX    -349.4438   XXXY       0.0000   XXYY    -116.4075
      XYYY       0.0000   YYYY    -349.0464   XXXZ      -5.6207
      XXYZ       0.0000   XYYZ       5.6020   YYYZ       0.0000
      XXZZ     -79.5509   XYZZ       0.0000   YYZZ     -79.4694
      XZZZ      -0.0173   YZZZ       0.0000   ZZZZ    -121.6495
 -----------------------------------------------------------------
 Calculating analytic gradient of the SCF energy
 Gradient of AOints
            1           2           3           4           5
    1  -0.0086591  -0.0013968 -27.7883312  13.8991934  13.8991937
    2  -0.0000003   0.0000002   0.0000002  24.0643320 -24.0643320
    3  -3.7983834  -6.9639331   3.5806083   3.5908541   3.5908541
 Gradient of XC Energy
            1           2           3           4           5
    1   0.0003425   0.0000150   0.1906632  -0.0955103  -0.0955103
    2   0.0000000  -0.0000000  -0.0000000  -0.1654483   0.1654483
    3  -0.0092555   0.1711235  -0.0538092  -0.0540294  -0.0540294
 Gradient of SCF Energy
            1           2           3           4           5
    1   0.0000070  -0.0000177   0.0000343  -0.0000118  -0.0000118
    2   0.0000000  -0.0000000  -0.0000000  -0.0000380   0.0000380
    3   0.0000392   0.0000067   0.0000136  -0.0000298  -0.0000298
 Max gradient component =       3.916E-05
 RMS gradient           =       2.345E-05
 Gradient time:  CPU 170.69 s  wall 171.01 s
 Geometry Optimization Parameters
   NAtoms,    NIC,     NZ,  NCons,   NDum,   NFix, NCnnct, MaxDiis
        5      20       5       0       0       0       0       0

 Cartesian Hessian Update
 Hessian Updated using BFGS Update


** GEOMETRY OPTIMIZATION IN DELOCALIZED INTERNAL COORDINATES **
   Searching for a Minimum

   Optimization Cycle:   4

                       Coordinates (Angstroms)
     ATOM              X           Y           Z
    1  C          -0.000040    0.000000   -0.003675
    2  H           0.000262    0.000000    1.087209
    3  Cl          1.659490    0.000000   -0.536996
    4  Cl         -0.829856   -1.436167   -0.537244
    5  Cl         -0.829856    1.436167   -0.537244
   Point Group: c1    Number of degrees of freedom:   9


   Energy is  -1413.260784403

 Hessian Updated using BFGS Update

  7 Hessian modes will be used to form the next step
  Hessian Eigenvalues:
     0.159981    0.246620    0.250000    0.250031    0.271146    0.304489
     0.352023

 Minimum Search - Taking Simple RFO Step
 Searching for Lamda that Minimizes Along All modes
 Value Taken    Lamda =   0.00000000
 Step Taken.  Stepsize is  0.000279

                             Maximum     Tolerance    Cnvgd?
         Gradient           0.000065      0.000300     YES
         Displacement       0.000239      0.001200     YES
         Energy change     -0.000006      0.000001      NO


                       Distance Matrix (Angstroms)
             C (  1)   H (  2)   Cl(  3)   Cl(  4)
   H (  2)  1.090884
   Cl(  3)  1.743122  2.321870
   Cl(  4)  1.742374  2.321750  2.873921
   Cl(  5)  1.742374  2.321750  2.873921  2.872334
 


 ******************************
 **  OPTIMIZATION CONVERGED  **
 ******************************
 Analysis of SCF Wavefunction
 
 --------------------------------------------------------------
                    Orbital Energies (a.u.)
 --------------------------------------------------------------
 
 Alpha MOs
 -- Occupied --
*******-100.528-100.528 -10.173  -9.382  -9.382  -9.382  -7.236
 -7.236  -7.236  -7.224  -7.224  -7.224  -7.224  -7.224  -7.224
 -1.116  -0.998  -0.998  -0.790  -0.652  -0.612  -0.612  -0.486
 -0.486  -0.451  -0.451  -0.444  -0.430
 -- Virtual --
  0.032   0.051   0.071   0.071   0.086   0.105   0.105   0.127
  0.127   0.135   0.148   0.148   0.164   0.170   0.175   0.175
  0.182   0.194   0.218   0.218   0.309   0.330   0.330   0.363
  0.363   0.380   0.425   0.429   0.434   0.434   0.442   0.442
  0.483   0.506   0.508   0.508   0.553   0.553   0.554   0.582
  0.582   0.618   0.652   0.652   0.660   0.756   0.772   0.772
  0.798   0.927   0.959   0.959   0.999   0.999   1.049   1.093
  1.093   1.129   1.131   1.131   1.163   1.187   1.187   1.191
  1.195   1.202   1.202   1.214   1.214   1.241   1.254   1.256
  1.256   1.313   1.313   1.313   1.388   1.389   1.487   1.490
  1.490   1.520   1.556   1.559   1.559   1.588   1.667   1.667
  1.731   1.731   1.772   1.808   1.808   1.827   1.854   1.854
  2.000   2.268   2.282   2.282   2.334   2.363   2.363   2.407
  2.407   2.647   2.792   3.108   3.108   3.232   3.293   3.293
  3.424   3.432   3.480   3.480   3.585   3.686   3.687   3.870
  3.870   3.964   4.343   4.343   4.410   4.410   4.430   4.445
  4.448   4.448   4.471   4.494   4.495   4.524   4.524   4.535
  4.589   4.589   4.606   4.662   4.662   4.705   4.729   4.735
  4.735   5.108   5.116   5.116   5.133   5.133   5.144   5.234
  5.315   5.315   5.358   5.358   5.409   5.509   5.879   5.880
  5.914   9.908   9.909   9.909  20.577  20.577  20.584  20.600
 20.621  20.621  20.838  20.839  20.918  24.009  27.125  27.136
 27.146  27.154  27.197  27.201  27.227  27.232  27.234  27.238
 27.272  27.288  27.289  27.321  27.361  28.046  28.056  28.057
 36.862  36.863  36.864  36.866  36.866  36.866  36.869  36.872
 36.873  36.876  36.876  36.880  36.880  36.882  36.887  36.890
 36.892  36.896  36.897  36.902  36.904  40.787  40.831  41.107
 41.111  41.128 216.373 216.374 216.400
 --------------------------------------------------------------
 
          Ground-State Mulliken Net Atomic Charges

     Atom                 Charge (a.u.)
  ----------------------------------------
      1 C                     0.481909
      2 H                     0.102742
      3 Cl                   -0.195248
      4 Cl                   -0.194702
      5 Cl                   -0.194702
  ----------------------------------------
  Sum of atomic charges =     0.000000

 -----------------------------------------------------------------
                    Cartesian Multipole Moments
 -----------------------------------------------------------------
    Charge (ESU x 10^10)
                 0.0000
    Dipole Moment (Debye)
         X      -0.0013      Y       0.0000      Z       1.1105
       Tot       1.1105
    Quadrupole Moments (Debye-Ang)
        XX     -44.6636     XY       0.0000     YY     -44.6653
        XZ       0.0011     YZ       0.0000     ZZ     -43.4996
    Octapole Moments (Debye-Ang^2)
       XXX       3.7454    XXY       0.0000    XYY      -3.7468
       YYY       0.0000    XXZ      17.3761    XYZ       0.0000
       YYZ      17.3766    XZZ      -0.0001    YZZ       0.0000
       ZZZ      61.8668
    Hexadecapole Moments (Debye-Ang^3)
      XXXX    -349.4438   XXXY       0.0000   XXYY    -116.4075
      XYYY       0.0000   YYYY    -349.0464   XXXZ      -5.6207
      XXYZ       0.0000   XYYZ       5.6020   YYYZ       0.0000
      XXZZ     -79.5509   XYZZ       0.0000   YYZZ     -79.4694
      XZZZ      -0.0173   YZZZ       0.0000   ZZZZ    -121.6495
 -----------------------------------------------------------------
 Total job time:  1928.91s(wall), 1909.36s(cpu) 
 Sun Apr 17 21:48:54 2011

        *************************************************************
        *                                                           *
        *  Thank you very much for using Q-Chem.  Have a nice day.  *
        *                                                           *
        *************************************************************


0 sent ACK to 0 
now end server 0 ... 
 
**********************************************************************
Job 2 of 2 
**********************************************************************
 
Process 0 of 1 is on cl226.stfx.acenet.ca - thread support 1
initial socket setup ...start
initial socket setup ...done 
now start server 0 ... 

cmd = /usr/bin/ssh clhead /usr/local/qchem/bin/get_hostid 659477432 > /scratch/tmp/4503950.1.medium.q/qchem9532/lic.dat
                  Welcome to Q-Chem
     A Quantum Leap Into The Future Of Chemistry

 Y. Shao, L. Fusti-Molnar, Y. Jung, J. Kussmann, C. Ochsenfeld,
 S. T. Brown, A. T. B. Gilbert, L. V. Slipchenko,S. V. Levchenko,
 D. P. O'Neill, R. A. DiStasio Jr., R. C. Lochan, T. Wang,
 G. J. O. Beran, N. A. Besley, J. M. Herbert, C. Y. Lin,
 T. Van Voorhis, S. H. Chien, A. Sodt, R. P. Steele, 
 V. A. Rassolov, P. E. Maslen, P. P. Korambath, R. D. Adamson,
 B. Austin, J. Baker, E. F. C. Byrd, H. Dachsel, R. J. Doerksen,
 A. Dreuw, B. D. Dunietz, A. D. Dutoi, T. R. Furlani,
 S. R. Gwaltney, A. Heyden, S. Hirata, C.-P. Hsu, G. Kedziora,
 R. Z. Khaliullin, P. Klunzinger, A. M. Lee, M. S. Lee, W. Liang,
 I. Lotan, N. Nair, B. Peters, E. I. Proynov, P. A. Pieniazek, 
 Y. M. Rhee, J. Ritchie, E. Rosta, C. D. Sherrill, 
 A. C. Simmonett, J. E. Subotnik, H. L. Woodcock III,
 W. Zhang, A. T. Bell, A. K. Chakraborty, D. M. Chipman,
 F. J. Keil, A. Warshel, W. J. Hehre, H. F. Schaefer III,
 J. Kong, A. I. Krylov, P. M. W. Gill, M. Head-Gordon,
 Q-Chem, Version 3.1, Q-Chem, Inc., Pittsburgh, PA (2007).

 Additional authors for Version 3.1: 
 Z. Gan, Y. Zhao, N. E. Schultz, D. Truhlar, E. Epifanovsky and M. Oana.

 Additional authors for Version 3.2: 
 R. Baer, B. R. Brooks, D. Casanova, J.-D. Chai, C.-L. Cheng, 
 C. Cramer, D. Crittenden, A. Ghysels, G. Hawkins, E. G. Hohenstein, 
 C. Kelley, W. Kurlancheek, D. Liotard, E. Livshits, P. Manohar, 
 A. Marenich, D. Neuhauser, R. Olson, M. A. Rohrdanz, K. S. Thanthiriwatte, 
 A. J. W. Thom, V. Vanovschi, C. F. Williams, Q. Wu and Z.-Q. You. 


 Intel X86 Linux Version

 Q-chem begins on Sun Apr 17 21:48:57 2011  

 Parallel job on  1  processors
Processing $rem in /usr/local/qchem/config/preferences.

theFileMan(): MAXOPENFILES=974 MAX_SUB_FILE_NUM=16
Maximum size of a physical file is 2.0 GB, maximum size of a tmp-file is 32.0 GB


--------------------------------------------------------------
User input:
--------------------------------------------------------------

$molecule 
READ 
$end 

$xc_functional
   X HF 1.0
   X BNL 1.0
   C LYP 1.0
$end

$rem
SYMMETRY_DECOMPOSITION	0
exchange 		general
BASIS                   g3large
omega			420 
JOBTYPE                 freq
IDERIV 0
SCF_GUESS READ
separate_jk		true
mem_static              760
max_scf_cycles          200
scf_final_print         1
sym_ignore              true
$end

--------------------------------------------------------------
 Writing REM_CC_EA            5
 ----------------------------------------------------
       Standard Nuclear Orientation (Angstroms)
    I     Atom         X            Y            Z
 ----------------------------------------------------
    1      C      -0.000040     0.000000    -0.003675
    2      H       0.000262     0.000000     1.087209
    3      Cl      1.659490     0.000000    -0.536996
    4      Cl     -0.829856    -1.436167    -0.537244
    5      Cl     -0.829856     1.436167    -0.537244
 ----------------------------------------------------
 Nuclear Repulsion Energy =   267.1272171860 hartrees
 There are       29 alpha and       29 beta electrons
 Requested basis set is G3large
 There are 73 shells and 250 basis functions

Total QAlloc Memory Limit   2000 MB
Mega-Array Size       759 MB
MEM_STATIC part       760 MB

                       Distance Matrix (Angstroms)
             C (  1)   H (  2)   Cl(  3)   Cl(  4)
   H (  2)  1.090884
   Cl(  3)  1.743122  2.321870
   Cl(  4)  1.742374  2.321750  2.873921
   Cl(  5)  1.742374  2.321750  2.873921  2.872334
 
 A cutoff of  1.0D-11 yielded   2386 shell pairs
 There are  28456 function pairs ( 39445 Cartesian)
Evaluating contribution to one-electron hamiltonian from nuclear
 Smallest overlap matrix eigenvalue = 7.48E-05
 Multipole matrices computed through 2nd order
 Guess MOs from SCF MO coefficient file
Reading MOs from coefficient file
Reading MOs from coefficient file
 A restricted hybrid HF-DFT SCF calculation will be
 performed using Pulay DIIS extrapolation
 Exchange:     1.0000 Hartree-Fock + 1.0000 BNL
 Correlation:  1.0000 LYP
 Using SG-1 standard quadrature grid
 SCF converges when DIIS error is below 1.0E-08
 ---------------------------------------
  Cycle       Energy         DIIS Error
 ---------------------------------------
    1   -1413.2607844219      1.12E-09
    2   -1413.2607844212      5.37E-10 Convergence criterion met
 ---------------------------------------
 One-Electron    Energy = -2488.9673481928
 Total Coulomb   Energy =   892.8634961003
 Alpha Exchange  Energy =    -6.2703576148
 Beta  Exchange  Energy =    -6.2703576148
 DFT   Exchange  Energy =   -69.3772027644
 DFT Correlation Energy =    -2.3662315207
 Nuclear Repu.   Energy =   267.1272171860
 Nuclear Attr.   Energy = -3899.8801751753
 Kinetic         Energy =  1410.9128269825
 SCF time:  CPU 70.66 s  wall 71.63 s
 Final Alpha MO Eigenvalues
            1           2           3           4           5           6
    1-100.5275852-100.5275501-100.5275500 -10.1728366  -9.3819567  -9.3819365
            7           8           9          10          11          12
    1  -9.3819237  -7.2357755  -7.2357709  -7.2356480  -7.2240348  -7.2239116
           13          14          15          16          17          18
    1  -7.2239088  -7.2238758  -7.2237885  -7.2237858  -1.1164859  -0.9979015
           19          20          21          22          23          24
    1  -0.9978975  -0.7899260  -0.6517002  -0.6117615  -0.6117393  -0.4863615
           25          26          27          28          29          30
    1  -0.4863106  -0.4511911  -0.4511431  -0.4438668  -0.4301694   0.0321609
           31          32          33          34
    1   0.0507535   0.0707061   0.0707322   0.0863397
 Analysis of SCF Wavefunction
 
 --------------------------------------------------------------
                    Orbital Energies (a.u.)
 --------------------------------------------------------------
 
 Alpha MOs
 -- Occupied --
*******-100.528-100.528 -10.173  -9.382  -9.382  -9.382  -7.236
 -7.236  -7.236  -7.224  -7.224  -7.224  -7.224  -7.224  -7.224
 -1.116  -0.998  -0.998  -0.790  -0.652  -0.612  -0.612  -0.486
 -0.486  -0.451  -0.451  -0.444  -0.430
 -- Virtual --
  0.032   0.051   0.071   0.071   0.086   0.105   0.105   0.127
  0.127   0.135   0.148   0.148   0.164   0.170   0.175   0.175
  0.182   0.194   0.218   0.218   0.309   0.330   0.330   0.363
  0.363   0.380   0.425   0.429   0.434   0.434   0.442   0.442
  0.483   0.506   0.508   0.508   0.553   0.553   0.554   0.582
  0.582   0.618   0.652   0.652   0.660   0.756   0.772   0.772
  0.798   0.927   0.959   0.959   0.999   0.999   1.049   1.093
  1.093   1.129   1.131   1.131   1.163   1.187   1.187   1.191
  1.195   1.202   1.202   1.214   1.214   1.241   1.254   1.256
  1.256   1.313   1.313   1.313   1.388   1.389   1.487   1.490
  1.490   1.520   1.556   1.559   1.559   1.588   1.667   1.667
  1.731   1.731   1.772   1.808   1.808   1.827   1.854   1.854
  2.000   2.268   2.282   2.282   2.334   2.363   2.363   2.407
  2.407   2.647   2.792   3.108   3.108   3.232   3.293   3.293
  3.424   3.432   3.480   3.480   3.585   3.686   3.687   3.870
  3.870   3.964   4.343   4.343   4.410   4.410   4.430   4.445
  4.448   4.448   4.471   4.494   4.495   4.524   4.524   4.535
  4.589   4.589   4.606   4.662   4.662   4.705   4.729   4.735
  4.735   5.108   5.116   5.116   5.133   5.133   5.144   5.234
  5.315   5.315   5.358   5.358   5.409   5.509   5.879   5.880
  5.914   9.908   9.909   9.909  20.577  20.577  20.584  20.600
 20.621  20.621  20.838  20.839  20.918  24.009  27.125  27.136
 27.146  27.154  27.197  27.201  27.227  27.232  27.234  27.238
 27.272  27.288  27.289  27.321  27.361  28.046  28.056  28.057
 36.862  36.863  36.864  36.866  36.866  36.866  36.869  36.872
 36.873  36.876  36.876  36.880  36.880  36.882  36.887  36.890
 36.892  36.896  36.897  36.902  36.904  40.787  40.831  41.107
 41.111  41.128 216.373 216.374 216.400
 --------------------------------------------------------------
 
          Ground-State Mulliken Net Atomic Charges

     Atom                 Charge (a.u.)
  ----------------------------------------
      1 C                     0.481909
      2 H                     0.102742
      3 Cl                   -0.195247
      4 Cl                   -0.194702
      5 Cl                   -0.194702
  ----------------------------------------
  Sum of atomic charges =     0.000000

 -----------------------------------------------------------------
                    Cartesian Multipole Moments
 -----------------------------------------------------------------
    Charge (ESU x 10^10)
                 0.0000
    Dipole Moment (Debye)
         X      -0.0013      Y       0.0000      Z       1.1105
       Tot       1.1105
    Quadrupole Moments (Debye-Ang)
        XX     -44.6636     XY       0.0000     YY     -44.6653
        XZ       0.0011     YZ       0.0000     ZZ     -43.4996
    Octapole Moments (Debye-Ang^2)
       XXX       3.7454    XXY       0.0000    XYY      -3.7468
       YYY       0.0000    XXZ      17.3761    XYZ       0.0000
       YYZ      17.3766    XZZ      -0.0001    YZZ       0.0000
       ZZZ      61.8668
    Hexadecapole Moments (Debye-Ang^3)
      XXXX    -349.4438   XXXY       0.0000   XXYY    -116.4075
      XYYY       0.0000   YYYY    -349.0464   XXXZ      -5.6207
      XXYZ       0.0000   XYYZ       5.6020   YYYZ       0.0000
      XXZZ     -79.5509   XYZZ       0.0000   YYZZ     -79.4694
      XZZZ      -0.0173   YZZZ       0.0000   ZZZZ    -121.6495
 -----------------------------------------------------------------
 No analytic derivatives required
 ######################################################
 ######################################################
 # Starting finite difference calculation for IDERIV  #
 Finite diff step size: 1.89e-03 a.u.
 Writing REM_CC_EA            5
 ----------------------------------------------------
       Standard Nuclear Orientation (Angstroms)
    I     Atom         X            Y            Z
 ----------------------------------------------------
    1      C       0.001960     0.000000    -0.003675
    2      H       0.000262     0.000000     1.087209
    3      Cl      1.659490     0.000000    -0.536996
    4      Cl     -0.829856    -1.436167    -0.537244
    5      Cl     -0.829856     1.436167    -0.537244
 ----------------------------------------------------
 Nuclear Repulsion Energy =   267.1271902179 hartrees
 There are       29 alpha and       29 beta electrons

                       Distance Matrix (Angstroms)
             C (  1)   H (  2)   Cl(  3)   Cl(  4)
   H (  2)  1.090885
   Cl(  3)  1.741218  2.321870
   Cl(  4)  1.743327  2.321750  2.873921
   Cl(  5)  1.743327  2.321750  2.873921  2.872334
 
 Requested basis set is G3large
 There are 73 shells and 250 basis functions
 A cutoff of  1.0D-11 yielded   2386 shell pairs
 There are  28456 function pairs ( 39445 Cartesian)
Evaluating contribution to one-electron hamiltonian from nuclear
 Smallest overlap matrix eigenvalue = 7.48E-05
 Multipole matrices computed through 2nd order
 Guess MOs from SCF MO coefficient file
Reading MOs from coefficient file
Reading MOs from coefficient file
 A restricted hybrid HF-DFT SCF calculation will be
 performed using Pulay DIIS extrapolation
 Exchange:     1.0000 Hartree-Fock + 1.0000 BNL
 Correlation:  1.0000 LYP
 Using SG-1 standard quadrature grid
 SCF converges when DIIS error is below 1.0E-08
 ---------------------------------------
  Cycle       Energy         DIIS Error
 ---------------------------------------
    1   -1413.2607806821      5.08E-05
    2   -1413.2607816139      8.67E-06
    3   -1413.2607820854      5.71E-06
    4   -1413.2607822575      7.76E-07
    5   -1413.2607822606      2.67E-07
    6   -1413.2607822642      7.34E-08
    7   -1413.2607822638      2.55E-08
    8   -1413.2607822643      9.67E-09 Convergence criterion met
 ---------------------------------------
 One-Electron    Energy = -2488.9672957590
 Total Coulomb   Energy =   892.8634712762
 Alpha Exchange  Energy =    -6.2703574646
 Beta  Exchange  Energy =    -6.2703574646
 DFT   Exchange  Energy =   -69.3772014400
 DFT Correlation Energy =    -2.3662316302
 Nuclear Repu.   Energy =   267.1271902179
 Nuclear Attr.   Energy = -3899.8801152839
 Kinetic         Energy =  1410.9128195249
 SCF time:  CPU 222.30 s  wall 226.20 s
 Final Alpha MO Eigenvalues
            1           2           3           4           5           6
    1-100.5278128-100.5274364-100.5274364 -10.1728364  -9.3822054  -9.3818111
            7           8           9          10          11          12
    1  -9.3818001  -7.2358940  -7.2356530  -7.2356486  -7.2242843  -7.2241224
           13          14          15          16          17          18
    1  -7.2237878  -7.2237850  -7.2236636  -7.2236609  -1.1164863  -0.9981640
           19          20          21          22          23          24
    1  -0.9976342  -0.7899259  -0.6517006  -0.6118644  -0.6116364  -0.4864485
           25          26          27          28          29          30
    1  -0.4862235  -0.4513168  -0.4510180  -0.4438664  -0.4301680   0.0321609
           31          32          33          34
    1   0.0507532   0.0706669   0.0707697   0.0863400
 Analysis of SCF Wavefunction
 
 --------------------------------------------------------------
                    Orbital Energies (a.u.)
 --------------------------------------------------------------
 
 Alpha MOs
 -- Occupied --
*******-100.527-100.527 -10.173  -9.382  -9.382  -9.382  -7.236
 -7.236  -7.236  -7.224  -7.224  -7.224  -7.224  -7.224  -7.224
 -1.116  -0.998  -0.998  -0.790  -0.652  -0.612  -0.612  -0.486
 -0.486  -0.451  -0.451  -0.444  -0.430
 -- Virtual --
  0.032   0.051   0.071   0.071   0.086   0.105   0.105   0.127
  0.127   0.135   0.148   0.148   0.164   0.170   0.175   0.175
  0.182   0.194   0.218   0.218   0.309   0.330   0.330   0.363
  0.363   0.380   0.425   0.429   0.434   0.434   0.442   0.442
  0.483   0.506   0.508   0.508   0.553   0.553   0.554   0.582
  0.582   0.618   0.652   0.652   0.660   0.756   0.772   0.772
  0.798   0.927   0.959   0.959   0.999   0.999   1.049   1.093
  1.094   1.129   1.131   1.131   1.163   1.187   1.187   1.191
  1.195   1.202   1.202   1.214   1.214   1.241   1.254   1.256
  1.256   1.313   1.313   1.313   1.389   1.389   1.487   1.489
  1.490   1.520   1.556   1.558   1.559   1.588   1.666   1.667
  1.731   1.731   1.772   1.808   1.808   1.827   1.854   1.854
  2.000   2.268   2.282   2.282   2.334   2.363   2.363   2.407
  2.407   2.647   2.792   3.108   3.108   3.232   3.293   3.293
  3.424   3.432   3.480   3.480   3.585   3.686   3.687   3.870
  3.870   3.964   4.343   4.343   4.410   4.410   4.430   4.445
  4.448   4.448   4.471   4.494   4.495   4.523   4.524   4.535
  4.589   4.589   4.606   4.662   4.662   4.705   4.729   4.735
  4.735   5.108   5.116   5.116   5.133   5.133   5.144   5.234
  5.315   5.315   5.358   5.358   5.409   5.509   5.879   5.880
  5.914   9.908   9.908   9.909  20.577  20.577  20.584  20.600
 20.621  20.621  20.838  20.839  20.918  24.009  27.125  27.137
 27.146  27.154  27.197  27.201  27.227  27.232  27.234  27.238
 27.272  27.288  27.289  27.321  27.361  28.049  28.055  28.056
 36.862  36.863  36.864  36.865  36.866  36.866  36.869  36.872
 36.873  36.875  36.876  36.880  36.880  36.882  36.887  36.890
 36.892  36.896  36.897  36.902  36.904  40.787  40.831  41.107
 41.111  41.128 216.373 216.374 216.400
 --------------------------------------------------------------
 
          Ground-State Mulliken Net Atomic Charges

     Atom                 Charge (a.u.)
  ----------------------------------------
      1 C                     0.481902
      2 H                     0.102744
      3 Cl                   -0.194152
      4 Cl                   -0.195247
      5 Cl                   -0.195247
  ----------------------------------------
  Sum of atomic charges =     0.000000

 -----------------------------------------------------------------
                    Cartesian Multipole Moments
 -----------------------------------------------------------------
    Charge (ESU x 10^10)
                 0.0000
    Dipole Moment (Debye)
         X       0.0102      Y       0.0000      Z       1.1105
       Tot       1.1106
    Quadrupole Moments (Debye-Ang)
        XX     -44.6493     XY       0.0000     YY     -44.6796
        XZ      -0.0045     YZ       0.0000     ZZ     -43.4996
    Octapole Moments (Debye-Ang^2)
       XXX       3.7524    XXY       0.0000    XYY      -3.7444
       YYY       0.0000    XXZ      17.3660    XYZ       0.0000
       YYZ      17.3867    XZZ       0.0021    YZZ       0.0000
       ZZZ      61.8668
    Hexadecapole Moments (Debye-Ang^3)
      XXXX    -349.3452   XXXY       0.0000   XXYY    -116.3916
      XYYY       0.0000   YYYY    -349.1771   XXXZ      -5.6394
      XXYZ       0.0000   XYYZ       5.5958   YYYZ       0.0000
      XXZZ     -79.5316   XYZZ       0.0000   YYZZ     -79.4888
      XZZZ      -0.0354   YZZZ       0.0000   ZZZZ    -121.6495
 -----------------------------------------------------------------
 Writing REM_CC_EA            5
 ----------------------------------------------------
       Standard Nuclear Orientation (Angstroms)
    I     Atom         X            Y            Z
 ----------------------------------------------------
    1      C      -0.000040     0.000000    -0.003675
    2      H       0.000262     0.000000     1.087209
    3      Cl      1.659490     0.000000    -0.536996
    4      Cl     -0.829856    -1.436167    -0.537244
    5      Cl     -0.829856     1.436167    -0.537244
 ----------------------------------------------------
 Nuclear Repulsion Energy =   267.1272171860 hartrees
 There are       29 alpha and       29 beta electrons

                       Distance Matrix (Angstroms)
             C (  1)   H (  2)   Cl(  3)   Cl(  4)
   H (  2)  1.090884
   Cl(  3)  1.743122  2.321870
   Cl(  4)  1.742374  2.321750  2.873921
   Cl(  5)  1.742374  2.321750  2.873921  2.872334
 
 Requested basis set is G3large
 There are 73 shells and 250 basis functions
 A cutoff of  1.0D-11 yielded   2386 shell pairs
 There are  28456 function pairs ( 39445 Cartesian)
Evaluating contribution to one-electron hamiltonian from nuclear
 Smallest overlap matrix eigenvalue = 7.48E-05
 Multipole matrices computed through 2nd order
 Guess MOs from SCF MO coefficient file
Reading MOs from coefficient file
Reading MOs from coefficient file
 A restricted hybrid HF-DFT SCF calculation will be
 performed using Pulay DIIS extrapolation
 Exchange:     1.0000 Hartree-Fock + 1.0000 BNL
 Correlation:  1.0000 LYP
 Using SG-1 standard quadrature grid
 SCF converges when DIIS error is below 1.0E-08
 ---------------------------------------
  Cycle       Energy         DIIS Error
 ---------------------------------------
    1   -1413.2607861011      5.08E-05
    2   -1413.2607837859      8.67E-06
    3   -1413.2607842366      5.71E-06
    4   -1413.2607844103      7.76E-07
    5   -1413.2607844241      2.67E-07
    6   -1413.2607844243      7.30E-08
    7   -1413.2607844247      2.46E-08
    8   -1413.2607844244      5.91E-09 Convergence criterion met
 ---------------------------------------
 One-Electron    Energy = -2488.9673478546
 Total Coulomb   Energy =   892.8634957744
 Alpha Exchange  Energy =    -6.2703576158
 Beta  Exchange  Energy =    -6.2703576158
 DFT   Exchange  Energy =   -69.3772027785
 DFT Correlation Energy =    -2.3662315200
 Nuclear Repu.   Energy =   267.1272171860
 Nuclear Attr.   Energy = -3899.8801752224
 Kinetic         Energy =  1410.9128273678
 SCF time:  CPU 226.14 s  wall 231.05 s
 Final Alpha MO Eigenvalues
            1           2           3           4           5           6
    1-100.5275851-100.5275501-100.5275500 -10.1728367  -9.3819566  -9.3819365
            7           8           9          10          11          12
    1  -9.3819237  -7.2357755  -7.2357709  -7.2356480  -7.2240348  -7.2239117
           13          14          15          16          17          18
    1  -7.2239089  -7.2238757  -7.2237885  -7.2237858  -1.1164859  -0.9979016
           19          20          21          22          23          24
    1  -0.9978975  -0.7899260  -0.6517003  -0.6117615  -0.6117393  -0.4863615
           25          26          27          28          29          30
    1  -0.4863106  -0.4511911  -0.4511431  -0.4438668  -0.4301694   0.0321609
           31          32          33          34
    1   0.0507535   0.0707061   0.0707322   0.0863397
 Analysis of SCF Wavefunction
 
 --------------------------------------------------------------
                    Orbital Energies (a.u.)
 --------------------------------------------------------------
 
 Alpha MOs
 -- Occupied --
*******-100.528-100.528 -10.173  -9.382  -9.382  -9.382  -7.236
 -7.236  -7.236  -7.224  -7.224  -7.224  -7.224  -7.224  -7.224
 -1.116  -0.998  -0.998  -0.790  -0.652  -0.612  -0.612  -0.486
 -0.486  -0.451  -0.451  -0.444  -0.430
 -- Virtual --
  0.032   0.051   0.071   0.071   0.086   0.105   0.105   0.127
  0.127   0.135   0.148   0.148   0.164   0.170   0.175   0.175
  0.182   0.194   0.218   0.218   0.309   0.330   0.330   0.363
  0.363   0.380   0.425   0.429   0.434   0.434   0.442   0.442
  0.483   0.506   0.508   0.508   0.553   0.553   0.554   0.582
  0.582   0.618   0.652   0.652   0.660   0.756   0.772   0.772
  0.798   0.927   0.959   0.959   0.999   0.999   1.049   1.093
  1.093   1.129   1.131   1.131   1.163   1.187   1.187   1.191
  1.195   1.202   1.202   1.214   1.214   1.241   1.254   1.256
  1.256   1.313   1.313   1.313   1.388   1.389   1.487   1.490
  1.490   1.520   1.556   1.559   1.559   1.588   1.667   1.667
  1.731   1.731   1.772   1.808   1.808   1.827   1.854   1.854
  2.000   2.268   2.282   2.282   2.334   2.363   2.363   2.407
  2.407   2.647   2.792   3.108   3.108   3.232   3.293   3.293
  3.424   3.432   3.480   3.480   3.585   3.686   3.687   3.870
  3.870   3.964   4.343   4.343   4.410   4.410   4.430   4.445
  4.448   4.448   4.471   4.494   4.495   4.524   4.524   4.535
  4.589   4.589   4.606   4.662   4.662   4.705   4.729   4.735
  4.735   5.108   5.116   5.116   5.133   5.133   5.144   5.234
  5.315   5.315   5.358   5.358   5.409   5.509   5.879   5.880
  5.914   9.908   9.909   9.909  20.577  20.577  20.584  20.600
 20.621  20.621  20.838  20.839  20.918  24.009  27.125  27.136
 27.146  27.154  27.197  27.201  27.227  27.232  27.234  27.238
 27.272  27.288  27.289  27.321  27.361  28.046  28.056  28.057
 36.862  36.863  36.864  36.866  36.866  36.866  36.869  36.872
 36.873  36.876  36.876  36.880  36.880  36.882  36.887  36.890
 36.892  36.896  36.897  36.902  36.904  40.787  40.831  41.107
 41.111  41.128 216.373 216.374 216.400
 --------------------------------------------------------------
 
          Ground-State Mulliken Net Atomic Charges

     Atom                 Charge (a.u.)
  ----------------------------------------
      1 C                     0.481909
      2 H                     0.102742
      3 Cl                   -0.195248
      4 Cl                   -0.194702
      5 Cl                   -0.194702
  ----------------------------------------
  Sum of atomic charges =     0.000000

 -----------------------------------------------------------------
                    Cartesian Multipole Moments
 -----------------------------------------------------------------
    Charge (ESU x 10^10)
                 0.0000
    Dipole Moment (Debye)
         X      -0.0013      Y       0.0000      Z       1.1105
       Tot       1.1105
    Quadrupole Moments (Debye-Ang)
        XX     -44.6636     XY       0.0000     YY     -44.6653
        XZ       0.0011     YZ       0.0000     ZZ     -43.4996
    Octapole Moments (Debye-Ang^2)
       XXX       3.7454    XXY       0.0000    XYY      -3.7468
       YYY       0.0000    XXZ      17.3761    XYZ       0.0000
       YYZ      17.3766    XZZ      -0.0001    YZZ       0.0000
       ZZZ      61.8668
    Hexadecapole Moments (Debye-Ang^3)
      XXXX    -349.4438   XXXY       0.0000   XXYY    -116.4075
      XYYY       0.0000   YYYY    -349.0464   XXXZ      -5.6207
      XXYZ       0.0000   XYYZ       5.6021   YYYZ       0.0000
      XXZZ     -79.5509   XYZZ       0.0000   YYZZ     -79.4694
      XZZZ      -0.0173   YZZZ       0.0000   ZZZZ    -121.6495
 -----------------------------------------------------------------
 Writing REM_CC_EA            5
 ----------------------------------------------------
       Standard Nuclear Orientation (Angstroms)
    I     Atom         X            Y            Z
 ----------------------------------------------------
    1      C       0.000960     0.001000    -0.003675
    2      H       0.000262     0.000000     1.087209
    3      Cl      1.659490     0.000000    -0.536996
    4      Cl     -0.829856    -1.436167    -0.537244
    5      Cl     -0.829856     1.436167    -0.537244
 ----------------------------------------------------
 Nuclear Repulsion Energy =   267.1272036439 hartrees
 There are       29 alpha and       29 beta electrons

                       Distance Matrix (Angstroms)
             C (  1)   H (  2)   Cl(  3)   Cl(  4)
   H (  2)  1.090885
   Cl(  3)  1.742170  2.321870
   Cl(  4)  1.743675  2.321750  2.873921
   Cl(  5)  1.742027  2.321750  2.873921  2.872334
 
 Requested basis set is G3large
 There are 73 shells and 250 basis functions
 A cutoff of  1.0D-11 yielded   2386 shell pairs
 There are  28456 function pairs ( 39445 Cartesian)
Evaluating contribution to one-electron hamiltonian from nuclear
 Smallest overlap matrix eigenvalue = 7.48E-05
 Multipole matrices computed through 2nd order
 Guess MOs from SCF MO coefficient file
Reading MOs from coefficient file
Reading MOs from coefficient file
 A restricted hybrid HF-DFT SCF calculation will be
 performed using Pulay DIIS extrapolation
 Exchange:     1.0000 Hartree-Fock + 1.0000 BNL
 Correlation:  1.0000 LYP
 Using SG-1 standard quadrature grid
 SCF converges when DIIS error is below 1.0E-08
 ---------------------------------------
  Cycle       Energy         DIIS Error
 ---------------------------------------
    1   -1413.2607825387      3.59E-05
    2   -1413.2607830162      6.12E-06
    3   -1413.2607832470      4.03E-06
    4   -1413.2607833335      5.48E-07
    5   -1413.2607833401      1.89E-07
    6   -1413.2607833381      5.17E-08
    7   -1413.2607833389      1.76E-08
    8   -1413.2607833404      5.38E-09 Convergence criterion met
 ---------------------------------------
 One-Electron    Energy = -2488.9673217864
 Total Coulomb   Energy =   892.8634835620
 Alpha Exchange  Energy =    -6.2703575402
 Beta  Exchange  Energy =    -6.2703575402
 DFT   Exchange  Energy =   -69.3772021054
 DFT Correlation Energy =    -2.3662315743
 Nuclear Repu.   Energy =   267.1272036439
 Nuclear Attr.   Energy = -3899.8801452688
 Kinetic         Energy =  1410.9128234825
 SCF time:  CPU 221.85 s  wall 226.16 s
 Final Alpha MO Eigenvalues
            1           2           3           4           5           6
    1-100.5276991-100.5275915-100.5273949 -10.1728365  -9.3820804  -9.3819766
            7           8           9          10          11          12
    1  -9.3817597  -7.2358185  -7.2357710  -7.2356055  -7.2241596  -7.2239991
           13          14          15          16          17          18
    1  -7.2239551  -7.2238325  -7.2237414  -7.2236169  -1.1164860  -0.9980870
           19          20          21          22          23          24
    1  -0.9977117  -0.7899259  -0.6517004  -0.6118317  -0.6116691  -0.4864177
           25          26          27          28          29          30
    1  -0.4862543  -0.4512747  -0.4510598  -0.4438666  -0.4301687   0.0321609
           31          32          33          34
    1   0.0507534   0.0706810   0.0707565   0.0863399
 Analysis of SCF Wavefunction
 
 --------------------------------------------------------------
                    Orbital Energies (a.u.)
 --------------------------------------------------------------
 
 Alpha MOs
 -- Occupied --
*******-100.528-100.527 -10.173  -9.382  -9.382  -9.382  -7.236
 -7.236  -7.236  -7.224  -7.224  -7.224  -7.224  -7.224  -7.224
 -1.116  -0.998  -0.998  -0.790  -0.652  -0.612  -0.612  -0.486
 -0.486  -0.451  -0.451  -0.444  -0.430
 -- Virtual --
  0.032   0.051   0.071   0.071   0.086   0.105   0.105   0.127
  0.127   0.135   0.148   0.148   0.164   0.170   0.175   0.175
  0.182   0.194   0.218   0.218   0.309   0.330   0.330   0.363
  0.363   0.380   0.425   0.429   0.434   0.434   0.442   0.442
  0.483   0.506   0.508   0.508   0.553   0.553   0.554   0.582
  0.582   0.618   0.652   0.652   0.660   0.756   0.772   0.772
  0.798   0.927   0.959   0.959   0.999   0.999   1.049   1.093
  1.094   1.129   1.131   1.131   1.163   1.187   1.187   1.191
  1.195   1.202   1.202   1.214   1.214   1.241   1.254   1.256
  1.256   1.313   1.313   1.313   1.389   1.389   1.487   1.489
  1.490   1.520   1.556   1.558   1.559   1.588   1.666   1.667
  1.731   1.731   1.772   1.808   1.808   1.827   1.854   1.854
  2.000   2.268   2.282   2.282   2.334   2.363   2.363   2.407
  2.407   2.647   2.792   3.108   3.108   3.232   3.293   3.293
  3.424   3.432   3.480   3.480   3.585   3.686   3.687   3.870
  3.870   3.964   4.343   4.343   4.410   4.410   4.430   4.445
  4.448   4.448   4.471   4.494   4.495   4.524   4.524   4.535
  4.589   4.589   4.606   4.662   4.662   4.705   4.729   4.735
  4.735   5.108   5.116   5.116   5.133   5.133   5.144   5.234
  5.315   5.315   5.358   5.358   5.409   5.509   5.879   5.880
  5.914   9.908   9.909   9.909  20.577  20.577  20.584  20.600
 20.621  20.621  20.838  20.839  20.918  24.009  27.125  27.136
 27.146  27.154  27.197  27.201  27.227  27.232  27.234  27.238
 27.272  27.288  27.289  27.321  27.361  28.047  28.055  28.057
 36.862  36.863  36.864  36.865  36.866  36.866  36.869  36.872
 36.873  36.875  36.876  36.880  36.880  36.882  36.887  36.890
 36.892  36.896  36.897  36.902  36.904  40.787  40.831  41.107
 41.111  41.128 216.373 216.374 216.400
 --------------------------------------------------------------
 
          Ground-State Mulliken Net Atomic Charges

     Atom                 Charge (a.u.)
  ----------------------------------------
      1 C                     0.481906
      2 H                     0.102743
      3 Cl                   -0.194700
      4 Cl                   -0.195448
      5 Cl                   -0.194500
  ----------------------------------------
  Sum of atomic charges =     0.000000

 -----------------------------------------------------------------
                    Cartesian Multipole Moments
 -----------------------------------------------------------------
    Charge (ESU x 10^10)
                 0.0000
    Dipole Moment (Debye)
         X       0.0044      Y       0.0057      Z       1.1105
       Tot       1.1105
    Quadrupole Moments (Debye-Ang)
        XX     -44.6565     XY      -0.0071     YY     -44.6725
        XZ      -0.0017     YZ      -0.0028     ZZ     -43.4996
    Octapole Moments (Debye-Ang^2)
       XXX       3.7489    XXY       0.0012    XYY      -3.7456
       YYY       0.0035    XXZ      17.3710    XYZ       0.0050
       YYZ      17.3816    XZZ       0.0010    YZZ       0.0011
       ZZZ      61.8668
    Hexadecapole Moments (Debye-Ang^3)
      XXXX    -349.3945   XXXY      -0.0367   XXYY    -116.3996
      XYYY      -0.0207   YYYY    -349.1118   XXXZ      -5.6300
      XXYZ      -0.0031   XYYZ       5.5989   YYYZ      -0.0093
      XXZZ     -79.5413   XYZZ      -0.0097   YYZZ     -79.4791
      XZZZ      -0.0263   YZZZ      -0.0091   ZZZZ    -121.6495
 -----------------------------------------------------------------
 Writing REM_CC_EA            5
 ----------------------------------------------------
       Standard Nuclear Orientation (Angstroms)
    I     Atom         X            Y            Z
[...]
  0.182   0.194   0.218   0.218   0.309   0.330   0.330   0.363
  0.363   0.380   0.425   0.429   0.434   0.434   0.442   0.442
  0.483   0.506   0.508   0.508   0.553   0.553   0.554   0.582
  0.582   0.618   0.652   0.652   0.660   0.756   0.772   0.772
  0.798   0.926   0.959   0.959   0.999   0.999   1.049   1.093
  1.094   1.129   1.131   1.131   1.163   1.187   1.187   1.191
  1.195   1.202   1.202   1.214   1.214   1.241   1.254   1.256
  1.256   1.313   1.313   1.313   1.389   1.389   1.487   1.490
  1.490   1.520   1.556   1.559   1.559   1.588   1.667   1.667
  1.731   1.731   1.772   1.808   1.808   1.828   1.854   1.854
  2.000   2.268   2.282   2.282   2.333   2.363   2.363   2.407
  2.407   2.647   2.792   3.108   3.108   3.232   3.293   3.293
  3.424   3.432   3.480   3.480   3.585   3.686   3.687   3.870
  3.870   3.964   4.343   4.343   4.410   4.410   4.430   4.446
  4.448   4.448   4.471   4.494   4.495   4.523   4.524   4.535
  4.589   4.589   4.606   4.662   4.662   4.705   4.729   4.735
  4.735   5.108   5.116   5.116   5.133   5.133   5.144   5.234
  5.315   5.315   5.358   5.359   5.409   5.509   5.879   5.881
  5.914   9.908   9.909   9.909  20.577  20.577  20.584  20.600
 20.621  20.622  20.838  20.839  20.918  24.009  27.125  27.136
 27.146  27.154  27.197  27.201  27.227  27.231  27.234  27.238
 27.272  27.288  27.289  27.321  27.361  28.046  28.056  28.058
 36.862  36.863  36.864  36.866  36.866  36.866  36.869  36.872
 36.873  36.876  36.876  36.880  36.880  36.882  36.887  36.890
 36.892  36.896  36.897  36.902  36.904  40.787  40.832  41.107
 41.111  41.128 216.373 216.374 216.400
 --------------------------------------------------------------
 
          Ground-State Mulliken Net Atomic Charges

     Atom                 Charge (a.u.)
  ----------------------------------------
      1 C                     0.481633
      2 H                     0.102690
      3 Cl                   -0.195228
      4 Cl                   -0.194682
      5 Cl                   -0.194412
  ----------------------------------------
  Sum of atomic charges =     0.000000

 -----------------------------------------------------------------
                    Cartesian Multipole Moments
 -----------------------------------------------------------------
    Charge (ESU x 10^10)
                 0.0000
    Dipole Moment (Debye)
         X      -0.0020      Y       0.0012      Z       1.1099
       Tot       1.1099
    Quadrupole Moments (Debye-Ang)
        XX     -44.6627     XY      -0.0015     YY     -44.6628
        XZ       0.0009     YZ       0.0003     ZZ     -43.5008
    Octapole Moments (Debye-Ang^2)
       XXX       3.7423    XXY       0.0027    XYY      -3.7499
       YYY       0.0081    XXZ      17.3530    XYZ      -0.0020
       YYZ      17.3558    XZZ       0.0015    YZZ      -0.0028
       ZZZ      61.7919
    Hexadecapole Moments (Debye-Ang^3)
      XXXX    -349.4391   XXXY      -0.0083   XXYY    -116.4012
      XYYY      -0.0110   YYYY    -349.0196   XXXZ      -5.5571
      XXYZ      -0.0326   XYYZ       5.6138   YYYZ      -0.0978
      XXZZ     -79.5299   XYZZ       0.0067   YYZZ     -79.4560
      XZZZ       0.0427   YZZZ      -0.1038   ZZZZ    -121.4912
 -----------------------------------------------------------------
 Writing REM_CC_EA            5
 ----------------------------------------------------
       Standard Nuclear Orientation (Angstroms)
    I     Atom         X            Y            Z
 ----------------------------------------------------
    1      C      -0.000040     0.000000    -0.003675
    2      H       0.000262     0.000000     1.087209
    3      Cl      1.659490     0.000000    -0.536996
    4      Cl     -0.829856    -1.436167    -0.537244
    5      Cl     -0.829856     1.436167    -0.539244
 ----------------------------------------------------
 Nuclear Repulsion Energy =   267.1139496682 hartrees
 There are       29 alpha and       29 beta electrons

                       Distance Matrix (Angstroms)
             C (  1)   H (  2)   Cl(  3)   Cl(  4)
   H (  2)  1.090884
   Cl(  3)  1.743122  2.321870
   Cl(  4)  1.742374  2.321750  2.873921
   Cl(  5)  1.742987  2.323150  2.873922  2.872335
 
 Requested basis set is G3large
 There are 73 shells and 250 basis functions
 A cutoff of  1.0D-11 yielded   2386 shell pairs
 There are  28456 function pairs ( 39445 Cartesian)
Evaluating contribution to one-electron hamiltonian from nuclear
 Smallest overlap matrix eigenvalue = 7.48E-05
 Multipole matrices computed through 2nd order
 Guess MOs from SCF MO coefficient file
Reading MOs from coefficient file
Reading MOs from coefficient file
 A restricted hybrid HF-DFT SCF calculation will be
 performed using Pulay DIIS extrapolation
 Exchange:     1.0000 Hartree-Fock + 1.0000 BNL
 Correlation:  1.0000 LYP
 Using SG-1 standard quadrature grid
 SCF converges when DIIS error is below 1.0E-08
 ---------------------------------------
  Cycle       Energy         DIIS Error
 ---------------------------------------
    1   -1413.2600832522      3.34E-05
    2   -1413.2607836649      4.32E-06
    3   -1413.2607838996      2.19E-06
    4   -1413.2607839346      7.45E-07
    5   -1413.2607839518      2.40E-07
    6   -1413.2607839577      9.19E-08
    7   -1413.2607839590      4.56E-08
    8   -1413.2607839547      1.48E-08
    9   -1413.2607839550      3.21E-09 Convergence criterion met
 ---------------------------------------
 One-Electron    Energy = -2488.9413891859
 Total Coulomb   Energy =   892.8505482394
 Alpha Exchange  Energy =    -6.2703387348
 Beta  Exchange  Energy =    -6.2703387348
 DFT   Exchange  Energy =   -69.3769992827
 DFT Correlation Energy =    -2.3662159243
 Nuclear Repu.   Energy =   267.1139496682
 Nuclear Attr.   Energy = -3899.8532284374
 Kinetic         Energy =  1410.9118392515
 SCF time:  CPU 248.65 s  wall 260.58 s
 Final Alpha MO Eigenvalues
            1           2           3           4           5           6
    1-100.5275948-100.5275597-100.5275332 -10.1728925  -9.3819657  -9.3819405
            7           8           9          10          11          12
    1  -9.3819013  -7.2357830  -7.2357488  -7.2356577  -7.2240445  -7.2239197
           13          14          15          16          17          18
    1  -7.2238851  -7.2238825  -7.2237969  -7.2237584  -1.1164244  -0.9979066
           19          20          21          22          23          24
    1  -0.9978081  -0.7899540  -0.6516829  -0.6117259  -0.6116747  -0.4863760
           25          26          27          28          29          30
    1  -0.4862894  -0.4511712  -0.4510909  -0.4439445  -0.4301584   0.0321513
           31          32          33          34
    1   0.0507293   0.0706754   0.0707086   0.0863380
 Analysis of SCF Wavefunction
 
 --------------------------------------------------------------
                    Orbital Energies (a.u.)
 --------------------------------------------------------------
 
 Alpha MOs
 -- Occupied --
*******-100.528-100.528 -10.173  -9.382  -9.382  -9.382  -7.236
 -7.236  -7.236  -7.224  -7.224  -7.224  -7.224  -7.224  -7.224
 -1.116  -0.998  -0.998  -0.790  -0.652  -0.612  -0.612  -0.486
 -0.486  -0.451  -0.451  -0.444  -0.430
 -- Virtual --
  0.032   0.051   0.071   0.071   0.086   0.105   0.105   0.127
  0.127   0.135   0.148   0.148   0.164   0.170   0.175   0.175
  0.182   0.194   0.218   0.218   0.309   0.330   0.330   0.363
  0.363   0.380   0.425   0.429   0.434   0.434   0.442   0.442
  0.483   0.506   0.508   0.508   0.553   0.553   0.554   0.582
  0.582   0.618   0.652   0.652   0.660   0.756   0.772   0.772
  0.798   0.927   0.959   0.959   0.999   0.999   1.048   1.093
  1.094   1.129   1.131   1.131   1.163   1.187   1.187   1.191
  1.195   1.202   1.202   1.214   1.214   1.241   1.254   1.256
  1.256   1.313   1.313   1.313   1.388   1.389   1.487   1.490
  1.490   1.520   1.556   1.559   1.559   1.587   1.666   1.667
  1.731   1.731   1.772   1.808   1.808   1.827   1.854   1.854
  2.000   2.268   2.282   2.282   2.334   2.363   2.363   2.407
  2.407   2.647   2.792   3.108   3.108   3.232   3.293   3.293
  3.424   3.432   3.480   3.480   3.585   3.686   3.687   3.869
  3.870   3.964   4.343   4.343   4.410   4.410   4.430   4.445
  4.448   4.448   4.471   4.494   4.495   4.524   4.524   4.535
  4.589   4.589   4.606   4.662   4.662   4.705   4.728   4.735
  4.735   5.108   5.116   5.116   5.133   5.133   5.144   5.234
  5.315   5.315   5.357   5.358   5.408   5.509   5.879   5.880
  5.913   9.908   9.909   9.909  20.577  20.577  20.584  20.600
 20.621  20.621  20.838  20.839  20.918  24.009  27.125  27.136
 27.146  27.154  27.197  27.201  27.227  27.232  27.234  27.238
 27.272  27.288  27.289  27.321  27.361  28.046  28.056  28.057
 36.862  36.863  36.864  36.866  36.866  36.866  36.869  36.872
 36.873  36.876  36.876  36.880  36.880  36.882  36.887  36.890
 36.892  36.896  36.897  36.902  36.904  40.787  40.831  41.107
 41.111  41.128 216.373 216.374 216.400
 --------------------------------------------------------------
 
          Ground-State Mulliken Net Atomic Charges

     Atom                 Charge (a.u.)
  ----------------------------------------
      1 C                     0.482186
      2 H                     0.102795
      3 Cl                   -0.195267
      4 Cl                   -0.194721
      5 Cl                   -0.194992
  ----------------------------------------
  Sum of atomic charges =     0.000000

 -----------------------------------------------------------------
                    Cartesian Multipole Moments
 -----------------------------------------------------------------
    Charge (ESU x 10^10)
                 0.0000
    Dipole Moment (Debye)
         X      -0.0006      Y      -0.0012      Z       1.1111
       Tot       1.1111
    Quadrupole Moments (Debye-Ang)
        XX     -44.6644     XY       0.0015     YY     -44.6679
        XZ       0.0012     YZ      -0.0003     ZZ     -43.4984
    Octapole Moments (Debye-Ang^2)
       XXX       3.7485    XXY      -0.0027    XYY      -3.7437
       YYY      -0.0081    XXZ      17.3991    XYZ       0.0020
       YYZ      17.3974    XZZ      -0.0017    YZZ       0.0028
       ZZZ      61.9417
    Hexadecapole Moments (Debye-Ang^3)
      XXXX    -349.4485   XXXY       0.0083   XXYY    -116.4139
      XYYY       0.0110   YYYY    -349.0734   XXXZ      -5.6843
      XXYZ       0.0326   XYYZ       5.5903   YYYZ       0.0978
      XXZZ     -79.5721   XYZZ      -0.0067   YYZZ     -79.4829
      XZZZ      -0.0772   YZZZ       0.1038   ZZZZ    -121.8084
 -----------------------------------------------------------------
 Writing REM_CC_EA            5
 ----------------------------------------------------
       Standard Nuclear Orientation (Angstroms)
    I     Atom         X            Y            Z
 ----------------------------------------------------
    1      C      -0.000040     0.000000    -0.003675
    2      H       0.000262     0.000000     1.087209
    3      Cl      1.659490     0.000000    -0.536996
    4      Cl     -0.829856    -1.436167    -0.537244
    5      Cl     -0.829856     1.436167    -0.537244
 ----------------------------------------------------
 Nuclear Repulsion Energy =   267.1272171860 hartrees
 There are       29 alpha and       29 beta electrons
FINAL TENSOR RESULT:
Order 2, Length 15
Order 1, Length 15
   0.2985182   0.0000680   0.0020252  -0.0351919   0.0001497  -0.0000828  -0.1409522   0.0000744   0.0396335  -0.0608965  -0.0499362  -0.0212669  -0.0608486   0.0499688  -0.0211397
Order 1, Length 15
   0.0000680   0.3031055  -0.0000075  -0.0000116  -0.0351529  -0.0001394   0.0000503  -0.0309544  -0.0000337  -0.0498093  -0.1185953  -0.0366302   0.0498387  -0.1185937   0.0366457
Order 1, Length 15
   0.0020252  -0.0000075   0.5282047   0.0002588   0.0000775  -0.3451801   0.0551662   0.0000843  -0.0598325  -0.0286085  -0.0498070  -0.0617384  -0.0286129   0.0498250  -0.0616880
Order 1, Length 15
  -0.0351919  -0.0000116   0.0002588   0.0558559  -0.0006645   0.0000106  -0.0176864   0.0000221   0.0290705  -0.0015960  -0.0092609  -0.0145094  -0.0015123   0.0092781  -0.0145295
Order 1, Length 15
   0.0001497  -0.0351529   0.0000775  -0.0006645   0.0564723  -0.0000067  -0.0000059   0.0041331  -0.0000506  -0.0092757  -0.0123539  -0.0251233   0.0092644  -0.0123447   0.0251369
Order 1, Length 15
  -0.0000828  -0.0001394  -0.3451801   0.0000106  -0.0000067   0.3513016   0.0037456   0.0000043  -0.0017971  -0.0023127  -0.0040618  -0.0020111  -0.0023005   0.0040189  -0.0020171
Order 1, Length 15
  -0.1409522   0.0000503   0.0551662  -0.0176864  -0.0000059   0.0037456   0.2200123  -0.0004422  -0.0613807  -0.0306654  -0.0193034   0.0007610  -0.0307339   0.0193305   0.0007984
Order 1, Length 15
   0.0000744  -0.0309544   0.0000843   0.0000221   0.0041331   0.0000043  -0.0004422   0.0374845  -0.0000203  -0.0250505  -0.0050033   0.0037695   0.0251257  -0.0049971  -0.0038254
Order 1, Length 15
   0.0396335  -0.0000337  -0.0598325   0.0290705  -0.0000506  -0.0017971  -0.0613807  -0.0000203   0.0481240  -0.0038493   0.0012332   0.0071878  -0.0036433  -0.0011766   0.0071857
Order 1, Length 15
  -0.0608965  -0.0498093  -0.0286085  -0.0015960  -0.0092757  -0.0023127  -0.0306654  -0.0250505  -0.0038493   0.0859395   0.0821444   0.0320437   0.0075914   0.0028232   0.0028727
Order 1, Length 15
  -0.0499362  -0.1185953  -0.0498070  -0.0092609  -0.0123539  -0.0040618  -0.0193034  -0.0050033   0.0012332   0.0821444   0.1795475   0.0555149  -0.0028551  -0.0437698  -0.0025714
Order 1, Length 15
  -0.0212669  -0.0366302  -0.0617384  -0.0145094  -0.0251233  -0.0020111   0.0007610   0.0037695   0.0071878   0.0320437   0.0555149   0.0494200   0.0025938   0.0025312   0.0070991
Order 1, Length 15
  -0.0608486   0.0498387  -0.0286129  -0.0015123   0.0092644  -0.0023005  -0.0307339   0.0251257  -0.0036433   0.0075914  -0.0028551   0.0025938   0.0861802  -0.0806041   0.0319093
Order 1, Length 15
   0.0499688  -0.1185937   0.0498250   0.0092781  -0.0123447   0.0040189   0.0193305  -0.0049971  -0.0011766   0.0028232  -0.0437698   0.0025312  -0.0806041   0.1803206  -0.0555243
Order 1, Length 15
  -0.0211397   0.0366457  -0.0616880  -0.0145295   0.0251369  -0.0020171   0.0007984  -0.0038254   0.0071857   0.0028727  -0.0025714   0.0070991   0.0319093  -0.0555243   0.0495614


 # Finishing finite difference calculation for IDERIV #
 ######################################################
 ######################################################
 Requested basis set is G3large
 There are 73 shells and 250 basis functions
 **********************************************************************
 **                                                                  **
 **                       VIBRATIONAL ANALYSIS                       **
 **                       --------------------                       **
 **                                                                  **
 **        VIBRATIONAL FREQUENCIES (CM**-1) AND NORMAL MODES         **
 **     FORCE CONSTANTS (mDYN/ANGSTROM) AND REDUCED MASSES (AMU)     **
 **                                                                  **
 **********************************************************************
 

 Mode:                 1                      2                      3
 Frequency:       272.49                 274.03                 386.96
 Force Cnst:      1.1188                 1.1305                 1.7308
 Red. Mass:      25.5742                25.5525                19.6185
 IR Active:          YES                    YES                    YES
 Raman Active:       YES                    YES                    YES
               X      Y      Z        X      Y      Z        X      Y      Z
 C          0.048 -0.316  0.001    0.311  0.050  0.003   -0.005 -0.001 -0.511
 H          0.064 -0.451  0.001    0.452  0.076  0.004    0.001  0.000 -0.524
 Cl         0.068  0.512  0.005    0.433 -0.081  0.031    0.389  0.000  0.063
 Cl        -0.452 -0.131  0.025   -0.212  0.438 -0.020   -0.194 -0.336  0.064
 Cl         0.365 -0.260 -0.030   -0.340 -0.377 -0.012   -0.193  0.336  0.064
 TransDip   0.000  0.000  0.000    0.000  0.000  0.000    0.000  0.000  0.000

 Mode:                 4                      5                      6
 Frequency:       706.87                 841.10                 849.67
 Force Cnst:      2.4342                 3.5126                 3.6101
 Red. Mass:       8.2685                 8.4270                 8.4872
 IR Active:          YES                    YES                    YES
 Raman Active:       YES                    YES                    YES
               X      Y      Z        X      Y      Z        X      Y      Z
 C         -0.028  0.000  0.672    0.730  0.026  0.024   -0.028  0.732 -0.001
 H         -0.025 -0.002  0.692    0.647  0.033  0.025   -0.011  0.645 -0.001
 Cl         0.129  0.000 -0.086   -0.155  0.000  0.063    0.006 -0.018 -0.002
 Cl        -0.060 -0.106 -0.082   -0.060 -0.071 -0.038   -0.060 -0.124 -0.056
 Cl        -0.059  0.106 -0.082   -0.055  0.061 -0.034    0.065 -0.128  0.058
 TransDip   0.000  0.000  0.000    0.000  0.000  0.000    0.000  0.000  0.000

 Mode:                 7                      8                      9
 Frequency:      1244.20                1258.54                3160.75
 Force Cnst:      0.9971                 1.0166                 6.4087
 Red. Mass:       1.0933                 1.0893                 1.0888
 IR Active:          YES                    YES                    YES
 Raman Active:       YES                    YES                    YES
               X      Y      Z        X      Y      Z        X      Y      Z
 C         -0.070 -0.045  0.000    0.043 -0.068  0.000    0.000  0.000 -0.086
 H          0.841  0.535  0.000   -0.535  0.841  0.000    0.000  0.000  0.996
 Cl        -0.003  0.002  0.011    0.002  0.003 -0.007    0.000  0.000  0.000
 Cl         0.000 -0.003 -0.011   -0.003  0.000 -0.006    0.000  0.000  0.000
 Cl         0.003  0.002  0.000    0.002 -0.003  0.013    0.000  0.000  0.000
 TransDip   0.000  0.000  0.000    0.000  0.000  0.000    0.000  0.000  0.000

 STANDARD THERMODYNAMIC QUANTITIES AT   298.18 K  AND     1.00 ATM

   This Molecule has  0 Imaginary Frequencies
   Zero point vibrational energy:       12.858 kcal/mol

   Atom    1 Element C  Has Mass   12.00000
   Atom    2 Element H  Has Mass    1.00783
   Atom    3 Element Cl Has Mass   34.96885
   Atom    4 Element Cl Has Mass   34.96885
   Atom    5 Element Cl Has Mass   34.96885
   Molecular Mass:   117.914380 amu
   Principal axes and moments of inertia in atomic units:
                             1           2           3
    Eigenvalues --      534.86806   535.62701  1031.02422
          X               1.00000     0.00001    -0.00011
          Y              -0.00001     1.00000     0.00000
          Z               0.00011     0.00000     1.00000
   Rotational Symmetry Number is   1
   The Molecule is an Asymmetric Top
   Translational Enthalpy:        0.889 kcal/mol
   Rotational Enthalpy:           0.889 kcal/mol
   Vibrational Enthalpy:         13.801 kcal/mol
   gas constant (RT):             0.593 kcal/mol
   Translational Entropy:        40.210  cal/mol.K
   Rotational Entropy:           27.182  cal/mol.K
   Vibrational Entropy:           4.875  cal/mol.K

   Total Enthalpy:               16.171 kcal/mol
   Total Entropy:                72.267  cal/mol.K
 Total job time:  102658.60s(wall), 98061.69s(cpu) 
 Tue Apr 19 02:19:56 2011

        *************************************************************
        *                                                           *
        *  Thank you very much for using Q-Chem.  Have a nice day.  *
        *                                                           *
        *************************************************************


0 sent ACK to 0 
now end server 0 ... 
