Process 0 of 1 is on cl140.stfx.acenet.ca - thread support 1
initial socket setup ...start
initial socket setup ...done 
now start server 0 ... 

cmd = /usr/bin/ssh clhead /usr/local/qchem/bin/get_hostid 1389240127 > /scratch/tmp/6061795.1.medium.q/qchem25664/lic.dat
                  Welcome to Q-Chem
     A Quantum Leap Into The Future Of Chemistry

 Y. Shao, L. Fusti-Molnar, Y. Jung, J. Kussmann, C. Ochsenfeld,
 S. T. Brown, A. T. B. Gilbert, L. V. Slipchenko,S. V. Levchenko,
 D. P. O'Neill, R. A. DiStasio Jr., R. C. Lochan, T. Wang,
 G. J. O. Beran, N. A. Besley, J. M. Herbert, C. Y. Lin,
 T. Van Voorhis, S. H. Chien, A. Sodt, R. P. Steele, 
 V. A. Rassolov, P. E. Maslen, P. P. Korambath, R. D. Adamson,
 B. Austin, J. Baker, E. F. C. Byrd, H. Dachsel, R. J. Doerksen,
 A. Dreuw, B. D. Dunietz, A. D. Dutoi, T. R. Furlani,
 S. R. Gwaltney, A. Heyden, S. Hirata, C.-P. Hsu, G. Kedziora,
 R. Z. Khaliullin, P. Klunzinger, A. M. Lee, M. S. Lee, W. Liang,
 I. Lotan, N. Nair, B. Peters, E. I. Proynov, P. A. Pieniazek, 
 Y. M. Rhee, J. Ritchie, E. Rosta, C. D. Sherrill, 
 A. C. Simmonett, J. E. Subotnik, H. L. Woodcock III,
 W. Zhang, A. T. Bell, A. K. Chakraborty, D. M. Chipman,
 F. J. Keil, A. Warshel, W. J. Hehre, H. F. Schaefer III,
 J. Kong, A. I. Krylov, P. M. W. Gill, M. Head-Gordon,
 Q-Chem, Version 3.1, Q-Chem, Inc., Pittsburgh, PA (2007).

 Additional authors for Version 3.1: 
 Z. Gan, Y. Zhao, N. E. Schultz, D. Truhlar, E. Epifanovsky and M. Oana.

 Additional authors for Version 3.2: 
 R. Baer, B. R. Brooks, D. Casanova, J.-D. Chai, C.-L. Cheng, 
 C. Cramer, D. Crittenden, A. Ghysels, G. Hawkins, E. G. Hohenstein, 
 C. Kelley, W. Kurlancheek, D. Liotard, E. Livshits, P. Manohar, 
 A. Marenich, D. Neuhauser, R. Olson, M. A. Rohrdanz, K. S. Thanthiriwatte, 
 A. J. W. Thom, V. Vanovschi, C. F. Williams, Q. Wu and Z.-Q. You. 


 Intel X86 Linux Version

 Q-chem begins on Thu Jul  4 19:20:19 2013  

 Parallel job on  1  processors
Processing $rem in /usr/local/qchem/config/preferences.

theFileMan(): MAXOPENFILES=974 MAX_SUB_FILE_NUM=16
Maximum size of a physical file is 2.0 GB, maximum size of a tmp-file is 32.0 GB


--------------------------------------------------------------
User input:
--------------------------------------------------------------

$molecule
-1,2
C          0.00000        0.00000        0.00000
O          0.00000        0.00000        1.15036
O          0.00000        0.00000       -1.15036
$end

$comment
negative
$end

$xc_functional
C PBE   1.00
X wPBE  1.00
$end

$rem
SYMMETRY_DECOMPOSITION	0
exchange 		general
LRC_DFT                 true
BASIS                   g3large
omega			490
mem_static              760
max_scf_cycles          200
scf_final_print         1
sym_ignore              true
$end

--------------------------------------------------------------
 Writing REM_CC_EA            3
 ----------------------------------------------------
       Standard Nuclear Orientation (Angstroms)
    I     Atom         X            Y            Z
 ----------------------------------------------------
    1      C       0.000000     0.000000     0.000000
    2      O       0.000000     0.000000     1.150360
    3      O       0.000000     0.000000    -1.150360
 ----------------------------------------------------
 Nuclear Repulsion Energy =    58.8812919281 hartrees
 There are       12 alpha and       11 beta electrons
 Requested basis set is G3large
 There are 30 shells and 126 basis functions

Total QAlloc Memory Limit   2000 MB
Mega-Array Size       743 MB
MEM_STATIC part       760 MB

                       Distance Matrix (Angstroms)
             C (  1)   O (  2)
   O (  2)  1.150360
   O (  3)  1.150360  2.300720
 
 A cutoff of  1.0D-08 yielded    428 shell pairs
 There are   7727 function pairs ( 10149 Cartesian)
Evaluating contribution to one-electron hamiltonian from nuclear
 Smallest overlap matrix eigenvalue = 4.76E-04
 Multipole matrices computed through 2nd order

  Scale SEOQF with 1.000000e-01/1.000000e-01/1.000000e-01

 Standard Electronic Orientation quadrupole field applied
 Nucleus-field energy     =    -0.0000000023 hartrees
 Guess from superposition of atomic densities
 Warning:  Energy on first SCF cycle will be non-variational
 Long-range K will be added via erf
 Coulomb attenuation parameter = 0.49 bohr**(-1)
 An unrestricted Kohn-Sham SCF calculation will be
 performed using Pulay DIIS extrapolation
 Exchange:  wPBE + LR-HF      Correlation:  PBE
 Using SG-1 standard quadrature grid
 SCF converges when DIIS error is below 1.0E-05
 Requested basis set is G3large
 There are 30 shells and 126 basis functions
 A cutoff of  1.0D-08 yielded    428 shell pairs
 There are   7727 function pairs ( 10149 Cartesian)
 Warning!  Inaccurate integrated density:
   Number of electrons =    23
   Numerical integral  =    22.000089876113
   Relative error      =    -4.3474353212 %
 ---------------------------------------
  Cycle       Energy         DIIS Error
 ---------------------------------------
    1    -189.1522134509      4.77E-02
    2    -188.2639349632      8.65E-03
    3    -188.3125861913      8.35E-03
    4    -188.3981697314      7.23E-04
    5    -188.4044712620      4.52E-04
    6    -188.4127129536      5.77E-04
    7    -188.4118523920      5.85E-04
    8    -188.4180727781      3.71E-04
    9    -188.4253461540      4.39E-04
   10    -188.4336164538      8.30E-04
   11    -188.4315527464      5.06E-04
   12    -188.4342330115      8.46E-04
   13    -188.4356553574      3.99E-04
   14    -188.4361090543      1.07E-04
   15    -188.4361263388      3.65E-05
   16    -188.4361332986      2.34E-05
   17    -188.4361313058      2.62E-05
   18    -188.4361349387      1.42E-05
   19    -188.4361392896      1.55E-06 Convergence criterion met
 ---------------------------------------
 One-Electron    Energy =  -377.4848371721
 Total Coulomb   Energy =   152.7337038665
 Alpha Exchange  Energy =    -2.7566004143
 Beta  Exchange  Energy =    -2.6721363837
 DFT   Exchange  Energy =   -16.3881281716
 DFT Correlation Energy =    -0.7494329403
 Nuclear Repu.   Energy =    58.8812919258
 Nuclear Attr.   Energy =  -565.6271455269
 Kinetic         Energy =   188.1423083548
 <S^2> = 0.7501
 SCF time:  CPU 57.15 s  wall 57.68 s
 Final Alpha MO Eigenvalues
            1           2           3           4           5           6
    1 -18.9203576 -18.9202046 -10.1845602  -1.1832190  -1.1339458  -0.5577937
            7           8           9          10          11          12
    1  -0.5221691  -0.5203212  -0.5142470  -0.3505444  -0.3504561   0.0842942
           13          14          15          16          17
    1   0.1618316   0.2154260   0.2198502   0.3132375   0.3151474
 Final Beta MO Eigenvalues
            1           2           3           4           5           6
    1 -18.9197614 -18.9196072 -10.1846475  -1.1825101  -1.1329494  -0.5571824
            7           8           9          10          11          12
    1  -0.5219479  -0.5180962  -0.5136433  -0.3499206  -0.3462274   0.1914442
           13          14          15          16
    1   0.2198812   0.2263596   0.2339140   0.3132209
 Analysis of SCF Wavefunction
 
 --------------------------------------------------------------
                    Orbital Energies (a.u.)
 --------------------------------------------------------------
 
 Alpha MOs
 -- Occupied --
-18.920 -18.920 -10.185  -1.183  -1.134  -0.558  -0.522  -0.520
 -0.514  -0.351  -0.350   0.084
 -- Virtual --
  0.162   0.215   0.220   0.313   0.315   0.364   0.400   0.403
  0.406   0.443   0.472   0.473   0.496   0.599   0.814   0.818
  0.866   0.866   0.927   0.975   1.160   1.213   1.217   1.241
  1.313   1.318   1.375   1.379   1.415   1.575   1.686   1.686
  1.965   1.965   2.057   2.197   2.199   2.320   2.645   2.650
  2.786   2.854   2.949   2.953   3.004   3.004   3.305   3.310
  3.311   3.388   3.389   3.524   3.526   4.054   4.056   4.198
  5.155   5.157   5.240   5.259   5.259   5.281   5.283   5.332
  5.334   5.334   5.400   5.400   6.081   6.100   6.100   6.511
  6.512   7.007   7.007   7.054   7.054   7.206   7.206   7.243
  7.654   7.766   7.767   7.923   8.050   8.051   8.752  24.850
 27.456  27.456  29.214  40.888  41.148  41.328  41.328  41.348
 43.821  43.848  43.884  43.910  43.995  43.995  44.108  44.124
 44.124  44.277  45.804  45.804  46.184  46.184  46.695  47.080
 50.127  51.513
 
 Beta MOs
 -- Occupied --
-18.920 -18.920 -10.185  -1.183  -1.133  -0.557  -0.522  -0.518
 -0.514  -0.350  -0.346
 -- Virtual --
  0.191   0.220   0.226   0.234   0.313   0.317   0.365   0.406
  0.407   0.409   0.443   0.474   0.480   0.496   0.600   0.814
  0.818   0.867   0.867   0.926   0.973   1.160   1.213   1.218
  1.240   1.313   1.319   1.375   1.379   1.416   1.575   1.686
  1.686   1.966   1.966   2.055   2.197   2.200   2.319   2.645
  2.650   2.786   2.854   2.949   2.952   3.004   3.004   3.305
  3.310   3.310   3.388   3.388   3.524   3.526   4.054   4.057
  4.199   5.156   5.159   5.241   5.261   5.261   5.281   5.285
  5.332   5.336   5.336   5.401   5.401   6.081   6.101   6.101
  6.512   6.514   7.009   7.010   7.056   7.056   7.206   7.208
  7.243   7.655   7.767   7.769   7.923   8.050   8.053   8.752
 24.849  27.456  27.456  29.214  40.888  41.148  41.328  41.328
 41.348  43.823  43.849  43.885  43.912  43.995  43.997  44.108
 44.125  44.126  44.278  45.804  45.806  46.185  46.186  46.696
 47.081  50.128  51.514
 --------------------------------------------------------------
 
          Ground-State Mulliken Net Atomic Charges

     Atom                 Charge (a.u.)    Spin (a.u.)
  --------------------------------------------------------
      1 C                    -1.036319       1.510517
      2 O                     0.018149      -0.255245
      3 O                     0.018170      -0.255271
  --------------------------------------------------------
  Sum of atomic charges =    -1.000000
  Sum of spin   charges =     1.000000

 -----------------------------------------------------------------
                    Cartesian Multipole Moments
 -----------------------------------------------------------------
    Charge (ESU x 10^10)
                -4.8032
    Dipole Moment (Debye)
         X       0.0026      Y       0.0026      Z       0.0001
       Tot       0.0037
    Quadrupole Moments (Debye-Ang)
        XX     -37.1924     XY     -11.1916     YY     -37.3451
        XZ      -0.3490     YZ      -0.3514     ZZ     -27.2798
    Octapole Moments (Debye-Ang^2)
       XXX       0.0195    XXY       0.0065    XYY       0.0065
       YYY       0.0196    XXZ       0.0003    XYZ       0.0000
       YYZ       0.0003    XZZ       0.0045    YZZ       0.0045
       ZZZ       0.0006
    Hexadecapole Moments (Debye-Ang^3)
      XXXX    -215.9051   XXXY     -68.2422   XXYY     -72.2787
      XYYY     -68.2422   YYYY    -217.7674   XXXZ      -2.6069
      XXYZ      -0.8749   XYYZ      -0.8690   YYYZ      -2.6247
      XXZZ     -53.8881   XYZZ     -17.4526   YYZZ     -54.1262
      XZZZ      -2.0331   YZZZ      -2.0470   ZZZZ    -141.9971
 -----------------------------------------------------------------
 Total job time:  57.82s(wall), 57.28s(cpu) 
 Thu Jul  4 19:21:17 2013

        *************************************************************
        *                                                           *
        *  Thank you very much for using Q-Chem.  Have a nice day.  *
        *                                                           *
        *************************************************************


0 sent ACK to 0 
now end server 0 ... 
 
**********************************************************************
Job 2 of 3 
**********************************************************************
 
Process 0 of 1 is on cl140.stfx.acenet.ca - thread support 1
initial socket setup ...start
initial socket setup ...done 
now start server 0 ... 

cmd = /usr/bin/ssh clhead /usr/local/qchem/bin/get_hostid 1552225618 > /scratch/tmp/6061795.1.medium.q/qchem25664/lic.dat
                  Welcome to Q-Chem
     A Quantum Leap Into The Future Of Chemistry

 Y. Shao, L. Fusti-Molnar, Y. Jung, J. Kussmann, C. Ochsenfeld,
 S. T. Brown, A. T. B. Gilbert, L. V. Slipchenko,S. V. Levchenko,
 D. P. O'Neill, R. A. DiStasio Jr., R. C. Lochan, T. Wang,
 G. J. O. Beran, N. A. Besley, J. M. Herbert, C. Y. Lin,
 T. Van Voorhis, S. H. Chien, A. Sodt, R. P. Steele, 
 V. A. Rassolov, P. E. Maslen, P. P. Korambath, R. D. Adamson,
 B. Austin, J. Baker, E. F. C. Byrd, H. Dachsel, R. J. Doerksen,
 A. Dreuw, B. D. Dunietz, A. D. Dutoi, T. R. Furlani,
 S. R. Gwaltney, A. Heyden, S. Hirata, C.-P. Hsu, G. Kedziora,
 R. Z. Khaliullin, P. Klunzinger, A. M. Lee, M. S. Lee, W. Liang,
 I. Lotan, N. Nair, B. Peters, E. I. Proynov, P. A. Pieniazek, 
 Y. M. Rhee, J. Ritchie, E. Rosta, C. D. Sherrill, 
 A. C. Simmonett, J. E. Subotnik, H. L. Woodcock III,
 W. Zhang, A. T. Bell, A. K. Chakraborty, D. M. Chipman,
 F. J. Keil, A. Warshel, W. J. Hehre, H. F. Schaefer III,
 J. Kong, A. I. Krylov, P. M. W. Gill, M. Head-Gordon,
 Q-Chem, Version 3.1, Q-Chem, Inc., Pittsburgh, PA (2007).

 Additional authors for Version 3.1: 
 Z. Gan, Y. Zhao, N. E. Schultz, D. Truhlar, E. Epifanovsky and M. Oana.

 Additional authors for Version 3.2: 
 R. Baer, B. R. Brooks, D. Casanova, J.-D. Chai, C.-L. Cheng, 
 C. Cramer, D. Crittenden, A. Ghysels, G. Hawkins, E. G. Hohenstein, 
 C. Kelley, W. Kurlancheek, D. Liotard, E. Livshits, P. Manohar, 
 A. Marenich, D. Neuhauser, R. Olson, M. A. Rohrdanz, K. S. Thanthiriwatte, 
 A. J. W. Thom, V. Vanovschi, C. F. Williams, Q. Wu and Z.-Q. You. 


 Intel X86 Linux Version

 Q-chem begins on Thu Jul  4 19:21:21 2013  

 Parallel job on  1  processors
Processing $rem in /usr/local/qchem/config/preferences.

theFileMan(): MAXOPENFILES=974 MAX_SUB_FILE_NUM=16
Maximum size of a physical file is 2.0 GB, maximum size of a tmp-file is 32.0 GB


--------------------------------------------------------------
User input:
--------------------------------------------------------------

$molecule
0,1
C          0.00000        0.00000        0.00000
O          0.00000        0.00000        1.15036
O          0.00000        0.00000       -1.15036
$end

$comment
neutral
$end

$xc_functional
C PBE   1.00
X wPBE  1.00
$end


$rem
SYMMETRY_DECOMPOSITION	0
LRC_DFT                 true
exchange 		general
BASIS                   g3large
omega			490
mem_static              760
max_scf_cycles          200
scf_final_print         1
sym_ignore              true
$end

--------------------------------------------------------------
 Writing REM_CC_EA            3
 ----------------------------------------------------
       Standard Nuclear Orientation (Angstroms)
    I     Atom         X            Y            Z
 ----------------------------------------------------
    1      C       0.000000     0.000000     0.000000
    2      O       0.000000     0.000000     1.150360
    3      O       0.000000     0.000000    -1.150360
 ----------------------------------------------------
 Nuclear Repulsion Energy =    58.8812919281 hartrees
 There are       11 alpha and       11 beta electrons
 Requested basis set is G3large
 There are 30 shells and 126 basis functions

Total QAlloc Memory Limit   2000 MB
Mega-Array Size       743 MB
MEM_STATIC part       760 MB

                       Distance Matrix (Angstroms)
             C (  1)   O (  2)
   O (  2)  1.150360
   O (  3)  1.150360  2.300720
 
 A cutoff of  1.0D-08 yielded    428 shell pairs
 There are   7727 function pairs ( 10149 Cartesian)
Evaluating contribution to one-electron hamiltonian from nuclear
 Smallest overlap matrix eigenvalue = 4.76E-04
 Multipole matrices computed through 2nd order

  Scale SEOQF with 1.000000e-01/1.000000e-01/1.000000e-01

 Standard Electronic Orientation quadrupole field applied
 Nucleus-field energy     =    -0.0000000023 hartrees
 Guess from superposition of atomic densities
 Warning:  Energy on first SCF cycle will be non-variational
 Long-range K will be added via erf
 Coulomb attenuation parameter = 0.49 bohr**(-1)
 A restricted Kohn-Sham SCF calculation will be
 performed using Pulay DIIS extrapolation
 Exchange:  wPBE + LR-HF      Correlation:  PBE
 Using SG-1 standard quadrature grid
 SCF converges when DIIS error is below 1.0E-05
 Requested basis set is G3large
 There are 30 shells and 126 basis functions
 A cutoff of  1.0D-08 yielded    428 shell pairs
 There are   7727 function pairs ( 10149 Cartesian)
 ---------------------------------------
  Cycle       Energy         DIIS Error
 ---------------------------------------
    1    -189.1522134509      4.77E-02
    2    -188.4180565443      8.18E-03
    3    -188.4293409807      8.77E-03
    4    -188.5223042549      5.16E-04
    5    -188.5231600280      1.77E-04
    6    -188.5232684759      4.45E-05
    7    -188.5232878915      9.22E-06 Convergence criterion met
 ---------------------------------------
 One-Electron    Energy =  -373.8523487256
 Total Coulomb   Energy =   148.9149549300
 Alpha Exchange  Energy =    -2.6737322598
 Beta  Exchange  Energy =    -2.6737322598
 DFT   Exchange  Energy =   -16.3779178224
 DFT Correlation Energy =    -0.7418036797
 Nuclear Repu.   Energy =    58.8812919258
 Nuclear Attr.   Energy =  -561.8884453621
 Kinetic         Energy =   188.0360966365
 SCF time:  CPU 17.77 s  wall 18.06 s
 Final Alpha MO Eigenvalues
            1           2           3           4           5           6
    1 -19.0916764 -19.0915206 -10.3524884  -1.3537344  -1.3038690  -0.7239347
            7           8           9          10          11          12
    1  -0.6914036  -0.6913917  -0.6798557  -0.5182961  -0.5182888   0.0519560
           13          14          15          16
    1   0.0946418   0.0946425   0.0965406   0.1469688
 Analysis of SCF Wavefunction
 
 --------------------------------------------------------------
                    Orbital Energies (a.u.)
 --------------------------------------------------------------
 
 Alpha MOs
 -- Occupied --
-19.092 -19.092 -10.352  -1.354  -1.304  -0.724  -0.691  -0.691
 -0.680  -0.518  -0.518
 -- Virtual --
  0.052   0.095   0.095   0.097   0.147   0.147   0.220   0.262
  0.266   0.266   0.309   0.333   0.333   0.357   0.442   0.654
  0.654   0.692   0.692   0.766   0.815   1.001   1.055   1.055
  1.087   1.146   1.146   1.217   1.217   1.256   1.415   1.516
  1.516   1.797   1.797   1.891   2.031   2.031   2.151   2.480
  2.480   2.623   2.689   2.780   2.780   2.830   2.830   3.139
  3.139   3.141   3.217   3.217   3.357   3.357   3.887   3.887
  4.030   4.987   4.987   5.071   5.090   5.090   5.113   5.113
  5.165   5.165   5.165   5.232   5.232   5.913   5.931   5.931
  6.343   6.343   6.838   6.838   6.885   6.885   7.038   7.038
  7.078   7.487   7.599   7.599   7.755   7.882   7.882   8.583
 24.682  27.288  27.288  29.046  40.720  40.980  41.160  41.160
 41.180  43.650  43.677  43.713  43.739  43.824  43.824  43.937
 43.954  43.954  44.106  45.633  45.633  46.013  46.013  46.524
 46.909  49.956  51.342
 --------------------------------------------------------------
 
          Ground-State Mulliken Net Atomic Charges

     Atom                 Charge (a.u.)
  ----------------------------------------
      1 C                     0.445049
      2 O                    -0.222533
      3 O                    -0.222516
  ----------------------------------------
  Sum of atomic charges =     0.000000

 -----------------------------------------------------------------
                    Cartesian Multipole Moments
 -----------------------------------------------------------------
    Charge (ESU x 10^10)
                 0.0000
    Dipole Moment (Debye)
         X       0.0000      Y       0.0000      Z      -0.0001
       Tot       0.0001
    Quadrupole Moments (Debye-Ang)
        XX     -14.7261     XY       0.0000     YY     -14.7260
        XZ       0.0005     YZ       0.0003     ZZ     -19.3357
    Octapole Moments (Debye-Ang^2)
       XXX       0.0000    XXY       0.0000    XYY       0.0000
       YYY       0.0000    XXZ       0.0000    XYZ       0.0000
       YYZ       0.0000    XZZ       0.0000    YZZ       0.0000
       ZZZ      -0.0001
    Hexadecapole Moments (Debye-Ang^3)
      XXXX     -11.6412   XXXY       0.0000   XXYY      -3.8804
      XYYY       0.0000   YYYY     -11.6412   XXXZ       0.0010
      XXYZ       0.0002   XYYZ       0.0003   YYYZ       0.0005
      XXZZ     -18.5806   XYZZ       0.0001   YYZZ     -18.5806
      XZZZ       0.0011   YZZZ       0.0006   ZZZZ    -101.6720
 -----------------------------------------------------------------
 Total job time:  18.19s(wall), 17.89s(cpu) 
 Thu Jul  4 19:21:39 2013

        *************************************************************
        *                                                           *
        *  Thank you very much for using Q-Chem.  Have a nice day.  *
        *                                                           *
        *************************************************************


0 sent ACK to 0 
now end server 0 ... 
 
**********************************************************************
Job 3 of 3 
**********************************************************************
 
Process 0 of 1 is on cl140.stfx.acenet.ca - thread support 1
initial socket setup ...start
initial socket setup ...done 
now start server 0 ... 

cmd = /usr/bin/ssh clhead /usr/local/qchem/bin/get_hostid 532047251 > /scratch/tmp/6061795.1.medium.q/qchem25664/lic.dat
                  Welcome to Q-Chem
     A Quantum Leap Into The Future Of Chemistry

 Y. Shao, L. Fusti-Molnar, Y. Jung, J. Kussmann, C. Ochsenfeld,
 S. T. Brown, A. T. B. Gilbert, L. V. Slipchenko,S. V. Levchenko,
 D. P. O'Neill, R. A. DiStasio Jr., R. C. Lochan, T. Wang,
 G. J. O. Beran, N. A. Besley, J. M. Herbert, C. Y. Lin,
 T. Van Voorhis, S. H. Chien, A. Sodt, R. P. Steele, 
 V. A. Rassolov, P. E. Maslen, P. P. Korambath, R. D. Adamson,
 B. Austin, J. Baker, E. F. C. Byrd, H. Dachsel, R. J. Doerksen,
 A. Dreuw, B. D. Dunietz, A. D. Dutoi, T. R. Furlani,
 S. R. Gwaltney, A. Heyden, S. Hirata, C.-P. Hsu, G. Kedziora,
 R. Z. Khaliullin, P. Klunzinger, A. M. Lee, M. S. Lee, W. Liang,
 I. Lotan, N. Nair, B. Peters, E. I. Proynov, P. A. Pieniazek, 
 Y. M. Rhee, J. Ritchie, E. Rosta, C. D. Sherrill, 
 A. C. Simmonett, J. E. Subotnik, H. L. Woodcock III,
 W. Zhang, A. T. Bell, A. K. Chakraborty, D. M. Chipman,
 F. J. Keil, A. Warshel, W. J. Hehre, H. F. Schaefer III,
 J. Kong, A. I. Krylov, P. M. W. Gill, M. Head-Gordon,
 Q-Chem, Version 3.1, Q-Chem, Inc., Pittsburgh, PA (2007).

 Additional authors for Version 3.1: 
 Z. Gan, Y. Zhao, N. E. Schultz, D. Truhlar, E. Epifanovsky and M. Oana.

 Additional authors for Version 3.2: 
 R. Baer, B. R. Brooks, D. Casanova, J.-D. Chai, C.-L. Cheng, 
 C. Cramer, D. Crittenden, A. Ghysels, G. Hawkins, E. G. Hohenstein, 
 C. Kelley, W. Kurlancheek, D. Liotard, E. Livshits, P. Manohar, 
 A. Marenich, D. Neuhauser, R. Olson, M. A. Rohrdanz, K. S. Thanthiriwatte, 
 A. J. W. Thom, V. Vanovschi, C. F. Williams, Q. Wu and Z.-Q. You. 


 Intel X86 Linux Version

 Q-chem begins on Thu Jul  4 19:21:43 2013  

 Parallel job on  1  processors
Processing $rem in /usr/local/qchem/config/preferences.

theFileMan(): MAXOPENFILES=974 MAX_SUB_FILE_NUM=16
Maximum size of a physical file is 2.0 GB, maximum size of a tmp-file is 32.0 GB


--------------------------------------------------------------
User input:
--------------------------------------------------------------

$molecule
1,2
C          0.00000        0.00000        0.00000
O          0.00000        0.00000        1.15036
O          0.00000        0.00000       -1.15036
$end

$comment
positive
$end

$xc_functional
C PBE   1.00
X wPBE  1.00
$end

$rem
SYMMETRY_DECOMPOSITION	0
LRC_DFT                 true
exchange 		general
BASIS                   g3large
omega			490
mem_static              760
max_scf_cycles          200
scf_final_print         1
sym_ignore              true
$end

--------------------------------------------------------------
 Writing REM_CC_EA            3
 ----------------------------------------------------
       Standard Nuclear Orientation (Angstroms)
    I     Atom         X            Y            Z
 ----------------------------------------------------
    1      C       0.000000     0.000000     0.000000
    2      O       0.000000     0.000000     1.150360
    3      O       0.000000     0.000000    -1.150360
 ----------------------------------------------------
 Nuclear Repulsion Energy =    58.8812919281 hartrees
 There are       11 alpha and       10 beta electrons
 Requested basis set is G3large
 There are 30 shells and 126 basis functions

Total QAlloc Memory Limit   2000 MB
Mega-Array Size       743 MB
MEM_STATIC part       760 MB

                       Distance Matrix (Angstroms)
             C (  1)   O (  2)
   O (  2)  1.150360
   O (  3)  1.150360  2.300720
 
 A cutoff of  1.0D-08 yielded    428 shell pairs
 There are   7727 function pairs ( 10149 Cartesian)
Evaluating contribution to one-electron hamiltonian from nuclear
 Smallest overlap matrix eigenvalue = 4.76E-04
 Multipole matrices computed through 2nd order

  Scale SEOQF with 1.000000e-01/1.000000e-01/1.000000e-01

 Standard Electronic Orientation quadrupole field applied
 Nucleus-field energy     =    -0.0000000023 hartrees
 Guess from superposition of atomic densities
 Warning:  Energy on first SCF cycle will be non-variational
 Long-range K will be added via erf
 Coulomb attenuation parameter = 0.49 bohr**(-1)
 An unrestricted Kohn-Sham SCF calculation will be
 performed using Pulay DIIS extrapolation
 Exchange:  wPBE + LR-HF      Correlation:  PBE
 Using SG-1 standard quadrature grid
 SCF converges when DIIS error is below 1.0E-05
 Requested basis set is G3large
 There are 30 shells and 126 basis functions
 A cutoff of  1.0D-08 yielded    428 shell pairs
 There are   7727 function pairs ( 10149 Cartesian)
 Warning!  Inaccurate integrated density:
   Number of electrons =    21
   Numerical integral  =    22.000089876113
   Relative error      =     4.7623327434 %
 ---------------------------------------
  Cycle       Energy         DIIS Error
 ---------------------------------------
    1    -189.1522134509      4.77E-02
    2    -187.8792288156      7.05E-03
    3    -187.9611059451      5.33E-03
    4    -187.9984109505      1.28E-03
    5    -188.0022627082      3.45E-04
    6    -188.0036343863      9.88E-05
    7    -188.0040419177      3.62E-05
    8    -188.0041169355      1.43E-05
    9    -188.0041302334      3.74E-06 Convergence criterion met
 ---------------------------------------
 One-Electron    Energy =  -365.4340257675
 Total Coulomb   Energy =   140.6084669142
 Alpha Exchange  Energy =    -2.7048490991
 Beta  Exchange  Energy =    -2.4311151332
 DFT   Exchange  Energy =   -16.2261226759
 DFT Correlation Energy =    -0.6977763977
 Nuclear Repu.   Energy =    58.8812919258
 Nuclear Attr.   Energy =  -553.1213832016
 Kinetic         Energy =   187.6873574341
 <S^2> = 0.8039
 SCF time:  CPU 27.58 s  wall 27.84 s
 Final Alpha MO Eigenvalues
            1           2           3           4           5           6
    1 -19.5219167 -19.5217536 -10.7122882  -1.7474790  -1.7082878  -1.0958070
            7           8           9          10          11          12
    1  -1.0873011  -1.0566770  -1.0551167  -0.9548972  -0.9016944  -0.2119664
           13          14          15          16
    1  -0.1969845  -0.1724214  -0.0783630  -0.0758071
 Final Beta MO Eigenvalues
            1           2           3           4           5           6
    1 -19.5062113 -19.5060938 -10.7178349  -1.7193579  -1.6655857  -1.0766138
            7           8           9          10          11          12
    1  -1.0483143  -1.0351283  -0.9856323  -0.8798395  -0.5186612  -0.1980098
           13          14          15
    1  -0.1724226  -0.1604343  -0.0787849
 Analysis of SCF Wavefunction
 
 --------------------------------------------------------------
                    Orbital Energies (a.u.)
 --------------------------------------------------------------
 
 Alpha MOs
 -- Occupied --
-19.522 -19.522 -10.712  -1.747  -1.708  -1.096  -1.087  -1.057
 -1.055  -0.955  -0.902
 -- Virtual --
 -0.212  -0.197  -0.172  -0.078  -0.076  -0.066  -0.020   0.047
  0.054   0.060   0.112   0.126   0.132   0.157   0.177   0.385
  0.385   0.387   0.390   0.503   0.549   0.668   0.748   0.762
  0.794   0.806   0.819   0.900   0.922   0.947   1.105   1.153
  1.153   1.440   1.440   1.570   1.667   1.691   1.826   2.140
  2.159   2.288   2.343   2.451   2.453   2.501   2.501   2.784
  2.785   2.810   2.881   2.882   2.990   3.002   3.513   3.531
  3.669   4.554   4.599   4.686   4.686   4.689   4.690   4.727
  4.767   4.770   4.772   4.841   4.847   5.510   5.540   5.554
  5.940   5.967   6.412   6.412   6.454   6.454   6.621   6.659
  6.710   7.098   7.182   7.219   7.376   7.483   7.510   8.194
 24.323  26.930  26.934  28.685  40.364  40.623  40.798  40.801
 40.818  43.206  43.233  43.269  43.295  43.379  43.407  43.510
 43.512  43.537  43.678  45.185  45.211  45.566  45.592  46.102
 46.487  49.530  50.918
 
 Beta MOs
 -- Occupied --
-19.506 -19.506 -10.718  -1.719  -1.666  -1.077  -1.048  -1.035
 -0.986  -0.880
 -- Virtual --
 -0.519  -0.198  -0.172  -0.160  -0.079  -0.076  -0.065  -0.020
  0.048   0.061   0.062   0.114   0.132   0.133   0.160   0.179
  0.378   0.378   0.379   0.386   0.509   0.548   0.680   0.763
  0.765   0.810   0.828   0.836   0.929   0.936   0.954   1.120
  1.191   1.193   1.472   1.475   1.588   1.696   1.697   1.831
  2.160   2.161   2.297   2.355   2.430   2.442   2.483   2.483
  2.787   2.787   2.811   2.856   2.856   2.996   3.000   3.532
  3.533   3.668   4.619   4.633   4.704   4.737   4.737   4.749
  4.761   4.803   4.812   4.813   4.871   4.873   5.549   5.570
  5.573   5.973   5.975   6.477   6.483   6.522   6.529   6.671
  6.681   6.724   7.125   7.230   7.241   7.385   7.515   7.518
  8.208  24.318  26.921  26.925  28.681  40.353  40.613  40.793
 40.795  40.813  43.246  43.273  43.309  43.336  43.412  43.419
 43.527  43.542  43.549  43.697  45.222  45.230  45.603  45.612
 46.113  46.498  49.545  50.932
 --------------------------------------------------------------
 
          Ground-State Mulliken Net Atomic Charges

     Atom                 Charge (a.u.)    Spin (a.u.)
  --------------------------------------------------------
      1 C                     0.527952      -0.256118
      2 O                     0.236053       0.628075
      3 O                     0.235995       0.628042
  --------------------------------------------------------
  Sum of atomic charges =     1.000000
  Sum of spin   charges =     1.000000

 -----------------------------------------------------------------
                    Cartesian Multipole Moments
 -----------------------------------------------------------------
    Charge (ESU x 10^10)
                 4.8032
    Dipole Moment (Debye)
         X       0.0000      Y       0.0000      Z       0.0003
       Tot       0.0003
    Quadrupole Moments (Debye-Ang)
        XX     -12.1932     XY      -0.4103     YY     -12.5638
        XZ       0.0002     YZ      -0.0002     ZZ     -11.0896
    Octapole Moments (Debye-Ang^2)
       XXX       0.0000    XXY       0.0000    XYY       0.0000
       YYY       0.0000    XXZ       0.0000    XYZ       0.0000
       YYZ       0.0000    XZZ       0.0000    YZZ       0.0000
       ZZZ       0.0003
    Hexadecapole Moments (Debye-Ang^3)
      XXXX      -8.1221   XXXY      -0.2056   XXYY      -2.7694
      XYYY      -0.2058   YYYY      -8.4936   XXXZ       0.0001
      XXYZ       0.0000   XYYZ       0.0000   YYYZ      -0.0001
      XXZZ     -14.2870   XYZZ      -0.6649   YYZZ     -14.8874
      XZZZ       0.0005   YZZZ      -0.0004   ZZZZ     -77.1172
 -----------------------------------------------------------------
 Total job time:  27.97s(wall), 27.71s(cpu) 
 Thu Jul  4 19:22:11 2013

        *************************************************************
        *                                                           *
        *  Thank you very much for using Q-Chem.  Have a nice day.  *
        *                                                           *
        *************************************************************


0 sent ACK to 0 
now end server 0 ... 
