Process 0 of 1 is on cl097.stfx.acenet.ca - thread support 1
initial socket setup ...start
initial socket setup ...done 
now start server 0 ... 

cmd = /usr/bin/ssh clhead /usr/local/qchem/bin/get_hostid 2058803114 > /scratch/tmp/6021970.1.short.q/qchem7344/lic.dat
                  Welcome to Q-Chem
     A Quantum Leap Into The Future Of Chemistry

 Y. Shao, L. Fusti-Molnar, Y. Jung, J. Kussmann, C. Ochsenfeld,
 S. T. Brown, A. T. B. Gilbert, L. V. Slipchenko,S. V. Levchenko,
 D. P. O'Neill, R. A. DiStasio Jr., R. C. Lochan, T. Wang,
 G. J. O. Beran, N. A. Besley, J. M. Herbert, C. Y. Lin,
 T. Van Voorhis, S. H. Chien, A. Sodt, R. P. Steele, 
 V. A. Rassolov, P. E. Maslen, P. P. Korambath, R. D. Adamson,
 B. Austin, J. Baker, E. F. C. Byrd, H. Dachsel, R. J. Doerksen,
 A. Dreuw, B. D. Dunietz, A. D. Dutoi, T. R. Furlani,
 S. R. Gwaltney, A. Heyden, S. Hirata, C.-P. Hsu, G. Kedziora,
 R. Z. Khaliullin, P. Klunzinger, A. M. Lee, M. S. Lee, W. Liang,
 I. Lotan, N. Nair, B. Peters, E. I. Proynov, P. A. Pieniazek, 
 Y. M. Rhee, J. Ritchie, E. Rosta, C. D. Sherrill, 
 A. C. Simmonett, J. E. Subotnik, H. L. Woodcock III,
 W. Zhang, A. T. Bell, A. K. Chakraborty, D. M. Chipman,
 F. J. Keil, A. Warshel, W. J. Hehre, H. F. Schaefer III,
 J. Kong, A. I. Krylov, P. M. W. Gill, M. Head-Gordon,
 Q-Chem, Version 3.1, Q-Chem, Inc., Pittsburgh, PA (2007).

 Additional authors for Version 3.1: 
 Z. Gan, Y. Zhao, N. E. Schultz, D. Truhlar, E. Epifanovsky and M. Oana.

 Additional authors for Version 3.2: 
 R. Baer, B. R. Brooks, D. Casanova, J.-D. Chai, C.-L. Cheng, 
 C. Cramer, D. Crittenden, A. Ghysels, G. Hawkins, E. G. Hohenstein, 
 C. Kelley, W. Kurlancheek, D. Liotard, E. Livshits, P. Manohar, 
 A. Marenich, D. Neuhauser, R. Olson, M. A. Rohrdanz, K. S. Thanthiriwatte, 
 A. J. W. Thom, V. Vanovschi, C. F. Williams, Q. Wu and Z.-Q. You. 


 Intel X86 Linux Version

 Q-chem begins on Wed May 29 17:02:36 2013  

 Parallel job on  1  processors
Processing $rem in /usr/local/qchem/config/preferences.

theFileMan(): MAXOPENFILES=974 MAX_SUB_FILE_NUM=16
Maximum size of a physical file is 2.0 GB, maximum size of a tmp-file is 32.0 GB


--------------------------------------------------------------
User input:
--------------------------------------------------------------

$molecule
-1,2
C          0.00112        0.00000       -0.00177
O         -0.01212        0.00000        1.40484
H          1.04247        0.00000       -0.31294
H         -0.91650        0.00000        1.71221
H         -0.47920       -0.88913       -0.41695
H         -0.47920        0.88913       -0.41695
$end

$comment
negative
$end

$xc_functional
C PBE   1.00
X wPBE  1.00
$end

$rem
SYMMETRY_DECOMPOSITION	0
exchange 		general
LRC_DFT                 true
BASIS                   g3large
omega			430
mem_static              760
max_scf_cycles          200
scf_final_print         1
sym_ignore              true
$end

--------------------------------------------------------------
 Writing REM_CC_EA            6
 ----------------------------------------------------
       Standard Nuclear Orientation (Angstroms)
    I     Atom         X            Y            Z
 ----------------------------------------------------
    1      C       0.001120     0.000000    -0.001770
    2      O      -0.012120     0.000000     1.404840
    3      H       1.042470     0.000000    -0.312940
    4      H      -0.916500     0.000000     1.712210
    5      H      -0.479200    -0.889130    -0.416950
    6      H      -0.479200     0.889130    -0.416950
 ----------------------------------------------------
 Nuclear Repulsion Energy =    40.5617646370 hartrees
 There are       10 alpha and        9 beta electrons
 Requested basis set is G3large
 There are 44 shells and 124 basis functions

Total QAlloc Memory Limit   2000 MB
Mega-Array Size       743 MB
MEM_STATIC part       760 MB

                       Distance Matrix (Angstroms)
             C (  1)   O (  2)   H (  3)   H (  4)   H (  5)
   O (  2)  1.406672
   H (  3)  1.086847  2.015671
   H (  4)  1.944159  0.955186  2.817587
   H (  5)  1.092536  2.080297  1.765460  2.348426
   H (  6)  1.092536  2.080297  1.765460  2.348426  1.778260
 
 A cutoff of  1.0D-08 yielded    985 shell pairs
 There are   7857 function pairs (  9484 Cartesian)
Evaluating contribution to one-electron hamiltonian from nuclear
 Smallest overlap matrix eigenvalue = 7.72E-04
 Multipole matrices computed through 2nd order

  Scale SEOQF with 1.000000e-01/1.000000e-01/1.000000e-01

 Standard Electronic Orientation quadrupole field applied
 Nucleus-field energy     =    -0.0000000019 hartrees
 Guess from superposition of atomic densities
 Warning:  Energy on first SCF cycle will be non-variational
 Long-range K will be added via erf
 Coulomb attenuation parameter = 0.43 bohr**(-1)
 An unrestricted Kohn-Sham SCF calculation will be
 performed using Pulay DIIS extrapolation
 Exchange:  wPBE + LR-HF      Correlation:  PBE
 Using SG-1 standard quadrature grid
 SCF converges when DIIS error is below 1.0E-05
 Requested basis set is G3large
 There are 44 shells and 124 basis functions
 A cutoff of  1.0D-08 yielded    985 shell pairs
 There are   7857 function pairs (  9484 Cartesian)
 Warning!  Inaccurate integrated density:
   Number of electrons =    19
   Numerical integral  =    18.000014659926
   Relative error      =    -5.2630807372 %
 ---------------------------------------
  Cycle       Energy         DIIS Error
 ---------------------------------------
    1    -115.9977771091      3.89E-02
    2    -115.5714866149      6.50E-03
    3    -115.6001797113      6.76E-03
    4    -115.6594345839      5.64E-04
    5    -115.6625485933      2.79E-04
    6    -115.6636740888      1.27E-04
    7    -115.6642644729      7.01E-05
    8    -115.6646130406      4.54E-05
    9    -115.6648289018      3.19E-05
   10    -115.6650059212      1.71E-05
   11    -115.6650631187      8.75E-06 Convergence criterion met
 ---------------------------------------
 One-Electron    Energy =  -240.1568099850
 Total Coulomb   Energy =    99.4695700760
 Alpha Exchange  Energy =    -1.9844659382
 Beta  Exchange  Energy =    -1.9154308581
 DFT   Exchange  Energy =   -11.0489328550
 DFT Correlation Energy =    -0.5907581935
 Nuclear Repu.   Energy =    40.5617646352
 Nuclear Attr.   Energy =  -355.5013751713
 Kinetic         Energy =   115.3445651863
 <S^2> = 0.7501
 SCF time:  CPU 42.39 s  wall 42.84 s
 Final Alpha MO Eigenvalues
            1           2           3           4           5           6
    1 -18.8260125 -10.0058545  -1.0260612  -0.6907369  -0.5011817  -0.4305573
            7           8           9          10          11          12
    1  -0.4168543  -0.3179928  -0.2576748   0.0276309   0.1469689   0.1596751
           13          14          15
    1   0.1689876   0.2317740   0.2588201
 Final Beta MO Eigenvalues
            1           2           3           4           5           6
    1 -18.8257482 -10.0053531  -1.0254440  -0.6889588  -0.4990880  -0.4300506
            7           8           9          10          11          12
    1  -0.4161354  -0.3174427  -0.2572950   0.1416700   0.1633670   0.1762446
           13          14
    1   0.1792593   0.2305504
 Analysis of SCF Wavefunction
 
 --------------------------------------------------------------
                    Orbital Energies (a.u.)
 --------------------------------------------------------------
 
 Alpha MOs
 -- Occupied --
-18.826 -10.006  -1.026  -0.691  -0.501  -0.431  -0.417  -0.318
 -0.258   0.028
 -- Virtual --
  0.147   0.160   0.169   0.232   0.259   0.266   0.287   0.382
  0.395   0.399   0.401   0.427   0.434   0.453   0.485   0.563
  0.657   0.664   0.750   0.795   0.797   0.824   0.855   0.856
  0.868   0.968   1.014   1.100   1.132   1.225   1.252   1.286
  1.347   1.380   1.381   1.411   1.469   1.532   1.572   1.600
  1.676   1.693   1.719   1.773   1.813   2.101   2.229   2.256
  2.444   2.496   2.650   2.674   2.763   3.056   3.192   3.311
  3.358   3.362   3.384   3.431   3.542   3.594   3.642   3.660
  3.767   3.900   3.969   4.077   4.107   4.147   4.314   4.424
  4.429   4.501   4.548   4.587   4.609   4.656   5.168   5.232
  5.391   5.415   5.573   5.717   5.812   5.855   5.877   6.072
  6.211   6.689   7.206   7.392   7.440   7.445   7.726   7.871
 24.490  28.165  28.209  28.235  41.110  41.163  41.309  41.353
 41.401  43.986  43.996  44.041  44.083  44.156  45.816  46.124
 46.559  50.008
 
 Beta MOs
 -- Occupied --
-18.826 -10.005  -1.025  -0.689  -0.499  -0.430  -0.416  -0.317
 -0.257
 -- Virtual --
  0.142   0.163   0.176   0.179   0.231   0.259   0.264   0.291
  0.384   0.395   0.398   0.402   0.426   0.433   0.450   0.483
  0.561   0.656   0.662   0.747   0.792   0.795   0.822   0.855
  0.856   0.867   0.970   1.013   1.099   1.133   1.226   1.252
  1.287   1.347   1.380   1.382   1.411   1.470   1.532   1.573
  1.600   1.676   1.692   1.719   1.773   1.813   2.102   2.229
  2.256   2.444   2.496   2.650   2.674   2.763   3.056   3.192
  3.311   3.359   3.362   3.384   3.432   3.543   3.595   3.643
  3.661   3.769   3.901   3.970   4.077   4.107   4.147   4.314
  4.424   4.429   4.502   4.548   4.587   4.609   4.656   5.169
  5.232   5.392   5.415   5.574   5.717   5.813   5.856   5.878
  6.072   6.211   6.690   7.207   7.392   7.441   7.446   7.727
  7.872  24.490  28.166  28.209  28.235  41.110  41.164  41.309
 41.354  41.402  43.986  43.996  44.041  44.083  44.156  45.816
 46.124  46.560  50.009
 --------------------------------------------------------------
 
          Ground-State Mulliken Net Atomic Charges

     Atom                 Charge (a.u.)    Spin (a.u.)
  --------------------------------------------------------
      1 C                     2.919034      -3.046472
      2 O                    -0.497352       0.141341
      3 H                    -0.527978       0.590319
      4 H                    -0.459028       0.725667
      5 H                    -1.217804       1.295068
      6 H                    -1.216872       1.294076
  --------------------------------------------------------
  Sum of atomic charges =    -1.000000
  Sum of spin   charges =     1.000000

 -----------------------------------------------------------------
                    Cartesian Multipole Moments
 -----------------------------------------------------------------
    Charge (ESU x 10^10)
                -4.8032
    Dipole Moment (Debye)
         X       4.2999      Y       0.0037      Z      -1.0937
       Tot       4.4368
    Quadrupole Moments (Debye-Ang)
        XX     -37.7488     XY      -0.0037     YY     -38.2074
        XZ       0.6410     YZ      -0.0021     ZZ     -39.5118
    Octapole Moments (Debye-Ang^2)
       XXX      56.0909    XXY       0.0145    XYY      23.2500
       YYY       0.0411    XXZ      -9.9525    XYZ       0.0007
       YYZ      -4.8791    XZZ      21.3348    YZZ       0.0134
       ZZZ     -31.9542
    Hexadecapole Moments (Debye-Ang^3)
      XXXX    -319.9504   XXXY      -0.0289   XXYY    -105.8854
      XYYY      -0.0320   YYYY    -302.6243   XXXZ      35.5194
      XXYZ      -0.0054   XYYZ       8.5689   YYYZ      -0.0194
      XXZZ    -124.5942   XYZZ      -0.0105   YYZZ    -117.4554
      XZZZ      34.0421   YZZZ      -0.0163   ZZZZ    -394.2088
 -----------------------------------------------------------------
 Total job time:  42.98s(wall), 42.51s(cpu) 
 Wed May 29 17:03:19 2013

        *************************************************************
        *                                                           *
        *  Thank you very much for using Q-Chem.  Have a nice day.  *
        *                                                           *
        *************************************************************


0 sent ACK to 0 
now end server 0 ... 
 
**********************************************************************
Job 2 of 3 
**********************************************************************
 
Process 0 of 1 is on cl097.stfx.acenet.ca - thread support 1
initial socket setup ...start
initial socket setup ...done 
now start server 0 ... 

cmd = /usr/bin/ssh clhead /usr/local/qchem/bin/get_hostid 1262975208 > /scratch/tmp/6021970.1.short.q/qchem7344/lic.dat
                  Welcome to Q-Chem
     A Quantum Leap Into The Future Of Chemistry

 Y. Shao, L. Fusti-Molnar, Y. Jung, J. Kussmann, C. Ochsenfeld,
 S. T. Brown, A. T. B. Gilbert, L. V. Slipchenko,S. V. Levchenko,
 D. P. O'Neill, R. A. DiStasio Jr., R. C. Lochan, T. Wang,
 G. J. O. Beran, N. A. Besley, J. M. Herbert, C. Y. Lin,
 T. Van Voorhis, S. H. Chien, A. Sodt, R. P. Steele, 
 V. A. Rassolov, P. E. Maslen, P. P. Korambath, R. D. Adamson,
 B. Austin, J. Baker, E. F. C. Byrd, H. Dachsel, R. J. Doerksen,
 A. Dreuw, B. D. Dunietz, A. D. Dutoi, T. R. Furlani,
 S. R. Gwaltney, A. Heyden, S. Hirata, C.-P. Hsu, G. Kedziora,
 R. Z. Khaliullin, P. Klunzinger, A. M. Lee, M. S. Lee, W. Liang,
 I. Lotan, N. Nair, B. Peters, E. I. Proynov, P. A. Pieniazek, 
 Y. M. Rhee, J. Ritchie, E. Rosta, C. D. Sherrill, 
 A. C. Simmonett, J. E. Subotnik, H. L. Woodcock III,
 W. Zhang, A. T. Bell, A. K. Chakraborty, D. M. Chipman,
 F. J. Keil, A. Warshel, W. J. Hehre, H. F. Schaefer III,
 J. Kong, A. I. Krylov, P. M. W. Gill, M. Head-Gordon,
 Q-Chem, Version 3.1, Q-Chem, Inc., Pittsburgh, PA (2007).

 Additional authors for Version 3.1: 
 Z. Gan, Y. Zhao, N. E. Schultz, D. Truhlar, E. Epifanovsky and M. Oana.

 Additional authors for Version 3.2: 
 R. Baer, B. R. Brooks, D. Casanova, J.-D. Chai, C.-L. Cheng, 
 C. Cramer, D. Crittenden, A. Ghysels, G. Hawkins, E. G. Hohenstein, 
 C. Kelley, W. Kurlancheek, D. Liotard, E. Livshits, P. Manohar, 
 A. Marenich, D. Neuhauser, R. Olson, M. A. Rohrdanz, K. S. Thanthiriwatte, 
 A. J. W. Thom, V. Vanovschi, C. F. Williams, Q. Wu and Z.-Q. You. 


 Intel X86 Linux Version

 Q-chem begins on Wed May 29 17:03:22 2013  

 Parallel job on  1  processors
Processing $rem in /usr/local/qchem/config/preferences.

theFileMan(): MAXOPENFILES=974 MAX_SUB_FILE_NUM=16
Maximum size of a physical file is 2.0 GB, maximum size of a tmp-file is 32.0 GB


--------------------------------------------------------------
User input:
--------------------------------------------------------------

$molecule
0,1
C          0.00112        0.00000       -0.00177
O         -0.01212        0.00000        1.40484
H          1.04247        0.00000       -0.31294
H         -0.91650        0.00000        1.71221
H         -0.47920       -0.88913       -0.41695
H         -0.47920        0.88913       -0.41695
$end

$comment
neutral
$end

$xc_functional
C PBE   1.00
X wPBE  1.00
$end


$rem
SYMMETRY_DECOMPOSITION	0
LRC_DFT                 true
exchange 		general
BASIS                   g3large
omega			430
mem_static              760
max_scf_cycles          200
scf_final_print         1
sym_ignore              true
$end

--------------------------------------------------------------
 Writing REM_CC_EA            6
 ----------------------------------------------------
       Standard Nuclear Orientation (Angstroms)
    I     Atom         X            Y            Z
 ----------------------------------------------------
    1      C       0.001120     0.000000    -0.001770
    2      O      -0.012120     0.000000     1.404840
    3      H       1.042470     0.000000    -0.312940
    4      H      -0.916500     0.000000     1.712210
    5      H      -0.479200    -0.889130    -0.416950
    6      H      -0.479200     0.889130    -0.416950
 ----------------------------------------------------
 Nuclear Repulsion Energy =    40.5617646370 hartrees
 There are        9 alpha and        9 beta electrons
 Requested basis set is G3large
 There are 44 shells and 124 basis functions

Total QAlloc Memory Limit   2000 MB
Mega-Array Size       743 MB
MEM_STATIC part       760 MB

                       Distance Matrix (Angstroms)
             C (  1)   O (  2)   H (  3)   H (  4)   H (  5)
   O (  2)  1.406672
   H (  3)  1.086847  2.015671
   H (  4)  1.944159  0.955186  2.817587
   H (  5)  1.092536  2.080297  1.765460  2.348426
   H (  6)  1.092536  2.080297  1.765460  2.348426  1.778260
 
 A cutoff of  1.0D-08 yielded    985 shell pairs
 There are   7857 function pairs (  9484 Cartesian)
Evaluating contribution to one-electron hamiltonian from nuclear
 Smallest overlap matrix eigenvalue = 7.72E-04
 Multipole matrices computed through 2nd order

  Scale SEOQF with 1.000000e-01/1.000000e-01/1.000000e-01

 Standard Electronic Orientation quadrupole field applied
 Nucleus-field energy     =    -0.0000000019 hartrees
 Guess from superposition of atomic densities
 Warning:  Energy on first SCF cycle will be non-variational
 Long-range K will be added via erf
 Coulomb attenuation parameter = 0.43 bohr**(-1)
 A restricted Kohn-Sham SCF calculation will be
 performed using Pulay DIIS extrapolation
 Exchange:  wPBE + LR-HF      Correlation:  PBE
 Using SG-1 standard quadrature grid
 SCF converges when DIIS error is below 1.0E-05
 Requested basis set is G3large
 There are 44 shells and 124 basis functions
 A cutoff of  1.0D-08 yielded    985 shell pairs
 There are   7857 function pairs (  9484 Cartesian)
 ---------------------------------------
  Cycle       Energy         DIIS Error
 ---------------------------------------
    1    -115.9977771091      3.89E-02
    2    -115.6420431654      5.94E-03
    3    -115.6603859040      5.45E-03
    4    -115.6955479739      5.58E-04
    5    -115.6960446930      1.29E-04
    6    -115.6960941714      4.37E-05
    7    -115.6960984594      1.20E-05
    8    -115.6960992122      2.23E-06 Convergence criterion met
 ---------------------------------------
 One-Electron    Energy =  -237.5098860879
 Total Coulomb   Energy =    96.7116601997
 Alpha Exchange  Energy =    -1.9166210038
 Beta  Exchange  Energy =    -1.9166210038
 DFT   Exchange  Energy =   -11.0429258359
 DFT Correlation Energy =    -0.5834701156
 Nuclear Repu.   Energy =    40.5617646352
 Nuclear Attr.   Energy =  -352.7938650553
 Kinetic         Energy =   115.2839789674
 SCF time:  CPU 25.24 s  wall 25.79 s
 Final Alpha MO Eigenvalues
            1           2           3           4           5           6
    1 -18.9746628 -10.1571647  -1.1747620  -0.8395278  -0.6498434  -0.5808355
            7           8           9          10          11          12
    1  -0.5632127  -0.4649545  -0.4061585   0.0369579   0.0605188   0.0707873
           13          14
    1   0.0777603   0.1220948
 Analysis of SCF Wavefunction
 
 --------------------------------------------------------------
                    Orbital Energies (a.u.)
 --------------------------------------------------------------
 
 Alpha MOs
 -- Occupied --
-18.975 -10.157  -1.175  -0.840  -0.650  -0.581  -0.563  -0.465
 -0.406
 -- Virtual --
  0.037   0.061   0.071   0.078   0.122   0.142   0.156   0.175
  0.249   0.262   0.264   0.274   0.297   0.303   0.321   0.352
  0.432   0.513   0.524   0.609   0.652   0.654   0.680   0.707
  0.711   0.726   0.817   0.872   0.955   0.983   1.080   1.112
  1.139   1.201   1.236   1.237   1.267   1.318   1.386   1.426
  1.453   1.528   1.545   1.571   1.628   1.667   1.953   2.081
  2.109   2.297   2.348   2.499   2.529   2.615   2.906   3.042
  3.163   3.208   3.213   3.234   3.283   3.393   3.444   3.493
  3.511   3.618   3.752   3.817   3.927   3.958   3.998   4.163
  4.275   4.276   4.350   4.398   4.436   4.460   4.506   5.019
  5.085   5.244   5.267   5.426   5.568   5.662   5.707   5.728
  5.923   6.063   6.542   7.059   7.244   7.293   7.295   7.579
  7.724  24.338  28.015  28.058  28.084  40.959  41.012  41.158
 41.202  41.250  43.837  43.847  43.893  43.934  44.007  45.667
 45.975  46.410  49.860
 --------------------------------------------------------------
 
          Ground-State Mulliken Net Atomic Charges

     Atom                 Charge (a.u.)
  ----------------------------------------
      1 C                    -0.135304
      2 O                    -0.334039
      3 H                     0.086671
      4 H                     0.246067
      5 H                     0.068318
      6 H                     0.068289
  ----------------------------------------
  Sum of atomic charges =     0.000000

 -----------------------------------------------------------------
                    Cartesian Multipole Moments
 -----------------------------------------------------------------
    Charge (ESU x 10^10)
                 0.0000
    Dipole Moment (Debye)
         X      -1.4375      Y       0.0000      Z      -1.0252
       Tot       1.7656
    Quadrupole Moments (Debye-Ang)
        XX     -11.5338     XY       0.0000     YY     -13.7572
        XZ      -3.0809     YZ       0.0000     ZZ     -14.7477
    Octapole Moments (Debye-Ang^2)
       XXX       0.6073    XXY       0.0000    XYY      -0.1211
       YYY       0.0000    XXZ      -5.2936    XYZ       0.0000
       YYZ      -9.0368    XZZ      -5.2159    YZZ       0.0001
       ZZZ     -24.3562
    Hexadecapole Moments (Debye-Ang^3)
      XXXX     -19.1000   XXXY       0.0001   XXYY      -6.9526
      XYYY       0.0001   YYYY     -20.1680   XXXZ      -1.2645
      XXYZ       0.0000   XYYZ       0.9302   YYYZ       0.0000
      XXZZ     -14.1465   XYZZ       0.0000   YYZZ     -20.2617
      XZZZ      -8.3551   YZZZ       0.0001   ZZZZ     -90.0168
 -----------------------------------------------------------------
 Total job time:  25.92s(wall), 25.36s(cpu) 
 Wed May 29 17:03:48 2013

        *************************************************************
        *                                                           *
        *  Thank you very much for using Q-Chem.  Have a nice day.  *
        *                                                           *
        *************************************************************


0 sent ACK to 0 
now end server 0 ... 
 
**********************************************************************
Job 3 of 3 
**********************************************************************
 
Process 0 of 1 is on cl097.stfx.acenet.ca - thread support 1
initial socket setup ...start
initial socket setup ...done 
now start server 0 ... 

cmd = /usr/bin/ssh clhead /usr/local/qchem/bin/get_hostid 1020108923 > /scratch/tmp/6021970.1.short.q/qchem7344/lic.dat
                  Welcome to Q-Chem
     A Quantum Leap Into The Future Of Chemistry

 Y. Shao, L. Fusti-Molnar, Y. Jung, J. Kussmann, C. Ochsenfeld,
 S. T. Brown, A. T. B. Gilbert, L. V. Slipchenko,S. V. Levchenko,
 D. P. O'Neill, R. A. DiStasio Jr., R. C. Lochan, T. Wang,
 G. J. O. Beran, N. A. Besley, J. M. Herbert, C. Y. Lin,
 T. Van Voorhis, S. H. Chien, A. Sodt, R. P. Steele, 
 V. A. Rassolov, P. E. Maslen, P. P. Korambath, R. D. Adamson,
 B. Austin, J. Baker, E. F. C. Byrd, H. Dachsel, R. J. Doerksen,
 A. Dreuw, B. D. Dunietz, A. D. Dutoi, T. R. Furlani,
 S. R. Gwaltney, A. Heyden, S. Hirata, C.-P. Hsu, G. Kedziora,
 R. Z. Khaliullin, P. Klunzinger, A. M. Lee, M. S. Lee, W. Liang,
 I. Lotan, N. Nair, B. Peters, E. I. Proynov, P. A. Pieniazek, 
 Y. M. Rhee, J. Ritchie, E. Rosta, C. D. Sherrill, 
 A. C. Simmonett, J. E. Subotnik, H. L. Woodcock III,
 W. Zhang, A. T. Bell, A. K. Chakraborty, D. M. Chipman,
 F. J. Keil, A. Warshel, W. J. Hehre, H. F. Schaefer III,
 J. Kong, A. I. Krylov, P. M. W. Gill, M. Head-Gordon,
 Q-Chem, Version 3.1, Q-Chem, Inc., Pittsburgh, PA (2007).

 Additional authors for Version 3.1: 
 Z. Gan, Y. Zhao, N. E. Schultz, D. Truhlar, E. Epifanovsky and M. Oana.

 Additional authors for Version 3.2: 
 R. Baer, B. R. Brooks, D. Casanova, J.-D. Chai, C.-L. Cheng, 
 C. Cramer, D. Crittenden, A. Ghysels, G. Hawkins, E. G. Hohenstein, 
 C. Kelley, W. Kurlancheek, D. Liotard, E. Livshits, P. Manohar, 
 A. Marenich, D. Neuhauser, R. Olson, M. A. Rohrdanz, K. S. Thanthiriwatte, 
 A. J. W. Thom, V. Vanovschi, C. F. Williams, Q. Wu and Z.-Q. You. 


 Intel X86 Linux Version

 Q-chem begins on Wed May 29 17:03:50 2013  

 Parallel job on  1  processors
Processing $rem in /usr/local/qchem/config/preferences.

theFileMan(): MAXOPENFILES=974 MAX_SUB_FILE_NUM=16
Maximum size of a physical file is 2.0 GB, maximum size of a tmp-file is 32.0 GB


--------------------------------------------------------------
User input:
--------------------------------------------------------------

$molecule
1,2
C          0.00112        0.00000       -0.00177
O         -0.01212        0.00000        1.40484
H          1.04247        0.00000       -0.31294
H         -0.91650        0.00000        1.71221
H         -0.47920       -0.88913       -0.41695
H         -0.47920        0.88913       -0.41695
$end

$comment
positive
$end

$xc_functional
C PBE   1.00
X wPBE  1.00
$end

$rem
SYMMETRY_DECOMPOSITION	0
LRC_DFT                 true
exchange 		general
BASIS                   g3large
omega			430
mem_static              760
max_scf_cycles          200
scf_final_print         1
sym_ignore              true
$end

--------------------------------------------------------------
 Writing REM_CC_EA            6
 ----------------------------------------------------
       Standard Nuclear Orientation (Angstroms)
    I     Atom         X            Y            Z
 ----------------------------------------------------
    1      C       0.001120     0.000000    -0.001770
    2      O      -0.012120     0.000000     1.404840
    3      H       1.042470     0.000000    -0.312940
    4      H      -0.916500     0.000000     1.712210
    5      H      -0.479200    -0.889130    -0.416950
    6      H      -0.479200     0.889130    -0.416950
 ----------------------------------------------------
 Nuclear Repulsion Energy =    40.5617646370 hartrees
 There are        9 alpha and        8 beta electrons
 Requested basis set is G3large
 There are 44 shells and 124 basis functions

Total QAlloc Memory Limit   2000 MB
Mega-Array Size       743 MB
MEM_STATIC part       760 MB

                       Distance Matrix (Angstroms)
             C (  1)   O (  2)   H (  3)   H (  4)   H (  5)
   O (  2)  1.406672
   H (  3)  1.086847  2.015671
   H (  4)  1.944159  0.955186  2.817587
   H (  5)  1.092536  2.080297  1.765460  2.348426
   H (  6)  1.092536  2.080297  1.765460  2.348426  1.778260
 
 A cutoff of  1.0D-08 yielded    985 shell pairs
 There are   7857 function pairs (  9484 Cartesian)
Evaluating contribution to one-electron hamiltonian from nuclear
 Smallest overlap matrix eigenvalue = 7.72E-04
 Multipole matrices computed through 2nd order

  Scale SEOQF with 1.000000e-01/1.000000e-01/1.000000e-01

 Standard Electronic Orientation quadrupole field applied
 Nucleus-field energy     =    -0.0000000019 hartrees
 Guess from superposition of atomic densities
 Warning:  Energy on first SCF cycle will be non-variational
 Long-range K will be added via erf
 Coulomb attenuation parameter = 0.43 bohr**(-1)
 An unrestricted Kohn-Sham SCF calculation will be
 performed using Pulay DIIS extrapolation
 Exchange:  wPBE + LR-HF      Correlation:  PBE
 Using SG-1 standard quadrature grid
 SCF converges when DIIS error is below 1.0E-05
 Requested basis set is G3large
 There are 44 shells and 124 basis functions
 A cutoff of  1.0D-08 yielded    985 shell pairs
 There are   7857 function pairs (  9484 Cartesian)
 Warning!  Inaccurate integrated density:
   Number of electrons =    17
   Numerical integral  =    18.000014659926
   Relative error      =     5.8824391760 %
 ---------------------------------------
  Cycle       Energy         DIIS Error
 ---------------------------------------
    1    -115.9977771091      3.89E-02
    2    -115.2257166208      4.29E-03
    3    -115.2700027841      2.46E-03
    4    -115.2796142733      8.36E-04
    5    -115.2829876813      5.94E-04
    6    -115.2847889259      2.75E-04
    7    -115.2864939864      1.63E-04
    8    -115.2875544096      7.11E-05
    9    -115.2878322518      4.70E-05
   10    -115.2879943679      3.31E-05
   11    -115.2880525014      1.36E-05
   12    -115.2880557876      3.20E-06 Convergence criterion met
 ---------------------------------------
 One-Electron    Energy =  -231.1592962690
 Total Coulomb   Energy =    90.3983953554
 Alpha Exchange  Energy =    -1.9389296307
 Beta  Exchange  Energy =    -1.7022734132
 DFT   Exchange  Energy =   -10.9020650169
 DFT Correlation Energy =    -0.5456514485
 Nuclear Repu.   Energy =    40.5617646352
 Nuclear Attr.   Energy =  -346.1201574116
 Kinetic         Energy =   114.9608611426
 <S^2> = 0.7552
 SCF time:  CPU 46.01 s  wall 46.53 s
 Final Alpha MO Eigenvalues
            1           2           3           4           5           6
    1 -19.4335332 -10.4625049  -1.5881527  -1.1720197  -1.0111349  -0.9597227
            7           8           9          10          11          12
    1  -0.9137212  -0.8034733  -0.7949749  -0.1493042  -0.1042786  -0.0793182
           13          14
    1  -0.0751878  -0.0517817
 Final Beta MO Eigenvalues
            1           2           3           4           5           6
    1 -19.4136136 -10.4618887  -1.5413100  -1.1547624  -0.9903416  -0.8984814
            7           8           9          10          11          12
    1  -0.8559965  -0.7848021  -0.4094667  -0.1460216  -0.1017863  -0.0778050
           13
    1  -0.0743917
 Analysis of SCF Wavefunction
 
 --------------------------------------------------------------
                    Orbital Energies (a.u.)
 --------------------------------------------------------------
 
 Alpha MOs
 -- Occupied --
-19.434 -10.463  -1.588  -1.172  -1.011  -0.960  -0.914  -0.803
 -0.795
 -- Virtual --
 -0.149  -0.104  -0.079  -0.075  -0.052  -0.042  -0.022   0.003
  0.022   0.041   0.046   0.058   0.066   0.069   0.107   0.134
  0.194   0.275   0.276   0.354   0.394   0.404   0.426   0.439
  0.443   0.481   0.516   0.612   0.674   0.726   0.793   0.828
  0.836   0.903   0.939   0.969   0.992   1.049   1.106   1.146
  1.170   1.241   1.277   1.291   1.315   1.390   1.584   1.740
  1.753   1.946   2.016   2.191   2.227   2.324   2.580   2.744
  2.854   2.893   2.913   2.921   2.982   3.085   3.137   3.173
  3.204   3.303   3.427   3.467   3.618   3.655   3.692   3.832
  3.949   3.978   4.029   4.091   4.120   4.152   4.205   4.615
  4.696   4.812   4.851   5.006   5.184   5.267   5.358   5.391
  5.539   5.704   6.158   6.591   6.803   6.832   6.891   7.161
  7.318  24.032  27.709  27.750  27.780  40.653  40.705  40.851
 40.897  40.943  43.359  43.361  43.415  43.489  43.566  45.184
 45.527  45.961  49.405
 
 Beta MOs
 -- Occupied --
-19.414 -10.462  -1.541  -1.155  -0.990  -0.898  -0.856  -0.785
 -- Virtual --
 -0.409  -0.146  -0.102  -0.078  -0.074  -0.050  -0.040  -0.017
  0.006   0.027   0.043   0.052   0.061   0.067   0.084   0.111
  0.138   0.199   0.280   0.288   0.358   0.407   0.407   0.431
  0.445   0.446   0.489   0.529   0.614   0.678   0.735   0.802
  0.835   0.869   0.923   0.954   0.974   0.997   1.055   1.113
  1.155   1.175   1.251   1.286   1.301   1.335   1.398   1.622
  1.754   1.785   1.969   2.030   2.209   2.232   2.334   2.587
  2.753   2.859   2.907   2.917   2.934   2.984   3.093   3.141
  3.185   3.207   3.310   3.432   3.477   3.628   3.660   3.701
  3.835   3.963   3.993   4.037   4.109   4.141   4.163   4.219
  4.716   4.717   4.867   4.897   5.062   5.201   5.310   5.393
  5.400   5.575   5.712   6.176   6.678   6.862   6.914   6.924
  7.201   7.335  24.033  27.708  27.754  27.780  40.656  40.705
 40.853  40.897  40.945  43.410  43.423  43.466  43.500  43.572
 45.244  45.540  45.975  49.425
 --------------------------------------------------------------
 
          Ground-State Mulliken Net Atomic Charges

     Atom                 Charge (a.u.)    Spin (a.u.)
  --------------------------------------------------------
      1 C                    -0.108696       0.015337
      2 O                     0.210030       0.795314
      3 H                     0.163900      -0.001680
      4 H                     0.334876      -0.014235
      5 H                     0.199912       0.102590
      6 H                     0.199979       0.102674
  --------------------------------------------------------
  Sum of atomic charges =     1.000000
  Sum of spin   charges =     1.000000

 -----------------------------------------------------------------
                    Cartesian Multipole Moments
 -----------------------------------------------------------------
    Charge (ESU x 10^10)
                 4.8032
    Dipole Moment (Debye)
         X      -2.0493      Y       0.0001      Z       2.5079
       Tot       3.2387
    Quadrupole Moments (Debye-Ang)
        XX      -8.5009     XY      -0.0002     YY      -9.6937
        XZ      -3.5518     YZ      -0.0008     ZZ      -5.1393
    Octapole Moments (Debye-Ang^2)
       XXX       0.2490    XXY       0.0001    XYY      -0.9477
       YYY       0.0002    XXZ      -3.7488    XYZ       0.0001
       YYZ      -7.3144    XZZ      -6.5326    YZZ      -0.0009
       ZZZ      -9.9633
    Hexadecapole Moments (Debye-Ang^3)
      XXXX     -12.6060   XXXY      -0.0002   XXYY      -4.6206
      XYYY      -0.0003   YYYY     -12.2302   XXXZ      -2.5059
      XXYZ      -0.0002   XYYZ       1.1964   YYYZ      -0.0007
      XXZZ      -8.5640   XYZZ      -0.0001   YYZZ     -13.4798
      XZZZ     -10.2940   YZZZ      -0.0026   ZZZZ     -55.1596
 -----------------------------------------------------------------
 Total job time:  46.65s(wall), 46.13s(cpu) 
 Wed May 29 17:04:37 2013

        *************************************************************
        *                                                           *
        *  Thank you very much for using Q-Chem.  Have a nice day.  *
        *                                                           *
        *************************************************************


0 sent ACK to 0 
now end server 0 ... 
