Process 0 of 1 is on cl118.stfx.acenet.ca - thread support 1
initial socket setup ...start
initial socket setup ...done 
now start server 0 ... 

cmd = /usr/bin/ssh clhead /usr/local/qchem/bin/get_hostid 103303717 > /scratch/tmp/6067067.1.short.q/qchem28225/lic.dat
                  Welcome to Q-Chem
     A Quantum Leap Into The Future Of Chemistry

 Y. Shao, L. Fusti-Molnar, Y. Jung, J. Kussmann, C. Ochsenfeld,
 S. T. Brown, A. T. B. Gilbert, L. V. Slipchenko,S. V. Levchenko,
 D. P. O'Neill, R. A. DiStasio Jr., R. C. Lochan, T. Wang,
 G. J. O. Beran, N. A. Besley, J. M. Herbert, C. Y. Lin,
 T. Van Voorhis, S. H. Chien, A. Sodt, R. P. Steele, 
 V. A. Rassolov, P. E. Maslen, P. P. Korambath, R. D. Adamson,
 B. Austin, J. Baker, E. F. C. Byrd, H. Dachsel, R. J. Doerksen,
 A. Dreuw, B. D. Dunietz, A. D. Dutoi, T. R. Furlani,
 S. R. Gwaltney, A. Heyden, S. Hirata, C.-P. Hsu, G. Kedziora,
 R. Z. Khaliullin, P. Klunzinger, A. M. Lee, M. S. Lee, W. Liang,
 I. Lotan, N. Nair, B. Peters, E. I. Proynov, P. A. Pieniazek, 
 Y. M. Rhee, J. Ritchie, E. Rosta, C. D. Sherrill, 
 A. C. Simmonett, J. E. Subotnik, H. L. Woodcock III,
 W. Zhang, A. T. Bell, A. K. Chakraborty, D. M. Chipman,
 F. J. Keil, A. Warshel, W. J. Hehre, H. F. Schaefer III,
 J. Kong, A. I. Krylov, P. M. W. Gill, M. Head-Gordon,
 Q-Chem, Version 3.1, Q-Chem, Inc., Pittsburgh, PA (2007).

 Additional authors for Version 3.1: 
 Z. Gan, Y. Zhao, N. E. Schultz, D. Truhlar, E. Epifanovsky and M. Oana.

 Additional authors for Version 3.2: 
 R. Baer, B. R. Brooks, D. Casanova, J.-D. Chai, C.-L. Cheng, 
 C. Cramer, D. Crittenden, A. Ghysels, G. Hawkins, E. G. Hohenstein, 
 C. Kelley, W. Kurlancheek, D. Liotard, E. Livshits, P. Manohar, 
 A. Marenich, D. Neuhauser, R. Olson, M. A. Rohrdanz, K. S. Thanthiriwatte, 
 A. J. W. Thom, V. Vanovschi, C. F. Williams, Q. Wu and Z.-Q. You. 


 Intel X86 Linux Version

 Q-chem begins on Wed Jul 24 15:58:52 2013  

 Parallel job on  1  processors
Processing $rem in /usr/local/qchem/config/preferences.

theFileMan(): MAXOPENFILES=974 MAX_SUB_FILE_NUM=16
Maximum size of a physical file is 2.0 GB, maximum size of a tmp-file is 32.0 GB


--------------------------------------------------------------
User input:
--------------------------------------------------------------

$molecule
0,3
S
S,1,R

R=1.92739053

$end


$comment
b3lyp opt
$end

$rem
   EXCHANGE B3LYP
   UNRESTRICTED TRUE
   SYMMETRY_DECOMPOSITION	0
   BASIS                   g3large
   JOBTYPE                 opt
   mem_static              760
   max_scf_cycles          200
   scf_final_print         1
   sym_ignore              true
$end


--------------------------------------------------------------
 Writing REM_CC_EA            2
 ----------------------------------------------------
       Standard Nuclear Orientation (Angstroms)
    I     Atom         X            Y            Z
 ----------------------------------------------------
    1      S       0.000000     0.000000     0.000000
    2      S       0.000000     0.000000     1.927391
 ----------------------------------------------------
 Nuclear Repulsion Energy =    70.2864125647 hartrees
 There are       17 alpha and       15 beta electrons
 Requested basis set is G3large
 There are 38 shells and 132 basis functions

Total QAlloc Memory Limit   2000 MB
Mega-Array Size       743 MB
MEM_STATIC part       760 MB
 A cutoff of  1.0D-11 yielded    697 shell pairs
 There are   8670 function pairs ( 12473 Cartesian)
Evaluating contribution to one-electron hamiltonian from nuclear
 Smallest overlap matrix eigenvalue = 9.12E-04
 Multipole matrices computed through 2nd order

  Scale SEOQF with 1.000000e-01/1.000000e-01/1.000000e-01

 Standard Electronic Orientation quadrupole field applied
 Nucleus-field energy     =    -0.0000000064 hartrees
 Guess from superposition of atomic densities
 Warning:  Energy on first SCF cycle will be non-variational
 An unrestricted hybrid HF-DFT SCF calculation will be
 performed using Pulay DIIS extrapolation
 Exchange:     0.2000 Hartree-Fock + 0.0800 Slater + 0.7200 Becke88
 Correlation:  0.8100 LYP + 0.1900 VWN1RPA
 Using SG-1 standard quadrature grid
 SCF converges when DIIS error is below 1.0E-08
 ---------------------------------------
  Cycle       Energy         DIIS Error
 ---------------------------------------
    1    -796.5605002040      2.55E-02
    2    -796.4297819217      1.08E-03
    3    -796.4346386983      3.05E-04
    4    -796.4349096310      2.05E-04
    5    -796.4350054470      1.68E-05
    6    -796.4350134204      6.18E-06
    7    -796.4350140707      7.05E-07
    8    -796.4350140987      1.88E-07
    9    -796.4350140997      6.05E-08
   10    -796.4350140999      1.80E-08
   11    -796.4350140999      2.05E-08
   12    -796.4350140996      4.90E-09 Convergence criterion met
 ---------------------------------------
 One-Electron    Energy = -1239.5298482778
 Total Coulomb   Energy =   424.1846738748
 Alpha Exchange  Energy =    -5.1046205404
 Beta  Exchange  Energy =    -4.8964036406
 DFT   Exchange  Energy =   -39.7225962273
 DFT Correlation Energy =    -1.6526318465
 Nuclear Repu.   Energy =    70.2864125583
 Nuclear Attr.   Energy = -2034.7595734424
 Kinetic         Energy =   795.2297251646
 <S^2> = 2.0098
 SCF time:  CPU 46.68 s  wall 47.73 s
 Final Alpha MO Eigenvalues
            1           2           3           4           5           6
    1 -88.9070098 -88.9070094  -7.9890157  -7.9888937  -5.9507769  -5.9507769
            7           8           9          10          11          12
    1  -5.9507347  -5.9507347  -5.9494234  -5.9487590  -0.8369739  -0.6416136
           13          14          15          16          17          18
    1  -0.4037662  -0.3787933  -0.3787933  -0.2542189  -0.2542189  -0.0318603
           19          20          21          22
    1   0.0128425   0.0481317   0.0481317   0.0585778
 Final Beta MO Eigenvalues
            1           2           3           4           5           6
    1 -88.9003552 -88.9003541  -7.9830860  -7.9829366  -5.9463609  -5.9456882
            7           8           9          10          11          12
    1  -5.9383436  -5.9383436  -5.9382941  -5.9382941  -0.8086308  -0.5859605
           13          14          15          16          17          18
    1  -0.3817587  -0.3300464  -0.3300464  -0.1459163  -0.1459163  -0.0187065
           19          20
    1   0.0150155   0.0503774
 Analysis of SCF Wavefunction
 
 --------------------------------------------------------------
                    Orbital Energies (a.u.)
 --------------------------------------------------------------
 
 Alpha MOs
 -- Occupied --
-88.907 -88.907  -7.989  -7.989  -5.951  -5.951  -5.951  -5.951
 -5.949  -5.949  -0.837  -0.642  -0.404  -0.379  -0.379  -0.254
 -0.254
 -- Virtual --
 -0.032   0.013   0.048   0.048   0.059   0.059   0.083   0.083
  0.137   0.151   0.151   0.174   0.174   0.250   0.272   0.273
  0.316   0.376   0.376   0.386   0.386   0.435   0.484   0.484
  0.509   0.628   0.781   0.781   0.788   0.788   0.792   0.792
  0.862   0.920   0.921   0.933   0.933   0.951   0.951   1.005
  1.005   1.009   1.096   1.180   1.180   1.225   1.225   1.279
  1.312   1.312   1.392   1.709   1.709   1.946   1.946   2.048
  2.290   3.271   3.388   3.388   3.430   3.430   3.433   3.433
  3.446   3.446   3.486   3.486   3.610   3.610   3.697   4.424
  4.453   4.454   4.454   4.455   4.491   4.493   4.663   4.663
  5.403   8.167   8.198  17.024  17.024  17.133  17.133  17.290
 17.381  23.404  23.415  23.433  23.493  23.497  23.497  23.512
 23.593  23.593  23.855  30.910  30.918  30.918  30.922  30.922
 30.925  30.925  30.930  30.930  30.930  30.931  30.940  30.940
 30.963 189.374 189.396
 
 Beta MOs
 -- Occupied --
-88.900 -88.900  -7.983  -7.983  -5.946  -5.946  -5.938  -5.938
 -5.938  -5.938  -0.809  -0.586  -0.382  -0.330  -0.330
 -- Virtual --
 -0.146  -0.146  -0.019   0.015   0.050   0.050   0.060   0.065
  0.089   0.089   0.140   0.175   0.175   0.196   0.196   0.261
  0.310   0.310   0.323   0.389   0.389   0.406   0.406   0.446
  0.500   0.500   0.522   0.634   0.803   0.803   0.804   0.804
  0.806   0.806   0.881   0.959   0.959   0.963   0.963   0.989
  0.990   1.022   1.023   1.023   1.111   1.201   1.201   1.241
  1.241   1.296   1.332   1.332   1.407   1.737   1.737   1.970
  1.970   2.049   2.296   3.290   3.440   3.440   3.465   3.465
  3.467   3.467   3.481   3.481   3.518   3.518   3.633   3.633
  3.715   4.430   4.460   4.460   4.468   4.470   4.507   4.509
  4.671   4.671   5.414   8.180   8.210  17.041  17.041  17.150
 17.150  17.293  17.385  23.409  23.428  23.446  23.504  23.504
 23.506  23.524  23.600  23.600  23.861  30.912  30.922  30.922
 30.927  30.927  30.928  30.929  30.932  30.932  30.934  30.934
 30.942  30.942  30.965 189.380 189.402
 --------------------------------------------------------------
 
          Ground-State Mulliken Net Atomic Charges

     Atom                 Charge (a.u.)    Spin (a.u.)
  --------------------------------------------------------
      1 S                     0.000000       1.000000
      2 S                     0.000000       1.000000
  --------------------------------------------------------
  Sum of atomic charges =     0.000000
  Sum of spin   charges =     2.000000

 -----------------------------------------------------------------
                    Cartesian Multipole Moments
 -----------------------------------------------------------------
    Charge (ESU x 10^10)
                 0.0000
    Dipole Moment (Debye)
         X       0.0000      Y       0.0000      Z       0.0000
       Tot       0.0000
    Quadrupole Moments (Debye-Ang)
        XX     -26.0632     XY       0.0000     YY     -26.0632
        XZ       0.0000     YZ       0.0000     ZZ     -24.0675
    Octapole Moments (Debye-Ang^2)
       XXX       0.0000    XXY       0.0000    XYY       0.0000
       YYY       0.0000    XXZ     -25.1170    XYZ       0.0000
       YYZ     -25.1170    XZZ       0.0000    YZZ       0.0000
       ZZZ     -69.5812
    Hexadecapole Moments (Debye-Ang^3)
      XXXX     -35.5704   XXXY       0.0000   XXYY     -11.8561
      XYYY       0.0000   YYYY     -35.5704   XXXZ       0.0000
      XXYZ       0.0000   XYYZ       0.0000   YYYZ       0.0000
      XXZZ     -59.8219   XYZZ       0.0000   YYZZ     -59.8219
      XZZZ       0.0000   YZZZ       0.0000   ZZZZ    -298.1129
 -----------------------------------------------------------------
 Calculating analytic gradient of the SCF energy
 Gradient of XC Energy
            1           2
    1  -0.0000000   0.0000000
    2   0.0000000  -0.0000000
    3  -0.2290135   0.2290135
 Gradient of SCF Energy
            1           2
    1  -0.0000000   0.0000000
    2   0.0000000  -0.0000000
    3  -0.0150719   0.0150719
 Max gradient component =       1.507E-02
 RMS gradient           =       8.702E-03
 Gradient time:  CPU 20.18 s  wall 20.25 s
 Geometry Optimization Parameters
   NAtoms,    NIC,     NZ,  NCons,   NDum,   NFix, NCnnct, MaxDiis
        2       5       2       0       0       0       0       0


** GEOMETRY OPTIMIZATION IN DELOCALIZED INTERNAL COORDINATES **
   Searching for a Minimum

   Optimization Cycle:   1

                       Coordinates (Angstroms)
     ATOM              X           Y           Z
    1  S           0.000000    0.000000    0.000000
    2  S           0.000000    0.000000    1.927391
   Point Group: c1    Number of degrees of freedom:   0


   Energy is   -796.435014100


 Attempting to Generate Delocalized Internal Coordinates

  ***ERROR*** Wrong Number of Internal Coordinates
              Should be:   0  Found:   1
**WARNING** Problems with Internal Coordinates
  Switching to Cartesian Coordinates

 Translations and Rotations Projected Out of Hessian

  1 Hessian modes will be used to form the next step
  Hessian Eigenvalues:
     1.000000

 Minimum Search - Taking Simple RFO Step
 Searching for Lamda that Minimizes Along All modes
 Value Taken    Lamda =  -0.00045433
 Step Taken.  Stepsize is  0.021305

                             Maximum     Tolerance    Cnvgd?
         Gradient           0.015072      0.000300      NO
         Displacement       0.015065      0.001200      NO
         Energy change     *********      0.000001      NO

 Writing REM_CC_EA            2
 ----------------------------------------------------
       Standard Nuclear Orientation (Angstroms)
    I     Atom         X            Y            Z
 ----------------------------------------------------
    1      S       0.000000     0.000000     0.007972
    2      S       0.000000     0.000000     1.919418
 ----------------------------------------------------
 Nuclear Repulsion Energy =    70.8727023788 hartrees
 There are       17 alpha and       15 beta electrons
 Applying Cartesian multipole field
    Component          Value
    ---------          -----
     (2,0,0)        1.00000E-11
     (0,2,0)        2.00000E-11
     (0,0,2)       -3.00000E-11
 Nucleus-field energy     =    -0.0000000063 hartrees
 Requested basis set is G3large
 There are 38 shells and 132 basis functions
 A cutoff of  1.0D-11 yielded    699 shell pairs
 There are   8676 function pairs ( 12479 Cartesian)
Evaluating contribution to one-electron hamiltonian from nuclear
 Smallest overlap matrix eigenvalue = 8.72E-04
 Multipole matrices computed through 2nd order
 Guess MOs from SCF MO coefficient file
Reading MOs from coefficient file
Reading MOs from coefficient file
 An unrestricted hybrid HF-DFT SCF calculation will be
 performed using Pulay DIIS extrapolation
 Exchange:     0.2000 Hartree-Fock + 0.0800 Slater + 0.7200 Becke88
 Correlation:  0.8100 LYP + 0.1900 VWN1RPA
 Using SG-1 standard quadrature grid
 SCF converges when DIIS error is below 1.0E-08
 ---------------------------------------
  Cycle       Energy         DIIS Error
 ---------------------------------------
    1    -796.4454469094      6.77E-04
    2    -796.4353256050      9.01E-05
    3    -796.4353262523      9.80E-05
    4    -796.4353447732      5.03E-06
    5    -796.4353448123      6.89E-07
    6    -796.4353448139      2.11E-07
    7    -796.4353448141      1.93E-08
    8    -796.4353448140      5.83E-09 Convergence criterion met
 ---------------------------------------
 One-Electron    Energy = -1240.7080877352
 Total Coulomb   Energy =   424.7841079684
 Alpha Exchange  Energy =    -5.1052563426
 Beta  Exchange  Energy =    -4.8975242341
 DFT   Exchange  Energy =   -39.7281877249
 DFT Correlation Energy =    -1.6530991182
 Nuclear Repu.   Energy =    70.8727023724
 Nuclear Attr.   Energy = -2035.9694872492
 Kinetic         Energy =   795.2613995140
 <S^2> = 2.0097
 SCF time:  CPU 31.16 s  wall 31.37 s
 Final Alpha MO Eigenvalues
            1           2           3           4           5           6
    1 -88.9057614 -88.9057608  -7.9881458  -7.9880046  -5.9498836  -5.9498836
            7           8           9          10          11          12
    1  -5.9498357  -5.9498357  -5.9485200  -5.9477827  -0.8407520  -0.6398197
           13          14          15          16          17          18
    1  -0.4045871  -0.3805785  -0.3805785  -0.2525966  -0.2525966  -0.0282651
           19          20          21          22
    1   0.0127740   0.0478591   0.0478591   0.0583969
 Final Beta MO Eigenvalues
            1           2           3           4           5           6
    1 -88.8991193 -88.8991182  -7.9822252  -7.9820563  -5.9454636  -5.9447177
            7           8           9          10          11          12
    1  -5.9374721  -5.9374721  -5.9374164  -5.9374164  -0.8128668  -0.5840908
           13          14          15          16          17          18
    1  -0.3822342  -0.3321808  -0.3321808  -0.1441941  -0.1441941  -0.0154731
           19          20
    1   0.0149323   0.0500632
 Analysis of SCF Wavefunction
 
 --------------------------------------------------------------
                    Orbital Energies (a.u.)
 --------------------------------------------------------------
 
 Alpha MOs
 -- Occupied --
-88.906 -88.906  -7.988  -7.988  -5.950  -5.950  -5.950  -5.950
 -5.949  -5.948  -0.841  -0.640  -0.405  -0.381  -0.381  -0.253
 -0.253
 -- Virtual --
 -0.028   0.013   0.048   0.048   0.058   0.061   0.084   0.084
  0.137   0.150   0.150   0.175   0.175   0.250   0.274   0.274
  0.316   0.376   0.376   0.387   0.387   0.432   0.485   0.485
  0.515   0.631   0.780   0.780   0.787   0.787   0.793   0.793
  0.862   0.922   0.922   0.934   0.934   0.952   0.952   1.004
  1.004   1.012   1.099   1.183   1.183   1.231   1.231   1.289
  1.312   1.312   1.385   1.709   1.709   1.953   1.953   2.061
  2.287   3.254   3.388   3.388   3.431   3.431   3.432   3.432
  3.432   3.433   3.488   3.488   3.620   3.620   3.710   4.428
  4.451   4.451   4.453   4.455   4.493   4.495   4.676   4.676
  5.437   8.174   8.207  17.026  17.026  17.138  17.138  17.296
 17.379  23.406  23.415  23.434  23.494  23.496  23.496  23.513
 23.600  23.600  23.872  30.909  30.918  30.918  30.923  30.923
 30.926  30.926  30.929  30.929  30.932  30.932  30.942  30.942
 30.968 189.386 189.402
 
 Beta MOs
 -- Occupied --
-88.899 -88.899  -7.982  -7.982  -5.945  -5.945  -5.937  -5.937
 -5.937  -5.937  -0.813  -0.584  -0.382  -0.332  -0.332
 -- Virtual --
 -0.144  -0.144  -0.015   0.015   0.050   0.050   0.060   0.067
  0.089   0.089   0.140   0.174   0.174   0.197   0.197   0.260
  0.311   0.311   0.324   0.389   0.389   0.407   0.407   0.443
  0.501   0.501   0.528   0.637   0.802   0.802   0.803   0.803
  0.807   0.807   0.881   0.960   0.960   0.964   0.964   0.991
  0.991   1.023   1.023   1.025   1.113   1.204   1.204   1.247
  1.247   1.306   1.332   1.332   1.401   1.737   1.737   1.977
  1.977   2.063   2.293   3.274   3.440   3.440   3.453   3.453
  3.464   3.464   3.482   3.482   3.520   3.520   3.643   3.643
  3.728   4.434   4.457   4.457   4.467   4.469   4.508   4.510
  4.684   4.684   5.448   8.187   8.219  17.042  17.042  17.154
 17.154  17.299  17.382  23.411  23.428  23.447  23.503  23.503
 23.506  23.526  23.607  23.607  23.877  30.911  30.923  30.923
 30.928  30.928  30.929  30.929  30.932  30.932  30.935  30.935
 30.944  30.944  30.971 189.392 189.408
 --------------------------------------------------------------
 
          Ground-State Mulliken Net Atomic Charges

     Atom                 Charge (a.u.)    Spin (a.u.)
  --------------------------------------------------------
      1 S                     0.000001       1.000000
      2 S                    -0.000001       1.000000
  --------------------------------------------------------
  Sum of atomic charges =     0.000000
  Sum of spin   charges =     2.000000

 -----------------------------------------------------------------
                    Cartesian Multipole Moments
 -----------------------------------------------------------------
    Charge (ESU x 10^10)
                 0.0000
    Dipole Moment (Debye)
         X       0.0000      Y       0.0000      Z       0.0000
       Tot       0.0000
    Quadrupole Moments (Debye-Ang)
        XX     -26.0243     XY       0.0000     YY     -26.0243
        XZ       0.0000     YZ       0.0000     ZZ     -24.1226
    Octapole Moments (Debye-Ang^2)
       XXX       0.0000    XXY       0.0000    XYY       0.0000
       YYY       0.0000    XXZ     -25.0795    XYZ       0.0000
       YYZ     -25.0795    XZZ       0.0000    YZZ       0.0000
       ZZZ     -69.7406
    Hexadecapole Moments (Debye-Ang^3)
      XXXX     -35.4564   XXXY       0.0000   XXYY     -11.8182
      XYYY       0.0000   YYYY     -35.4564   XXXZ       0.0000
      XXYZ       0.0000   XYYZ       0.0000   YYYZ       0.0000
      XXZZ     -59.3995   XYZZ       0.0000   YYZZ     -59.3995
      XZZZ       0.0000   YZZZ       0.0000   ZZZZ    -296.4728
 -----------------------------------------------------------------
 Calculating analytic gradient of the SCF energy
 Gradient of XC Energy
            1           2
    1   0.0000000  -0.0000000
    2   0.0000000  -0.0000000
    3  -0.2311837   0.2311837
 Gradient of SCF Energy
            1           2
    1  -0.0000000   0.0000000
    2   0.0000000  -0.0000000
    3  -0.0067591   0.0067591
 Max gradient component =       6.759E-03
 RMS gradient           =       3.902E-03
 Gradient time:  CPU 20.25 s  wall 20.32 s
 Geometry Optimization Parameters
   NAtoms,    NIC,     NZ,  NCons,   NDum,   NFix, NCnnct, MaxDiis
        2       5       2       0       0       0       0       0

 Cartesian Hessian Update
 Hessian Updated using BFGS Update


** GEOMETRY OPTIMIZATION IN CARTESIAN COORDINATES **
   Searching for a Minimum

   Optimization Cycle:   2

                       Coordinates (Angstroms)
     ATOM              X           Y           Z
    1  S           0.000000    0.000000    0.007972
    2  S           0.000000    0.000000    1.919418
   Point Group: c1    Number of degrees of freedom:   0


   Energy is   -796.435344814


 Translations and Rotations Projected Out of Hessian

  1 Hessian modes will be used to form the next step
  Hessian Eigenvalues:
     0.551792

 Minimum Search - Taking Simple RFO Step
 Searching for Lamda that Minimizes Along All modes
 Value Taken    Lamda =  -0.00016559
 Step Taken.  Stepsize is  0.017318

                             Maximum     Tolerance    Cnvgd?
         Gradient           0.006759      0.000300      NO
         Displacement       0.012246      0.001200      NO
         Energy change     -0.000331      0.000001      NO

 Writing REM_CC_EA            2
 ----------------------------------------------------
       Standard Nuclear Orientation (Angstroms)
    I     Atom         X            Y            Z
 ----------------------------------------------------
    1      S       0.000000     0.000000     0.014452
    2      S       0.000000     0.000000     1.912938
 ----------------------------------------------------
 Nuclear Repulsion Energy =    71.3565276253 hartrees
 There are       17 alpha and       15 beta electrons
 Applying Cartesian multipole field
    Component          Value
    ---------          -----
     (2,0,0)        1.00000E-11
     (0,2,0)        2.00000E-11
     (0,0,2)       -3.00000E-11
 Nucleus-field energy     =    -0.0000000063 hartrees
 Requested basis set is G3large
 There are 38 shells and 132 basis functions
 A cutoff of  1.0D-11 yielded    701 shell pairs
 There are   8682 function pairs ( 12485 Cartesian)
Evaluating contribution to one-electron hamiltonian from nuclear
 Smallest overlap matrix eigenvalue = 8.41E-04
 Multipole matrices computed through 2nd order
 Guess MOs from SCF MO coefficient file
Reading MOs from coefficient file
Reading MOs from coefficient file
 An unrestricted hybrid HF-DFT SCF calculation will be
 performed using Pulay DIIS extrapolation
 Exchange:     0.2000 Hartree-Fock + 0.0800 Slater + 0.7200 Becke88
 Correlation:  0.8100 LYP + 0.1900 VWN1RPA
 Using SG-1 standard quadrature grid
 SCF converges when DIIS error is below 1.0E-08
 ---------------------------------------
  Cycle       Energy         DIIS Error
 ---------------------------------------
    1    -796.4435943190      5.64E-04
    2    -796.4354093350      7.27E-05
    3    -796.4354097777      7.91E-05
    4    -796.4354218052      4.21E-06
    5    -796.4354218308      6.18E-07
    6    -796.4354218320      2.10E-07
    7    -796.4354218322      1.98E-07
    8    -796.4354218323      1.42E-08
    9    -796.4354218321      2.15E-09 Convergence criterion met
 ---------------------------------------
 One-Electron    Energy = -1241.6799987368
 Total Coulomb   Energy =   425.2786393687
 Alpha Exchange  Energy =    -5.1057832031
 Beta  Exchange  Energy =    -4.8984551321
 DFT   Exchange  Energy =   -39.7328667946
 DFT Correlation Energy =    -1.6534849531
 Nuclear Repu.   Energy =    71.3565276190
 Nuclear Attr.   Energy = -2036.9684077082
 Kinetic         Energy =   795.2884089714
 <S^2> = 2.0097
 SCF time:  CPU 34.22 s  wall 34.52 s
 Final Alpha MO Eigenvalues
            1           2           3           4           5           6
    1 -88.9047181 -88.9047176  -7.9874272  -7.9872688  -5.9491429  -5.9491429
            7           8           9          10          11          12
    1  -5.9490898  -5.9490898  -5.9477765  -5.9469742  -0.8438897  -0.6383468
           13          14          15          16          17          18
    1  -0.4052337  -0.3820696  -0.3820696  -0.2512561  -0.2512561  -0.0254027
           19          20          21          22
    1   0.0127158   0.0476295   0.0476295   0.0582506
 Final Beta MO Eigenvalues
            1           2           3           4           5           6
    1 -88.8980869 -88.8980857  -7.9815145  -7.9813281  -5.9447254  -5.9439140
            7           8           9          10          11          12
    1  -5.9367503  -5.9367503  -5.9366890  -5.9366890  -0.8163791  -0.5825570
           13          14          15          16          17          18
    1  -0.3825977  -0.3339606  -0.3339606  -0.1427744  -0.1427744  -0.0129265
           19          20
    1   0.0148626   0.0498009
 Analysis of SCF Wavefunction
 
 --------------------------------------------------------------
                    Orbital Energies (a.u.)
 --------------------------------------------------------------
 
 Alpha MOs
 -- Occupied --
-88.905 -88.905  -7.987  -7.987  -5.949  -5.949  -5.949  -5.949
 -5.948  -5.947  -0.844  -0.638  -0.405  -0.382  -0.382  -0.251
 -0.251
 -- Virtual --
 -0.025   0.013   0.048   0.048   0.058   0.062   0.084   0.084
  0.137   0.149   0.149   0.175   0.175   0.249   0.275   0.275
  0.317   0.376   0.376   0.388   0.388   0.430   0.486   0.486
  0.520   0.634   0.779   0.779   0.786   0.786   0.793   0.793
  0.862   0.923   0.923   0.936   0.936   0.953   0.953   1.003
  1.003   1.015   1.101   1.186   1.186   1.236   1.236   1.297
  1.312   1.312   1.379   1.710   1.710   1.959   1.959   2.072
  2.285   3.242   3.389   3.389   3.421   3.421   3.431   3.431
  3.431   3.432   3.490   3.490   3.629   3.629   3.720   4.433
  4.448   4.448   4.453   4.454   4.494   4.496   4.687   4.687
  5.464   8.180   8.215  17.027  17.027  17.142  17.142  17.300
 17.377  23.408  23.416  23.435  23.494  23.496  23.496  23.514
 23.606  23.606  23.885  30.907  30.919  30.919  30.924  30.924
 30.926  30.927  30.929  30.929  30.932  30.933  30.944  30.944
 30.973 189.396 189.408
 
 Beta MOs
 -- Occupied --
-88.898 -88.898  -7.982  -7.981  -5.945  -5.944  -5.937  -5.937
 -5.937  -5.937  -0.816  -0.583  -0.383  -0.334  -0.334
 -- Virtual --
 -0.143  -0.143  -0.013   0.015   0.050   0.050   0.059   0.069
  0.089   0.089   0.141   0.173   0.173   0.197   0.197   0.259
  0.312   0.312   0.324   0.389   0.389   0.408   0.408   0.440
  0.502   0.502   0.532   0.640   0.801   0.801   0.803   0.803
  0.807   0.807   0.880   0.961   0.961   0.966   0.966   0.992
  0.992   1.022   1.022   1.027   1.116   1.207   1.207   1.252
  1.252   1.314   1.332   1.332   1.395   1.738   1.738   1.982
  1.982   2.073   2.291   3.261   3.440   3.440   3.442   3.442
  3.463   3.463   3.482   3.482   3.522   3.522   3.652   3.652
  3.738   4.438   4.454   4.454   4.467   4.469   4.509   4.511
  4.696   4.696   5.475   8.193   8.227  17.044  17.044  17.158
 17.158  17.303  17.381  23.414  23.429  23.448  23.503  23.503
 23.507  23.527  23.613  23.613  23.891  30.910  30.924  30.924
 30.929  30.929  30.930  30.930  30.932  30.932  30.936  30.936
 30.946  30.946  30.975 189.402 189.414
 --------------------------------------------------------------
 
          Ground-State Mulliken Net Atomic Charges

     Atom                 Charge (a.u.)    Spin (a.u.)
  --------------------------------------------------------
      1 S                     0.000000       1.000000
      2 S                     0.000000       1.000000
  --------------------------------------------------------
  Sum of atomic charges =     0.000000
  Sum of spin   charges =     2.000000

 -----------------------------------------------------------------
                    Cartesian Multipole Moments
 -----------------------------------------------------------------
    Charge (ESU x 10^10)
                 0.0000
    Dipole Moment (Debye)
         X       0.0000      Y       0.0000      Z       0.0000
       Tot       0.0000
    Quadrupole Moments (Debye-Ang)
        XX     -25.9922     XY       0.0000     YY     -25.9922
        XZ       0.0000     YZ       0.0000     ZZ     -24.1680
    Octapole Moments (Debye-Ang^2)
       XXX       0.0000    XXY       0.0000    XYY       0.0000
       YYY       0.0000    XXZ     -25.0485    XYZ       0.0000
       YYZ     -25.0485    XZZ       0.0000    YZZ       0.0000
       ZZZ     -69.8719
    Hexadecapole Moments (Debye-Ang^3)
      XXXX     -35.3633   XXXY       0.0000   XXYY     -11.7871
      XYYY       0.0000   YYYY     -35.3633   XXXZ       0.0000
      XXYZ       0.0000   XYYZ       0.0000   YYYZ       0.0000
      XXZZ     -59.0597   XYZZ       0.0000   YYZZ     -59.0597
      XZZZ       0.0000   YZZZ       0.0000   ZZZZ    -295.1599
 -----------------------------------------------------------------
 Calculating analytic gradient of the SCF energy
 Gradient of XC Energy
            1           2
    1  -0.0000000   0.0000000
    2  -0.0000000   0.0000000
    3  -0.2328772   0.2328772
 Gradient of SCF Energy
            1           2
    1  -0.0000000   0.0000000
    2  -0.0000000   0.0000000
    3   0.0005569  -0.0005569
 Max gradient component =       5.569E-04
 RMS gradient           =       3.215E-04
 Gradient time:  CPU 20.23 s  wall 20.27 s
 Geometry Optimization Parameters
   NAtoms,    NIC,     NZ,  NCons,   NDum,   NFix, NCnnct, MaxDiis
        2       5       2       0       0       0       0       0

 Cartesian Hessian Update
 Hessian Updated using BFGS Update


** GEOMETRY OPTIMIZATION IN CARTESIAN COORDINATES **
   Searching for a Minimum

   Optimization Cycle:   3

                       Coordinates (Angstroms)
     ATOM              X           Y           Z
    1  S           0.000000    0.000000    0.014452
    2  S           0.000000    0.000000    1.912938
   Point Group: c1    Number of degrees of freedom:   0


   Energy is   -796.435421832


 Translations and Rotations Projected Out of Hessian

  1 Hessian modes will be used to form the next step
  Hessian Eigenvalues:
     0.597433

 Minimum Search - Taking Simple RFO Step
 Searching for Lamda that Minimizes Along All modes
 Value Taken    Lamda =  -0.00000104
 Step Taken.  Stepsize is  0.001318

                             Maximum     Tolerance    Cnvgd?
         Gradient           0.000557      0.000300      NO
         Displacement       0.000932      0.001200     YES
         Energy change     -0.000077      0.000001      NO

 Writing REM_CC_EA            2
 ----------------------------------------------------
       Standard Nuclear Orientation (Angstroms)
    I     Atom         X            Y            Z
 ----------------------------------------------------
    1      S       0.000000     0.000000     0.013959
    2      S       0.000000     0.000000     1.913432
 ----------------------------------------------------
 Nuclear Repulsion Energy =    71.3194673774 hartrees
 There are       17 alpha and       15 beta electrons
 Applying Cartesian multipole field
    Component          Value
    ---------          -----
     (2,0,0)        1.00000E-11
     (0,2,0)        2.00000E-11
     (0,0,2)       -3.00000E-11
 Nucleus-field energy     =    -0.0000000063 hartrees
 Requested basis set is G3large
 There are 38 shells and 132 basis functions
 A cutoff of  1.0D-11 yielded    701 shell pairs
 There are   8682 function pairs ( 12485 Cartesian)
Evaluating contribution to one-electron hamiltonian from nuclear
 Smallest overlap matrix eigenvalue = 8.43E-04
 Multipole matrices computed through 2nd order
 Guess MOs from SCF MO coefficient file
Reading MOs from coefficient file
Reading MOs from coefficient file
 An unrestricted hybrid HF-DFT SCF calculation will be
 performed using Pulay DIIS extrapolation
 Exchange:     0.2000 Hartree-Fock + 0.0800 Slater + 0.7200 Becke88
 Correlation:  0.8100 LYP + 0.1900 VWN1RPA
 Using SG-1 standard quadrature grid
 SCF converges when DIIS error is below 1.0E-08
 ---------------------------------------
  Cycle       Energy         DIIS Error
 ---------------------------------------
    1    -796.4348112154      4.33E-05
    2    -796.4354222606      5.56E-06
    3    -796.4354222633      6.03E-06
    4    -796.4354223333      3.25E-07
    5    -796.4354223333      4.86E-08
    6    -796.4354223335      1.33E-08
    7    -796.4354223335      2.47E-09 Convergence criterion met
 ---------------------------------------
 One-Electron    Energy = -1241.6055669153
 Total Coulomb   Energy =   425.2407655141
 Alpha Exchange  Energy =    -5.1057427835
 Beta  Exchange  Energy =    -4.8983836633
 DFT   Exchange  Energy =   -39.7325064686
 DFT Correlation Energy =    -1.6534553879
 Nuclear Repu.   Energy =    71.3194673711
 Nuclear Attr.   Energy = -2036.8918799693
 Kinetic         Energy =   795.2863130540
 <S^2> = 2.0097
 SCF time:  CPU 24.86 s  wall 25.04 s
 Final Alpha MO Eigenvalues
            1           2           3           4           5           6
    1 -88.9047984 -88.9047979  -7.9874822  -7.9873252  -5.9491997  -5.9491997
            7           8           9          10          11          12
    1  -5.9491470  -5.9491470  -5.9478334  -5.9470362  -0.8436487  -0.6384594
           13          14          15          16          17          18
    1  -0.4051851  -0.3819548  -0.3819548  -0.2513588  -0.2513588  -0.0256185
           19          20          21          22
    1   0.0127204   0.0476472   0.0476472   0.0582617
 Final Beta MO Eigenvalues
            1           2           3           4           5           6
    1 -88.8981664 -88.8981652  -7.9815689  -7.9813839  -5.9447818  -5.9439756
            7           8           9          10          11          12
    1  -5.9368056  -5.9368056  -5.9367448  -5.9367448  -0.8161096  -0.5826741
           13          14          15          16          17          18
    1  -0.3825708  -0.3338237  -0.3338237  -0.1428831  -0.1428831  -0.0131176
           19          20
    1   0.0148679   0.0498211
 Analysis of SCF Wavefunction
 
 --------------------------------------------------------------
                    Orbital Energies (a.u.)
 --------------------------------------------------------------
 
 Alpha MOs
 -- Occupied --
-88.905 -88.905  -7.987  -7.987  -5.949  -5.949  -5.949  -5.949
 -5.948  -5.947  -0.844  -0.638  -0.405  -0.382  -0.382  -0.251
 -0.251
 -- Virtual --
 -0.026   0.013   0.048   0.048   0.058   0.062   0.084   0.084
  0.137   0.149   0.149   0.175   0.175   0.249   0.275   0.275
  0.317   0.376   0.376   0.388   0.388   0.430   0.486   0.486
  0.519   0.634   0.779   0.779   0.786   0.786   0.793   0.793
  0.862   0.923   0.923   0.936   0.936   0.953   0.953   1.003
  1.003   1.014   1.101   1.185   1.186   1.236   1.236   1.297
  1.312   1.312   1.380   1.710   1.710   1.958   1.958   2.071
  2.285   3.243   3.389   3.389   3.422   3.422   3.431   3.431
  3.432   3.432   3.490   3.490   3.629   3.629   3.719   4.432
  4.448   4.448   4.453   4.455   4.494   4.496   4.686   4.686
  5.462   8.179   8.215  17.027  17.027  17.142  17.142  17.300
 17.377  23.408  23.416  23.435  23.494  23.496  23.496  23.514
 23.606  23.606  23.884  30.907  30.919  30.919  30.924  30.924
 30.926  30.927  30.929  30.929  30.932  30.933  30.943  30.943
 30.972 189.395 189.407
 
 Beta MOs
 -- Occupied --
-88.898 -88.898  -7.982  -7.981  -5.945  -5.944  -5.937  -5.937
 -5.937  -5.937  -0.816  -0.583  -0.383  -0.334  -0.334
 -- Virtual --
 -0.143  -0.143  -0.013   0.015   0.050   0.050   0.059   0.069
  0.089   0.089   0.141   0.173   0.173   0.197   0.197   0.260
  0.312   0.312   0.324   0.389   0.389   0.408   0.408   0.440
  0.502   0.502   0.532   0.640   0.801   0.801   0.803   0.803
  0.807   0.807   0.880   0.961   0.961   0.966   0.966   0.991
  0.992   1.022   1.022   1.027   1.116   1.206   1.207   1.251
  1.251   1.314   1.332   1.332   1.396   1.738   1.738   1.982
  1.982   2.073   2.291   3.262   3.440   3.440   3.442   3.442
  3.463   3.463   3.482   3.482   3.521   3.522   3.652   3.652
  3.738   4.437   4.455   4.455   4.467   4.469   4.509   4.511
  4.695   4.695   5.473   8.192   8.226  17.043  17.043  17.158
 17.158  17.303  17.381  23.413  23.429  23.448  23.503  23.503
 23.507  23.526  23.613  23.613  23.890  30.910  30.924  30.924
 30.929  30.929  30.930  30.930  30.932  30.932  30.936  30.936
 30.946  30.946  30.975 189.401 189.413
 --------------------------------------------------------------
 
          Ground-State Mulliken Net Atomic Charges

     Atom                 Charge (a.u.)    Spin (a.u.)
  --------------------------------------------------------
      1 S                     0.000000       1.000000
      2 S                     0.000000       1.000000
  --------------------------------------------------------
  Sum of atomic charges =     0.000000
  Sum of spin   charges =     2.000000

 -----------------------------------------------------------------
                    Cartesian Multipole Moments
 -----------------------------------------------------------------
    Charge (ESU x 10^10)
                 0.0000
    Dipole Moment (Debye)
         X       0.0000      Y       0.0000      Z       0.0000
       Tot       0.0000
    Quadrupole Moments (Debye-Ang)
        XX     -25.9946     XY       0.0000     YY     -25.9946
        XZ       0.0000     YZ       0.0000     ZZ     -24.1646
    Octapole Moments (Debye-Ang^2)
       XXX       0.0000    XXY       0.0000    XYY       0.0000
       YYY       0.0000    XXZ     -25.0509    XYZ       0.0000
       YYZ     -25.0509    XZZ       0.0000    YZZ       0.0000
       ZZZ     -69.8618
    Hexadecapole Moments (Debye-Ang^3)
      XXXX     -35.3704   XXXY       0.0000   XXYY     -11.7895
      XYYY       0.0000   YYYY     -35.3704   XXXZ       0.0000
      XXYZ       0.0000   XYYZ       0.0000   YYYZ       0.0000
      XXZZ     -59.0855   XYZZ       0.0000   YYZZ     -59.0855
      XZZZ       0.0000   YZZZ       0.0000   ZZZZ    -295.2592
 -----------------------------------------------------------------
 Calculating analytic gradient of the SCF energy
 Gradient of XC Energy
            1           2
    1  -0.0000000   0.0000000
    2  -0.0000000   0.0000000
    3  -0.2327510   0.2327510
 Gradient of SCF Energy
            1           2
    1  -0.0000000   0.0000000
    2  -0.0000000   0.0000000
    3  -0.0000186   0.0000186
 Max gradient component =       1.855E-05
 RMS gradient           =       1.071E-05
 Gradient time:  CPU 22.41 s  wall 22.44 s
 Geometry Optimization Parameters
   NAtoms,    NIC,     NZ,  NCons,   NDum,   NFix, NCnnct, MaxDiis
        2       5       2       0       0       0       0       0

 Cartesian Hessian Update
 Hessian Updated using BFGS Update


** GEOMETRY OPTIMIZATION IN CARTESIAN COORDINATES **
   Searching for a Minimum

   Optimization Cycle:   4

                       Coordinates (Angstroms)
     ATOM              X           Y           Z
    1  S           0.000000    0.000000    0.013959
    2  S           0.000000    0.000000    1.913432
   Point Group: c1    Number of degrees of freedom:   0


   Energy is   -796.435422333


 Translations and Rotations Projected Out of Hessian

  1 Hessian modes will be used to form the next step
  Hessian Eigenvalues:
     0.617340

 Minimum Search - Taking Simple RFO Step
 Searching for Lamda that Minimizes Along All modes
 Value Taken    Lamda =   0.00000000
 Step Taken.  Stepsize is  0.000043

                             Maximum     Tolerance    Cnvgd?
         Gradient           0.000019      0.000300     YES
         Displacement       0.000030      0.001200     YES
         Energy change     -0.000001      0.000001     YES


                       Distance Matrix (Angstroms)
             S (  1)
   S (  2)  1.899472
 


 ******************************
 **  OPTIMIZATION CONVERGED  **
 ******************************
 Analysis of SCF Wavefunction
 
 --------------------------------------------------------------
                    Orbital Energies (a.u.)
 --------------------------------------------------------------
 
 Alpha MOs
 -- Occupied --
-88.905 -88.905  -7.987  -7.987  -5.949  -5.949  -5.949  -5.949
 -5.948  -5.947  -0.844  -0.638  -0.405  -0.382  -0.382  -0.251
 -0.251
 -- Virtual --
 -0.026   0.013   0.048   0.048   0.058   0.062   0.084   0.084
  0.137   0.149   0.149   0.175   0.175   0.249   0.275   0.275
  0.317   0.376   0.376   0.388   0.388   0.430   0.486   0.486
  0.519   0.634   0.779   0.779   0.786   0.786   0.793   0.793
  0.862   0.923   0.923   0.936   0.936   0.953   0.953   1.003
  1.003   1.014   1.101   1.185   1.186   1.236   1.236   1.297
  1.312   1.312   1.380   1.710   1.710   1.958   1.958   2.071
  2.285   3.243   3.389   3.389   3.422   3.422   3.431   3.431
  3.432   3.432   3.490   3.490   3.629   3.629   3.719   4.432
  4.448   4.448   4.453   4.455   4.494   4.496   4.686   4.686
  5.462   8.179   8.215  17.027  17.027  17.142  17.142  17.300
 17.377  23.408  23.416  23.435  23.494  23.496  23.496  23.514
 23.606  23.606  23.884  30.907  30.919  30.919  30.924  30.924
 30.926  30.927  30.929  30.929  30.932  30.933  30.943  30.943
 30.972 189.395 189.407
 
 Beta MOs
 -- Occupied --
-88.898 -88.898  -7.982  -7.981  -5.945  -5.944  -5.937  -5.937
 -5.937  -5.937  -0.816  -0.583  -0.383  -0.334  -0.334
 -- Virtual --
 -0.143  -0.143  -0.013   0.015   0.050   0.050   0.059   0.069
  0.089   0.089   0.141   0.173   0.173   0.197   0.197   0.260
  0.312   0.312   0.324   0.389   0.389   0.408   0.408   0.440
  0.502   0.502   0.532   0.640   0.801   0.801   0.803   0.803
  0.807   0.807   0.880   0.961   0.961   0.966   0.966   0.991
  0.992   1.022   1.022   1.027   1.116   1.206   1.207   1.251
  1.251   1.314   1.332   1.332   1.396   1.738   1.738   1.982
  1.982   2.073   2.291   3.262   3.440   3.440   3.442   3.442
  3.463   3.463   3.482   3.482   3.521   3.522   3.652   3.652
  3.738   4.437   4.455   4.455   4.467   4.469   4.509   4.511
  4.695   4.695   5.473   8.192   8.226  17.043  17.043  17.158
 17.158  17.303  17.381  23.413  23.429  23.448  23.503  23.503
 23.507  23.526  23.613  23.613  23.890  30.910  30.924  30.924
 30.929  30.929  30.930  30.930  30.932  30.932  30.936  30.936
 30.946  30.946  30.975 189.401 189.413
 --------------------------------------------------------------
 
          Ground-State Mulliken Net Atomic Charges

     Atom                 Charge (a.u.)    Spin (a.u.)
  --------------------------------------------------------
      1 S                     0.000000       1.000000
      2 S                     0.000000       1.000000
  --------------------------------------------------------
  Sum of atomic charges =     0.000000
  Sum of spin   charges =     2.000000

 -----------------------------------------------------------------
                    Cartesian Multipole Moments
 -----------------------------------------------------------------
    Charge (ESU x 10^10)
                 0.0000
    Dipole Moment (Debye)
         X       0.0000      Y       0.0000      Z       0.0000
       Tot       0.0000
    Quadrupole Moments (Debye-Ang)
        XX     -25.9946     XY       0.0000     YY     -25.9946
        XZ       0.0000     YZ       0.0000     ZZ     -24.1646
    Octapole Moments (Debye-Ang^2)
       XXX       0.0000    XXY       0.0000    XYY       0.0000
       YYY       0.0000    XXZ     -25.0509    XYZ       0.0000
       YYZ     -25.0509    XZZ       0.0000    YZZ       0.0000
       ZZZ     -69.8618
    Hexadecapole Moments (Debye-Ang^3)
      XXXX     -35.3704   XXXY       0.0000   XXYY     -11.7895
      XYYY       0.0000   YYYY     -35.3704   XXXZ       0.0000
      XXYZ       0.0000   XYYZ       0.0000   YYYZ       0.0000
      XXZZ     -59.0855   XYZZ       0.0000   YYZZ     -59.0855
      XZZZ       0.0000   YZZZ       0.0000   ZZZZ    -295.2592
 -----------------------------------------------------------------
 Total job time:  222.93s(wall), 220.51s(cpu) 
 Wed Jul 24 16:02:35 2013

        *************************************************************
        *                                                           *
        *  Thank you very much for using Q-Chem.  Have a nice day.  *
        *                                                           *
        *************************************************************


0 sent ACK to 0 
now end server 0 ... 
 
**********************************************************************
Job 2 of 2 
**********************************************************************
 
Process 0 of 1 is on cl118.stfx.acenet.ca - thread support 1
initial socket setup ...start
initial socket setup ...done 
now start server 0 ... 

cmd = /usr/bin/ssh clhead /usr/local/qchem/bin/get_hostid 1168147160 > /scratch/tmp/6067067.1.short.q/qchem28225/lic.dat
                  Welcome to Q-Chem
     A Quantum Leap Into The Future Of Chemistry

 Y. Shao, L. Fusti-Molnar, Y. Jung, J. Kussmann, C. Ochsenfeld,
 S. T. Brown, A. T. B. Gilbert, L. V. Slipchenko,S. V. Levchenko,
 D. P. O'Neill, R. A. DiStasio Jr., R. C. Lochan, T. Wang,
 G. J. O. Beran, N. A. Besley, J. M. Herbert, C. Y. Lin,
 T. Van Voorhis, S. H. Chien, A. Sodt, R. P. Steele, 
 V. A. Rassolov, P. E. Maslen, P. P. Korambath, R. D. Adamson,
 B. Austin, J. Baker, E. F. C. Byrd, H. Dachsel, R. J. Doerksen,
 A. Dreuw, B. D. Dunietz, A. D. Dutoi, T. R. Furlani,
 S. R. Gwaltney, A. Heyden, S. Hirata, C.-P. Hsu, G. Kedziora,
 R. Z. Khaliullin, P. Klunzinger, A. M. Lee, M. S. Lee, W. Liang,
 I. Lotan, N. Nair, B. Peters, E. I. Proynov, P. A. Pieniazek, 
 Y. M. Rhee, J. Ritchie, E. Rosta, C. D. Sherrill, 
 A. C. Simmonett, J. E. Subotnik, H. L. Woodcock III,
 W. Zhang, A. T. Bell, A. K. Chakraborty, D. M. Chipman,
 F. J. Keil, A. Warshel, W. J. Hehre, H. F. Schaefer III,
 J. Kong, A. I. Krylov, P. M. W. Gill, M. Head-Gordon,
 Q-Chem, Version 3.1, Q-Chem, Inc., Pittsburgh, PA (2007).

 Additional authors for Version 3.1: 
 Z. Gan, Y. Zhao, N. E. Schultz, D. Truhlar, E. Epifanovsky and M. Oana.

 Additional authors for Version 3.2: 
 R. Baer, B. R. Brooks, D. Casanova, J.-D. Chai, C.-L. Cheng, 
 C. Cramer, D. Crittenden, A. Ghysels, G. Hawkins, E. G. Hohenstein, 
 C. Kelley, W. Kurlancheek, D. Liotard, E. Livshits, P. Manohar, 
 A. Marenich, D. Neuhauser, R. Olson, M. A. Rohrdanz, K. S. Thanthiriwatte, 
 A. J. W. Thom, V. Vanovschi, C. F. Williams, Q. Wu and Z.-Q. You. 


 Intel X86 Linux Version

 Q-chem begins on Wed Jul 24 16:02:38 2013  

 Parallel job on  1  processors
Processing $rem in /usr/local/qchem/config/preferences.

theFileMan(): MAXOPENFILES=974 MAX_SUB_FILE_NUM=16
Maximum size of a physical file is 2.0 GB, maximum size of a tmp-file is 32.0 GB


--------------------------------------------------------------
User input:
--------------------------------------------------------------

$molecule 
READ 
$end 

$rem
   EXCHANGE B3LYP
   UNRESTRICTED TRUE
   SYMMETRY_DECOMPOSITION       0
   BASIS                   g3large
   JOBTYPE                 freq
   mem_static              760
   max_scf_cycles          200
   scf_final_print         1
   sym_ignore              true
   JOBTYPE                 freq
   IDERIV 1
   SCF_GUESS READ
$end
--------------------------------------------------------------
 Writing REM_CC_EA            2
 ----------------------------------------------------
       Standard Nuclear Orientation (Angstroms)
    I     Atom         X            Y            Z
 ----------------------------------------------------
    1      S       0.000000     0.000000     0.013959
    2      S       0.000000     0.000000     1.913432
 ----------------------------------------------------
 Nuclear Repulsion Energy =    71.3194673774 hartrees
 There are       17 alpha and       15 beta electrons
 Requested basis set is G3large
 There are 38 shells and 132 basis functions

Total QAlloc Memory Limit   2000 MB
Mega-Array Size       759 MB
MEM_STATIC part       760 MB

                       Distance Matrix (Angstroms)
             S (  1)
   S (  2)  1.899472
 
 A cutoff of  1.0D-11 yielded    701 shell pairs
 There are   8682 function pairs ( 12485 Cartesian)
Evaluating contribution to one-electron hamiltonian from nuclear
 Smallest overlap matrix eigenvalue = 8.43E-04
 Multipole matrices computed through 2nd order
 Guess MOs from SCF MO coefficient file
Reading MOs from coefficient file
Reading MOs from coefficient file
 An unrestricted hybrid HF-DFT SCF calculation will be
 performed using Pulay DIIS extrapolation
 Exchange:     0.2000 Hartree-Fock + 0.0800 Slater + 0.7200 Becke88
 Correlation:  0.8100 LYP + 0.1900 VWN1RPA
 Using SG-1 standard quadrature grid
 SCF converges when DIIS error is below 1.0E-08
 ---------------------------------------
  Cycle       Energy         DIIS Error
 ---------------------------------------
    1    -796.4354223333      2.90E-09
    2    -796.4354223335      7.19E-09 Convergence criterion met
 ---------------------------------------
 One-Electron    Energy = -1241.6055670734
 Total Coulomb   Energy =   425.2407656804
 Alpha Exchange  Energy =    -5.1057427886
 Beta  Exchange  Energy =    -4.8983836582
 DFT   Exchange  Energy =   -39.7325064804
 DFT Correlation Energy =    -1.6534553908
 Nuclear Repu.   Energy =    71.3194673774
 Nuclear Attr.   Energy = -2036.8918804422
 Kinetic         Energy =   795.2863133689
 <S^2> = 2.0097
 SCF time:  CPU 8.41 s  wall 8.49 s
 Final Alpha MO Eigenvalues
            1           2           3           4           5           6
    1 -88.9047984 -88.9047979  -7.9874822  -7.9873252  -5.9491997  -5.9491997
            7           8           9          10          11          12
    1  -5.9491470  -5.9491470  -5.9478334  -5.9470362  -0.8436487  -0.6384594
           13          14          15          16          17          18
    1  -0.4051851  -0.3819548  -0.3819548  -0.2513588  -0.2513588  -0.0256185
           19          20          21          22
    1   0.0127204   0.0476472   0.0476472   0.0582617
 Final Beta MO Eigenvalues
            1           2           3           4           5           6
    1 -88.8981664 -88.8981652  -7.9815689  -7.9813839  -5.9447818  -5.9439756
            7           8           9          10          11          12
    1  -5.9368056  -5.9368056  -5.9367448  -5.9367448  -0.8161096  -0.5826741
           13          14          15          16          17          18
    1  -0.3825708  -0.3338237  -0.3338237  -0.1428831  -0.1428831  -0.0131176
           19          20
    1   0.0148679   0.0498211
 Analysis of SCF Wavefunction
 
 --------------------------------------------------------------
                    Orbital Energies (a.u.)
 --------------------------------------------------------------
 
 Alpha MOs
 -- Occupied --
-88.905 -88.905  -7.987  -7.987  -5.949  -5.949  -5.949  -5.949
 -5.948  -5.947  -0.844  -0.638  -0.405  -0.382  -0.382  -0.251
 -0.251
 -- Virtual --
 -0.026   0.013   0.048   0.048   0.058   0.062   0.084   0.084
  0.137   0.149   0.149   0.175   0.175   0.249   0.275   0.275
  0.317   0.376   0.376   0.388   0.388   0.430   0.486   0.486
  0.519   0.634   0.779   0.779   0.786   0.786   0.793   0.793
  0.862   0.923   0.923   0.936   0.936   0.953   0.953   1.003
  1.003   1.014   1.101   1.185   1.186   1.236   1.236   1.297
  1.312   1.312   1.380   1.710   1.710   1.958   1.958   2.071
  2.285   3.243   3.389   3.389   3.422   3.422   3.431   3.431
  3.432   3.432   3.490   3.490   3.629   3.629   3.719   4.432
  4.448   4.448   4.453   4.455   4.494   4.496   4.686   4.686
  5.462   8.179   8.215  17.027  17.027  17.142  17.142  17.300
 17.377  23.408  23.416  23.435  23.494  23.496  23.496  23.514
 23.606  23.606  23.884  30.907  30.919  30.919  30.924  30.924
 30.926  30.927  30.929  30.929  30.932  30.933  30.943  30.943
 30.972 189.395 189.407
 
 Beta MOs
 -- Occupied --
-88.898 -88.898  -7.982  -7.981  -5.945  -5.944  -5.937  -5.937
 -5.937  -5.937  -0.816  -0.583  -0.383  -0.334  -0.334
 -- Virtual --
 -0.143  -0.143  -0.013   0.015   0.050   0.050   0.059   0.069
  0.089   0.089   0.141   0.173   0.173   0.197   0.197   0.260
  0.312   0.312   0.324   0.389   0.389   0.408   0.408   0.440
  0.502   0.502   0.532   0.640   0.801   0.801   0.803   0.803
  0.807   0.807   0.880   0.961   0.961   0.966   0.966   0.991
  0.992   1.022   1.022   1.027   1.116   1.206   1.207   1.251
  1.251   1.314   1.332   1.332   1.396   1.738   1.738   1.982
  1.982   2.073   2.291   3.262   3.440   3.440   3.442   3.442
  3.463   3.463   3.482   3.482   3.521   3.522   3.652   3.652
  3.738   4.437   4.455   4.455   4.467   4.469   4.509   4.511
  4.695   4.695   5.473   8.192   8.226  17.043  17.043  17.158
 17.158  17.303  17.381  23.413  23.429  23.448  23.503  23.503
 23.507  23.526  23.613  23.613  23.890  30.910  30.924  30.924
 30.929  30.929  30.930  30.930  30.932  30.932  30.936  30.936
 30.946  30.946  30.975 189.401 189.413
 --------------------------------------------------------------
 
          Ground-State Mulliken Net Atomic Charges

     Atom                 Charge (a.u.)    Spin (a.u.)
  --------------------------------------------------------
      1 S                     0.000000       1.000000
      2 S                     0.000000       1.000000
  --------------------------------------------------------
  Sum of atomic charges =     0.000000
  Sum of spin   charges =     2.000000

 -----------------------------------------------------------------
                    Cartesian Multipole Moments
 -----------------------------------------------------------------
    Charge (ESU x 10^10)
                 0.0000
    Dipole Moment (Debye)
         X       0.0000      Y       0.0000      Z       0.0000
       Tot       0.0000
    Quadrupole Moments (Debye-Ang)
        XX     -25.9946     XY       0.0000     YY     -25.9946
        XZ       0.0000     YZ       0.0000     ZZ     -24.1646
    Octapole Moments (Debye-Ang^2)
       XXX       0.0000    XXY       0.0000    XYY       0.0000
       YYY       0.0000    XXZ     -25.0509    XYZ       0.0000
       YYZ     -25.0509    XZZ       0.0000    YZZ       0.0000
       ZZZ     -69.8618
    Hexadecapole Moments (Debye-Ang^3)
      XXXX     -35.3704   XXXY       0.0000   XXYY     -11.7895
      XYYY       0.0000   YYYY     -35.3704   XXXZ       0.0000
      XXYZ       0.0000   XYYZ       0.0000   YYYZ       0.0000
      XXZZ     -59.0855   XYZZ       0.0000   YYZZ     -59.0855
      XZZZ       0.0000   YZZZ       0.0000   ZZZZ    -295.2592
 -----------------------------------------------------------------
 Calculating analytic gradient of the SCF energy
 Gradient of XC Energy
            1           2
    1   0.0000000  -0.0000000
    2   0.0000000  -0.0000000
    3  -0.2327510   0.2327510
 Gradient of SCF Energy
            1           2
    1  -0.0000000   0.0000000
    2  -0.0000000   0.0000000
    3  -0.0000186   0.0000186
 Max gradient component =       1.855E-05
 RMS gradient           =       1.071E-05
 Gradient time:  CPU 20.82 s  wall 20.94 s
 ######################################################
 ######################################################
 # Starting finite difference calculation for IDERIV  #
 Finite diff step size: 1.89e-03 a.u.
 Writing REM_CC_EA            2
 ----------------------------------------------------
       Standard Nuclear Orientation (Angstroms)
    I     Atom         X            Y            Z
 ----------------------------------------------------
    1      S       0.001000     0.000000     0.013959
    2      S       0.000000     0.000000     1.913432
 ----------------------------------------------------
 Nuclear Repulsion Energy =    71.3194574939 hartrees
 There are       17 alpha and       15 beta electrons

                       Distance Matrix (Angstroms)
             S (  1)
   S (  2)  1.899473
 
 Requested basis set is G3large
 There are 38 shells and 132 basis functions
 A cutoff of  1.0D-11 yielded    701 shell pairs
 There are   8682 function pairs ( 12485 Cartesian)
Evaluating contribution to one-electron hamiltonian from nuclear
 Smallest overlap matrix eigenvalue = 8.43E-04
 Multipole matrices computed through 2nd order
 Guess MOs from SCF MO coefficient file
Reading MOs from coefficient file
Reading MOs from coefficient file
 An unrestricted hybrid HF-DFT SCF calculation will be
 performed using Pulay DIIS extrapolation
 Exchange:     0.2000 Hartree-Fock + 0.0800 Slater + 0.7200 Becke88
 Correlation:  0.8100 LYP + 0.1900 VWN1RPA
 Using SG-1 standard quadrature grid
 SCF converges when DIIS error is below 1.0E-08
 ---------------------------------------
  Cycle       Energy         DIIS Error
 ---------------------------------------
    1    -796.4354218917      1.25E-05
    2    -796.4354223269      6.74E-07
    3    -796.4354223318      6.09E-07
    4    -796.4354223331      1.16E-07
    5    -796.4354223343      2.57E-08
    6    -796.4354223331      8.81E-09 Convergence criterion met
 ---------------------------------------
 One-Electron    Energy = -1241.6055495685
 Total Coulomb   Energy =   425.2407580477
 Alpha Exchange  Energy =    -5.1057427915
 Beta  Exchange  Energy =    -4.8983836485
 DFT   Exchange  Energy =   -39.7325064782
 DFT Correlation Energy =    -1.6534553880
 Nuclear Repu.   Energy =    71.3194574939
 Nuclear Attr.   Energy = -2036.8918635507
 Kinetic         Energy =   795.2863139822
 <S^2> = 2.0097
 SCF time:  CPU 22.72 s  wall 22.90 s
 Final Alpha MO Eigenvalues
            1           2           3           4           5           6
    1 -88.9047983 -88.9047978  -7.9874822  -7.9873251  -5.9491996  -5.9491996
            7           8           9          10          11          12
    1  -5.9491469  -5.9491469  -5.9478333  -5.9470361  -0.8436486  -0.6384594
           13          14          15          16          17          18
    1  -0.4051851  -0.3819547  -0.3819547  -0.2513588  -0.2513588  -0.0256186
           19          20          21          22
    1   0.0127204   0.0476472   0.0476472   0.0582617
 Final Beta MO Eigenvalues
            1           2           3           4           5           6
    1 -88.8981663 -88.8981651  -7.9815688  -7.9813838  -5.9447818  -5.9439755
            7           8           9          10          11          12
    1  -5.9368055  -5.9368055  -5.9367447  -5.9367447  -0.8161094  -0.5826741
           13          14          15          16          17          18
    1  -0.3825707  -0.3338236  -0.3338236  -0.1428831  -0.1428831  -0.0131176
           19          20
    1   0.0148680   0.0498211
 Analysis of SCF Wavefunction
 
 --------------------------------------------------------------
                    Orbital Energies (a.u.)
 --------------------------------------------------------------
 
 Alpha MOs
 -- Occupied --
-88.905 -88.905  -7.987  -7.987  -5.949  -5.949  -5.949  -5.949
 -5.948  -5.947  -0.844  -0.638  -0.405  -0.382  -0.382  -0.251
 -0.251
 -- Virtual --
 -0.026   0.013   0.048   0.048   0.058   0.062   0.084   0.084
  0.137   0.149   0.149   0.175   0.175   0.249   0.275   0.275
  0.317   0.376   0.376   0.388   0.388   0.430   0.486   0.486
  0.519   0.634   0.779   0.779   0.786   0.786   0.793   0.793
  0.862   0.923   0.923   0.936   0.936   0.953   0.953   1.003
  1.003   1.014   1.101   1.185   1.186   1.236   1.236   1.297
  1.312   1.312   1.380   1.710   1.710   1.958   1.958   2.071
  2.285   3.243   3.389   3.389   3.422   3.422   3.431   3.431
  3.432   3.432   3.490   3.490   3.629   3.629   3.719   4.432
  4.448   4.448   4.453   4.455   4.494   4.496   4.686   4.686
  5.462   8.179   8.215  17.027  17.027  17.142  17.142  17.300
 17.377  23.408  23.416  23.435  23.494  23.496  23.496  23.514
 23.606  23.606  23.884  30.907  30.919  30.919  30.924  30.924
 30.926  30.927  30.929  30.929  30.932  30.933  30.943  30.943
 30.972 189.395 189.407
 
 Beta MOs
 -- Occupied --
-88.898 -88.898  -7.982  -7.981  -5.945  -5.944  -5.937  -5.937
 -5.937  -5.937  -0.816  -0.583  -0.383  -0.334  -0.334
 -- Virtual --
 -0.143  -0.143  -0.013   0.015   0.050   0.050   0.059   0.069
  0.089   0.089   0.141   0.173   0.173   0.197   0.197   0.260
  0.312   0.312   0.324   0.389   0.389   0.408   0.408   0.440
  0.502   0.502   0.532   0.640   0.801   0.801   0.803   0.803
  0.807   0.807   0.880   0.961   0.961   0.966   0.966   0.991
  0.992   1.022   1.022   1.027   1.116   1.206   1.207   1.251
  1.251   1.314   1.332   1.332   1.396   1.738   1.738   1.982
  1.982   2.073   2.291   3.262   3.440   3.440   3.442   3.442
  3.463   3.463   3.482   3.482   3.521   3.522   3.652   3.652
  3.738   4.437   4.455   4.455   4.467   4.469   4.509   4.511
  4.695   4.695   5.473   8.192   8.226  17.043  17.043  17.158
 17.158  17.303  17.381  23.413  23.429  23.448  23.503  23.503
 23.507  23.526  23.613  23.613  23.890  30.910  30.924  30.924
 30.929  30.929  30.930  30.930  30.932  30.932  30.936  30.936
 30.946  30.946  30.975 189.401 189.413
 --------------------------------------------------------------
 
          Ground-State Mulliken Net Atomic Charges

     Atom                 Charge (a.u.)    Spin (a.u.)
  --------------------------------------------------------
      1 S                     0.000000       1.000000
      2 S                     0.000000       1.000000
  --------------------------------------------------------
  Sum of atomic charges =     0.000000
  Sum of spin   charges =     2.000000

 -----------------------------------------------------------------
                    Cartesian Multipole Moments
 -----------------------------------------------------------------
    Charge (ESU x 10^10)
                 0.0000
    Dipole Moment (Debye)
         X       0.0000      Y       0.0000      Z       0.0000
       Tot       0.0000
    Quadrupole Moments (Debye-Ang)
        XX     -25.9946     XY       0.0000     YY     -25.9946
        XZ      -0.0010     YZ       0.0000     ZZ     -24.1646
    Octapole Moments (Debye-Ang^2)
       XXX      -0.0390    XXY       0.0000    XYY      -0.0130
       YYY       0.0000    XXZ     -25.0509    XYZ       0.0000
       YYZ     -25.0509    XZZ      -0.0139    YZZ       0.0000
       ZZZ     -69.8619
    Hexadecapole Moments (Debye-Ang^3)
      XXXX     -35.3705   XXXY       0.0000   XXYY     -11.7895
      XYYY       0.0000   YYYY     -35.3704   XXXZ      -0.0010
      XXYZ       0.0000   XYYZ      -0.0003   YYYZ       0.0000
      XXZZ     -59.0855   XYZZ       0.0000   YYZZ     -59.0855
      XZZZ      -0.0082   YZZZ       0.0000   ZZZZ    -295.2593
 -----------------------------------------------------------------
 Calculating analytic gradient of the SCF energy
 Gradient of XC Energy
            1           2
    1   0.0001211  -0.0001211
    2   0.0000000  -0.0000000
    3  -0.2327509   0.2327509
 Gradient of SCF Energy
            1           2
    1  -0.0000001   0.0000001
    2  -0.0000000   0.0000000
    3  -0.0000187   0.0000187
 Max gradient component =       1.875E-05
 RMS gradient           =       1.082E-05
 Gradient time:  CPU 20.97 s  wall 21.03 s
 Writing REM_CC_EA            2
 ----------------------------------------------------
       Standard Nuclear Orientation (Angstroms)
    I     Atom         X            Y            Z
 ----------------------------------------------------
    1      S      -0.001000     0.000000     0.013959
    2      S       0.000000     0.000000     1.913432
 ----------------------------------------------------
 Nuclear Repulsion Energy =    71.3194574939 hartrees
 There are       17 alpha and       15 beta electrons

                       Distance Matrix (Angstroms)
             S (  1)
   S (  2)  1.899473
 
 Requested basis set is G3large
 There are 38 shells and 132 basis functions
 A cutoff of  1.0D-11 yielded    701 shell pairs
 There are   8682 function pairs ( 12485 Cartesian)
Evaluating contribution to one-electron hamiltonian from nuclear
 Smallest overlap matrix eigenvalue = 8.43E-04
 Multipole matrices computed through 2nd order
 Guess MOs from SCF MO coefficient file
Reading MOs from coefficient file
Reading MOs from coefficient file
 An unrestricted hybrid HF-DFT SCF calculation will be
 performed using Pulay DIIS extrapolation
 Exchange:     0.2000 Hartree-Fock + 0.0800 Slater + 0.7200 Becke88
 Correlation:  0.8100 LYP + 0.1900 VWN1RPA
 Using SG-1 standard quadrature grid
 SCF converges when DIIS error is below 1.0E-08
 ---------------------------------------
  Cycle       Energy         DIIS Error
 ---------------------------------------
    1    -796.4354212132      2.50E-05
    2    -796.4354223059      1.35E-06
    3    -796.4354223284      1.22E-06
    4    -796.4354223319      2.32E-07
    5    -796.4354223337      8.47E-08
    6    -796.4354223333      1.28E-07
    7    -796.4354223335      1.47E-08
    8    -796.4354223330      7.21E-09 Convergence criterion met
 ---------------------------------------
 One-Electron    Energy = -1241.6055435610
 Total Coulomb   Energy =   425.2407517176
 Alpha Exchange  Energy =    -5.1057427564
 Beta  Exchange  Energy =    -4.8983836217
 DFT   Exchange  Energy =   -39.7325062298
 DFT Correlation Energy =    -1.6534553755
 Nuclear Repu.   Energy =    71.3194574939
 Nuclear Attr.   Energy = -2036.8918544620
 Kinetic         Energy =   795.2863109009
 <S^2> = 2.0097
 SCF time:  CPU 29.97 s  wall 30.16 s
 Final Alpha MO Eigenvalues
            1           2           3           4           5           6
    1 -88.9047984 -88.9047979  -7.9874822  -7.9873252  -5.9491997  -5.9491997
            7           8           9          10          11          12
    1  -5.9491470  -5.9491470  -5.9478334  -5.9470362  -0.8436487  -0.6384594
           13          14          15          16          17          18
    1  -0.4051851  -0.3819547  -0.3819547  -0.2513588  -0.2513588  -0.0256186
           19          20          21          22
    1   0.0127204   0.0476472   0.0476472   0.0582617
 Final Beta MO Eigenvalues
            1           2           3           4           5           6
    1 -88.8981664 -88.8981652  -7.9815689  -7.9813839  -5.9447818  -5.9439756
            7           8           9          10          11          12
    1  -5.9368056  -5.9368056  -5.9367448  -5.9367448  -0.8161095  -0.5826742
           13          14          15          16          17          18
    1  -0.3825708  -0.3338237  -0.3338237  -0.1428831  -0.1428831  -0.0131177
           19          20
    1   0.0148679   0.0498211
 Analysis of SCF Wavefunction
 
 --------------------------------------------------------------
                    Orbital Energies (a.u.)
 --------------------------------------------------------------
 
 Alpha MOs
 -- Occupied --
-88.905 -88.905  -7.987  -7.987  -5.949  -5.949  -5.949  -5.949
 -5.948  -5.947  -0.844  -0.638  -0.405  -0.382  -0.382  -0.251
 -0.251
 -- Virtual --
 -0.026   0.013   0.048   0.048   0.058   0.062   0.084   0.084
  0.137   0.149   0.149   0.175   0.175   0.249   0.275   0.275
  0.317   0.376   0.376   0.388   0.388   0.430   0.486   0.486
  0.519   0.634   0.779   0.779   0.786   0.786   0.793   0.793
  0.862   0.923   0.923   0.936   0.936   0.953   0.953   1.003
  1.003   1.014   1.101   1.185   1.186   1.236   1.236   1.297
  1.312   1.312   1.380   1.710   1.710   1.958   1.958   2.071
  2.285   3.243   3.389   3.389   3.422   3.422   3.431   3.431
  3.432   3.432   3.490   3.490   3.629   3.629   3.719   4.432
  4.448   4.448   4.453   4.455   4.494   4.496   4.686   4.686
  5.462   8.179   8.215  17.027  17.027  17.142  17.142  17.300
 17.377  23.408  23.416  23.435  23.494  23.496  23.496  23.514
 23.606  23.606  23.884  30.907  30.919  30.919  30.924  30.924
 30.926  30.927  30.929  30.929  30.932  30.933  30.943  30.943
 30.972 189.395 189.407
 
 Beta MOs
 -- Occupied --
-88.898 -88.898  -7.982  -7.981  -5.945  -5.944  -5.937  -5.937
 -5.937  -5.937  -0.816  -0.583  -0.383  -0.334  -0.334
 -- Virtual --
 -0.143  -0.143  -0.013   0.015   0.050   0.050   0.059   0.069
  0.089   0.089   0.141   0.173   0.173   0.197   0.197   0.260
  0.312   0.312   0.324   0.389   0.389   0.408   0.408   0.440
  0.502   0.502   0.532   0.640   0.801   0.801   0.803   0.803
  0.807   0.807   0.880   0.961   0.961   0.966   0.966   0.991
  0.992   1.022   1.022   1.027   1.116   1.206   1.207   1.251
  1.251   1.314   1.332   1.332   1.396   1.738   1.738   1.982
  1.982   2.073   2.291   3.262   3.440   3.440   3.442   3.442
  3.463   3.463   3.482   3.482   3.521   3.522   3.652   3.652
  3.738   4.437   4.455   4.455   4.467   4.469   4.509   4.511
  4.695   4.695   5.473   8.192   8.226  17.043  17.043  17.158
 17.158  17.303  17.381  23.413  23.429  23.448  23.503  23.503
 23.507  23.526  23.613  23.613  23.890  30.910  30.924  30.924
 30.929  30.929  30.930  30.930  30.932  30.932  30.936  30.936
 30.946  30.946  30.975 189.401 189.413
 --------------------------------------------------------------
 
          Ground-State Mulliken Net Atomic Charges

     Atom                 Charge (a.u.)    Spin (a.u.)
  --------------------------------------------------------
      1 S                     0.000000       1.000000
      2 S                     0.000000       1.000000
  --------------------------------------------------------
  Sum of atomic charges =     0.000000
  Sum of spin   charges =     2.000000

 -----------------------------------------------------------------
                    Cartesian Multipole Moments
 -----------------------------------------------------------------
    Charge (ESU x 10^10)
                 0.0000
    Dipole Moment (Debye)
         X       0.0000      Y       0.0000      Z       0.0000
       Tot       0.0000
    Quadrupole Moments (Debye-Ang)
        XX     -25.9946     XY       0.0000     YY     -25.9946
        XZ       0.0010     YZ       0.0000     ZZ     -24.1646
    Octapole Moments (Debye-Ang^2)
       XXX       0.0390    XXY       0.0000    XYY       0.0130
       YYY       0.0000    XXZ     -25.0509    XYZ       0.0000
       YYZ     -25.0509    XZZ       0.0139    YZZ       0.0000
       ZZZ     -69.8618
    Hexadecapole Moments (Debye-Ang^3)
      XXXX     -35.3705   XXXY       0.0000   XXYY     -11.7895
      XYYY       0.0000   YYYY     -35.3704   XXXZ       0.0010
      XXYZ       0.0000   XYYZ       0.0003   YYYZ       0.0000
      XXZZ     -59.0855   XYZZ       0.0000   YYZZ     -59.0855
      XZZZ       0.0082   YZZZ       0.0000   ZZZZ    -295.2592
 -----------------------------------------------------------------
 Calculating analytic gradient of the SCF energy
 Gradient of XC Energy
            1           2
    1  -0.0001211   0.0001211
    2   0.0000000  -0.0000000
    3  -0.2327509   0.2327509
 Gradient of SCF Energy
            1           2
    1   0.0000002  -0.0000002
    2  -0.0000000   0.0000000
    3  -0.0000187   0.0000187
 Max gradient component =       1.869E-05
 RMS gradient           =       1.079E-05
 Gradient time:  CPU 20.58 s  wall 20.65 s
 Writing REM_CC_EA            2
 ----------------------------------------------------
       Standard Nuclear Orientation (Angstroms)
    I     Atom         X            Y            Z
 ----------------------------------------------------
    1      S       0.000000     0.001000     0.013959
    2      S       0.000000     0.000000     1.913432
 ----------------------------------------------------
 Nuclear Repulsion Energy =    71.3194574939 hartrees
 There are       17 alpha and       15 beta electrons

                       Distance Matrix (Angstroms)
             S (  1)
   S (  2)  1.899473
 
 Requested basis set is G3large
 There are 38 shells and 132 basis functions
 A cutoff of  1.0D-11 yielded    701 shell pairs
 There are   8682 function pairs ( 12485 Cartesian)
Evaluating contribution to one-electron hamiltonian from nuclear
 Smallest overlap matrix eigenvalue = 8.43E-04
 Multipole matrices computed through 2nd order
 Guess MOs from SCF MO coefficient file
Reading MOs from coefficient file
Reading MOs from coefficient file
 An unrestricted hybrid HF-DFT SCF calculation will be
 performed using Pulay DIIS extrapolation
 Exchange:     0.2000 Hartree-Fock + 0.0800 Slater + 0.7200 Becke88
 Correlation:  0.8100 LYP + 0.1900 VWN1RPA
 Using SG-1 standard quadrature grid
 SCF converges when DIIS error is below 1.0E-08
 ---------------------------------------
  Cycle       Energy         DIIS Error
 ---------------------------------------
    1    -796.4354217733      1.77E-05
    2    -796.4354223201      9.53E-07
    3    -796.4354223307      8.62E-07
    4    -796.4354223333      1.63E-07
    5    -796.4354223334      3.63E-08
    6    -796.4354223333      1.27E-08
    7    -796.4354223329      7.17E-09 Convergence criterion met
 ---------------------------------------
 One-Electron    Energy = -1241.6055436470
 Total Coulomb   Energy =   425.2407518086
 Alpha Exchange  Energy =    -5.1057427565
 Beta  Exchange  Energy =    -4.8983836226
 DFT   Exchange  Energy =   -39.7325062336
 DFT Correlation Energy =    -1.6534553756
 Nuclear Repu.   Energy =    71.3194574939
 Nuclear Attr.   Energy = -2036.8918546017
 Kinetic         Energy =   795.2863109547
 <S^2> = 2.0097
 SCF time:  CPU 26.87 s  wall 27.32 s
 Final Alpha MO Eigenvalues
            1           2           3           4           5           6
    1 -88.9047984 -88.9047979  -7.9874822  -7.9873252  -5.9491997  -5.9491997
            7           8           9          10          11          12
    1  -5.9491470  -5.9491470  -5.9478334  -5.9470362  -0.8436487  -0.6384594
           13          14          15          16          17          18
    1  -0.4051851  -0.3819547  -0.3819547  -0.2513588  -0.2513588  -0.0256186
           19          20          21          22
    1   0.0127204   0.0476472   0.0476472   0.0582617
 Final Beta MO Eigenvalues
            1           2           3           4           5           6
    1 -88.8981664 -88.8981652  -7.9815689  -7.9813839  -5.9447818  -5.9439756
            7           8           9          10          11          12
    1  -5.9368056  -5.9368056  -5.9367448  -5.9367448  -0.8161095  -0.5826742
           13          14          15          16          17          18
    1  -0.3825708  -0.3338237  -0.3338237  -0.1428831  -0.1428831  -0.0131177
           19          20
    1   0.0148679   0.0498211
 Analysis of SCF Wavefunction
 
 --------------------------------------------------------------
                    Orbital Energies (a.u.)
 --------------------------------------------------------------
 
 Alpha MOs
 -- Occupied --
-88.905 -88.905  -7.987  -7.987  -5.949  -5.949  -5.949  -5.949
 -5.948  -5.947  -0.844  -0.638  -0.405  -0.382  -0.382  -0.251
 -0.251
 -- Virtual --
 -0.026   0.013   0.048   0.048   0.058   0.062   0.084   0.084
  0.137   0.149   0.149   0.175   0.175   0.249   0.275   0.275
  0.317   0.376   0.376   0.388   0.388   0.430   0.486   0.486
  0.519   0.634   0.779   0.779   0.786   0.786   0.793   0.793
  0.862   0.923   0.923   0.936   0.936   0.953   0.953   1.003
  1.003   1.014   1.101   1.185   1.186   1.236   1.236   1.297
  1.312   1.312   1.380   1.710   1.710   1.958   1.958   2.071
  2.285   3.243   3.389   3.389   3.422   3.422   3.431   3.431
  3.432   3.432   3.490   3.490   3.629   3.629   3.719   4.432
  4.448   4.448   4.453   4.455   4.494   4.496   4.686   4.686
  5.462   8.179   8.215  17.027  17.027  17.142  17.142  17.300
 17.377  23.408  23.416  23.435  23.494  23.496  23.496  23.514
 23.606  23.606  23.884  30.907  30.919  30.919  30.924  30.924
 30.926  30.927  30.929  30.929  30.932  30.933  30.943  30.943
 30.972 189.395 189.407
 
 Beta MOs
 -- Occupied --
-88.898 -88.898  -7.982  -7.981  -5.945  -5.944  -5.937  -5.937
 -5.937  -5.937  -0.816  -0.583  -0.383  -0.334  -0.334
 -- Virtual --
 -0.143  -0.143  -0.013   0.015   0.050   0.050   0.059   0.069
  0.089   0.089   0.141   0.173   0.173   0.197   0.197   0.260
  0.312   0.312   0.324   0.389   0.389   0.408   0.408   0.440
  0.502   0.502   0.532   0.640   0.801   0.801   0.803   0.803
  0.807   0.807   0.880   0.961   0.961   0.966   0.966   0.991
  0.992   1.022   1.022   1.027   1.116   1.206   1.207   1.251
  1.251   1.314   1.332   1.332   1.396   1.738   1.738   1.982
  1.982   2.073   2.291   3.262   3.440   3.440   3.442   3.442
  3.463   3.463   3.482   3.482   3.521   3.522   3.652   3.652
  3.738   4.437   4.455   4.455   4.467   4.469   4.509   4.511
  4.695   4.695   5.473   8.192   8.226  17.043  17.043  17.158
 17.158  17.303  17.381  23.413  23.429  23.448  23.503  23.503
 23.507  23.526  23.613  23.613  23.890  30.910  30.924  30.924
 30.929  30.929  30.930  30.930  30.932  30.932  30.936  30.936
 30.946  30.946  30.975 189.401 189.413
 --------------------------------------------------------------
 
          Ground-State Mulliken Net Atomic Charges

     Atom                 Charge (a.u.)    Spin (a.u.)
  --------------------------------------------------------
      1 S                     0.000000       1.000000
      2 S                     0.000000       1.000000
  --------------------------------------------------------
  Sum of atomic charges =     0.000000
  Sum of spin   charges =     2.000000

 -----------------------------------------------------------------
                    Cartesian Multipole Moments
 -----------------------------------------------------------------
    Charge (ESU x 10^10)
                 0.0000
    Dipole Moment (Debye)
         X       0.0000      Y       0.0000      Z       0.0000
       Tot       0.0000
    Quadrupole Moments (Debye-Ang)
        XX     -25.9946     XY       0.0000     YY     -25.9946
        XZ       0.0000     YZ      -0.0010     ZZ     -24.1646
    Octapole Moments (Debye-Ang^2)
       XXX       0.0000    XXY      -0.0130    XYY       0.0000
       YYY      -0.0390    XXZ     -25.0509    XYZ       0.0000
       YYZ     -25.0509    XZZ       0.0000    YZZ      -0.0139
       ZZZ     -69.8618
    Hexadecapole Moments (Debye-Ang^3)
      XXXX     -35.3704   XXXY       0.0000   XXYY     -11.7895
      XYYY       0.0000   YYYY     -35.3705   XXXZ       0.0000
      XXYZ      -0.0003   XYYZ       0.0000   YYYZ      -0.0010
      XXZZ     -59.0855   XYZZ       0.0000   YYZZ     -59.0855
      XZZZ       0.0000   YZZZ      -0.0082   ZZZZ    -295.2592
 -----------------------------------------------------------------
 Calculating analytic gradient of the SCF energy
 Gradient of XC Energy
            1           2
    1   0.0000000  -0.0000000
    2   0.0001211  -0.0001211
    3  -0.2327509   0.2327509
 Gradient of SCF Energy
            1           2
    1   0.0000000  -0.0000000
    2  -0.0000002   0.0000002
    3  -0.0000187   0.0000187
 Max gradient component =       1.869E-05
 RMS gradient           =       1.079E-05
 Gradient time:  CPU 24.87 s  wall 24.93 s
 Writing REM_CC_EA            2
 ----------------------------------------------------
       Standard Nuclear Orientation (Angstroms)
    I     Atom         X            Y            Z
 ----------------------------------------------------
    1      S       0.000000    -0.001000     0.013959
    2      S       0.000000     0.000000     1.913432
 ----------------------------------------------------
 Nuclear Repulsion Energy =    71.3194574939 hartrees
 There are       17 alpha and       15 beta electrons

                       Distance Matrix (Angstroms)
             S (  1)
   S (  2)  1.899473
 
[...]
 performed using Pulay DIIS extrapolation
 Exchange:     0.2000 Hartree-Fock + 0.0800 Slater + 0.7200 Becke88
 Correlation:  0.8100 LYP + 0.1900 VWN1RPA
 Using SG-1 standard quadrature grid
 SCF converges when DIIS error is below 1.0E-08
 ---------------------------------------
  Cycle       Energy         DIIS Error
 ---------------------------------------
    1    -796.4348020608      4.55E-05
    2    -796.4354216675      5.68E-06
    3    -796.4354216757      6.17E-06
    4    -796.4354217491      3.66E-07
    5    -796.4354217494      7.01E-08
    6    -796.4354217497      2.92E-08
    7    -796.4354217497      6.35E-09 Convergence criterion met
 ---------------------------------------
 One-Electron    Energy = -1241.5301928040
 Total Coulomb   Energy =   425.2024113204
 Alpha Exchange  Energy =    -5.1057018599
 Beta  Exchange  Energy =    -4.8983112885
 DFT   Exchange  Energy =   -39.7321418090
 DFT Correlation Energy =    -1.6534254564
 Nuclear Repu.   Energy =    71.2819401478
 Nuclear Attr.   Energy = -2036.8143872703
 Kinetic         Energy =   795.2841944663
 <S^2> = 2.0097
 SCF time:  CPU 26.40 s  wall 26.80 s
 Final Alpha MO Eigenvalues
            1           2           3           4           5           6
    1 -88.9048796 -88.9048791  -7.9875380  -7.9873823  -5.9492572  -5.9492572
            7           8           9          10          11          12
    1  -5.9492049  -5.9492049  -5.9478910  -5.9470990  -0.8434048  -0.6385734
           13          14          15          16          17          18
    1  -0.4051358  -0.3818386  -0.3818386  -0.2514628  -0.2514628  -0.0258377
           19          20          21          22
    1   0.0127249   0.0476652   0.0476652   0.0582730
 Final Beta MO Eigenvalues
            1           2           3           4           5           6
    1 -88.8982467 -88.8982455  -7.9816240  -7.9814404  -5.9448390  -5.9440380
            7           8           9          10          11          12
    1  -5.9368616  -5.9368616  -5.9368012  -5.9368012  -0.8158367  -0.5827928
           13          14          15          16          17          18
    1  -0.3825433  -0.3336852  -0.3336852  -0.1429931  -0.1429931  -0.0133118
           19          20
    1   0.0148734   0.0498415
 Analysis of SCF Wavefunction
 
 --------------------------------------------------------------
                    Orbital Energies (a.u.)
 --------------------------------------------------------------
 
 Alpha MOs
 -- Occupied --
-88.905 -88.905  -7.988  -7.987  -5.949  -5.949  -5.949  -5.949
 -5.948  -5.947  -0.843  -0.639  -0.405  -0.382  -0.382  -0.251
 -0.251
 -- Virtual --
 -0.026   0.013   0.048   0.048   0.058   0.062   0.084   0.084
  0.137   0.149   0.150   0.175   0.175   0.249   0.275   0.275
  0.317   0.376   0.376   0.388   0.388   0.430   0.486   0.486
  0.519   0.634   0.779   0.779   0.787   0.787   0.793   0.793
  0.862   0.923   0.923   0.936   0.936   0.953   0.953   1.003
  1.003   1.014   1.100   1.185   1.186   1.236   1.236   1.296
  1.312   1.312   1.380   1.710   1.710   1.958   1.958   2.070
  2.285   3.244   3.389   3.389   3.422   3.422   3.431   3.431
  3.432   3.432   3.489   3.490   3.628   3.628   3.718   4.432
  4.448   4.448   4.453   4.455   4.494   4.496   4.686   4.686
  5.460   8.179   8.214  17.027  17.027  17.141  17.141  17.299
 17.377  23.408  23.416  23.435  23.494  23.496  23.496  23.514
 23.605  23.605  23.883  30.908  30.919  30.919  30.924  30.924
 30.926  30.927  30.929  30.929  30.932  30.933  30.943  30.943
 30.972 189.394 189.407
 
 Beta MOs
 -- Occupied --
-88.898 -88.898  -7.982  -7.981  -5.945  -5.944  -5.937  -5.937
 -5.937  -5.937  -0.816  -0.583  -0.383  -0.334  -0.334
 -- Virtual --
 -0.143  -0.143  -0.013   0.015   0.050   0.050   0.059   0.068
  0.089   0.089   0.141   0.173   0.173   0.197   0.197   0.260
  0.312   0.312   0.324   0.389   0.389   0.408   0.408   0.440
  0.502   0.502   0.532   0.640   0.801   0.801   0.803   0.803
  0.807   0.807   0.880   0.961   0.961   0.966   0.966   0.991
  0.992   1.022   1.022   1.027   1.115   1.206   1.207   1.251
  1.251   1.313   1.332   1.332   1.396   1.738   1.738   1.982
  1.982   2.072   2.291   3.263   3.440   3.440   3.443   3.443
  3.463   3.463   3.482   3.482   3.521   3.522   3.651   3.651
  3.737   4.437   4.455   4.455   4.467   4.469   4.509   4.511
  4.694   4.694   5.471   8.192   8.226  17.043  17.043  17.158
 17.158  17.303  17.381  23.413  23.429  23.448  23.503  23.503
 23.507  23.526  23.612  23.612  23.889  30.910  30.924  30.924
 30.929  30.929  30.930  30.930  30.932  30.932  30.936  30.936
 30.946  30.946  30.974 189.400 189.413
 --------------------------------------------------------------
 
          Ground-State Mulliken Net Atomic Charges

     Atom                 Charge (a.u.)    Spin (a.u.)
  --------------------------------------------------------
      1 S                     0.000001       1.000000
      2 S                    -0.000001       1.000000
  --------------------------------------------------------
  Sum of atomic charges =     0.000000
  Sum of spin   charges =     2.000000

 -----------------------------------------------------------------
                    Cartesian Multipole Moments
 -----------------------------------------------------------------
    Charge (ESU x 10^10)
                 0.0000
    Dipole Moment (Debye)
         X       0.0000      Y       0.0000      Z       0.0000
       Tot       0.0000
    Quadrupole Moments (Debye-Ang)
        XX     -25.9971     XY       0.0000     YY     -25.9971
        XZ       0.0000     YZ       0.0000     ZZ     -24.1611
    Octapole Moments (Debye-Ang^2)
       XXX       0.0000    XXY       0.0000    XYY       0.0000
       YYY       0.0000    XXZ     -25.0663    XYZ       0.0000
       YYZ     -25.0663    XZZ       0.0000    YZZ       0.0000
       ZZZ     -69.8879
    Hexadecapole Moments (Debye-Ang^3)
      XXXX     -35.3776   XXXY       0.0000   XXYY     -11.7919
      XYYY       0.0000   YYYY     -35.3776   XXXZ       0.0000
      XXYZ       0.0000   XYYZ       0.0000   YYYZ       0.0000
      XXZZ     -59.1366   XYZZ       0.0000   YYZZ     -59.1366
      XZZZ       0.0000   YZZZ       0.0000   ZZZZ    -295.4998
 -----------------------------------------------------------------
 Calculating analytic gradient of the SCF energy
 Gradient of XC Energy
            1           2
    1  -0.0000000   0.0000000
    2  -0.0000000   0.0000000
    3  -0.2326225   0.2326225
 Gradient of SCF Energy
            1           2
    1   0.0000000  -0.0000000
    2  -0.0000000   0.0000000
    3  -0.0005987   0.0005987
 Max gradient component =       5.987E-04
 RMS gradient           =       3.456E-04
 Gradient time:  CPU 24.30 s  wall 24.35 s
 Writing REM_CC_EA            2
 ----------------------------------------------------
       Standard Nuclear Orientation (Angstroms)
    I     Atom         X            Y            Z
 ----------------------------------------------------
    1      S       0.000000     0.000000     0.013959
    2      S       0.000000     0.000000     1.912432
 ----------------------------------------------------
 Nuclear Repulsion Energy =    71.3570341412 hartrees
 There are       17 alpha and       15 beta electrons

                       Distance Matrix (Angstroms)
             S (  1)
   S (  2)  1.898472
 
 Requested basis set is G3large
 There are 38 shells and 132 basis functions
 A cutoff of  1.0D-11 yielded    701 shell pairs
 There are   8682 function pairs ( 12485 Cartesian)
Evaluating contribution to one-electron hamiltonian from nuclear
 Smallest overlap matrix eigenvalue = 8.41E-04
 Multipole matrices computed through 2nd order
 Guess MOs from SCF MO coefficient file
Reading MOs from coefficient file
Reading MOs from coefficient file
 An unrestricted hybrid HF-DFT SCF calculation will be
 performed using Pulay DIIS extrapolation
 Exchange:     0.2000 Hartree-Fock + 0.0800 Slater + 0.7200 Becke88
 Correlation:  0.8100 LYP + 0.1900 VWN1RPA
 Using SG-1 standard quadrature grid
 SCF converges when DIIS error is below 1.0E-08
 ---------------------------------------
  Cycle       Energy         DIIS Error
 ---------------------------------------
    1    -796.4366654229      8.77E-05
    2    -796.4354215193      1.12E-05
    3    -796.4354215299      1.22E-05
    4    -796.4354218171      6.58E-07
    5    -796.4354218177      1.08E-07
    6    -796.4354218175      9.23E-08
    7    -796.4354218175      3.48E-08
    8    -796.4354218175      1.73E-09 Convergence criterion met
 ---------------------------------------
 One-Electron    Energy = -1241.6810179443
 Total Coulomb   Energy =   425.2791590891
 Alpha Exchange  Energy =    -5.1057837744
 Beta  Exchange  Energy =    -4.8984561215
 DFT   Exchange  Energy =   -39.7328718467
 DFT Correlation Energy =    -1.6534853609
 Nuclear Repu.   Energy =    71.3570341412
 Nuclear Attr.   Energy = -2036.9694572889
 Kinetic         Energy =   795.2884393445
 <S^2> = 2.0097
 SCF time:  CPU 31.01 s  wall 31.31 s
 Final Alpha MO Eigenvalues
            1           2           3           4           5           6
    1 -88.9047169 -88.9047164  -7.9874264  -7.9872680  -5.9491421  -5.9491421
            7           8           9          10          11          12
    1  -5.9490889  -5.9490889  -5.9477757  -5.9469733  -0.8438930  -0.6383452
           13          14          15          16          17          18
    1  -0.4052343  -0.3820711  -0.3820711  -0.2512547  -0.2512547  -0.0253998
           19          20          21          22
    1   0.0127158   0.0476292   0.0476292   0.0582505
 Final Beta MO Eigenvalues
            1           2           3           4           5           6
    1 -88.8980858 -88.8980846  -7.9815137  -7.9813273  -5.9447246  -5.9439131
            7           8           9          10          11          12
    1  -5.9367495  -5.9367495  -5.9366882  -5.9366882  -0.8163827  -0.5825553
           13          14          15          16          17          18
    1  -0.3825981  -0.3339625  -0.3339625  -0.1427729  -0.1427729  -0.0129239
           19          20
    1   0.0148625   0.0498007
 Analysis of SCF Wavefunction
 
 --------------------------------------------------------------
                    Orbital Energies (a.u.)
 --------------------------------------------------------------
 
 Alpha MOs
 -- Occupied --
-88.905 -88.905  -7.987  -7.987  -5.949  -5.949  -5.949  -5.949
 -5.948  -5.947  -0.844  -0.638  -0.405  -0.382  -0.382  -0.251
 -0.251
 -- Virtual --
 -0.025   0.013   0.048   0.048   0.058   0.062   0.084   0.084
  0.137   0.149   0.149   0.175   0.175   0.249   0.275   0.275
  0.317   0.376   0.376   0.388   0.388   0.430   0.486   0.486
  0.520   0.634   0.779   0.779   0.786   0.786   0.793   0.793
  0.862   0.923   0.923   0.936   0.936   0.953   0.953   1.003
  1.003   1.015   1.101   1.186   1.186   1.236   1.236   1.297
  1.312   1.312   1.379   1.710   1.710   1.959   1.959   2.072
  2.285   3.242   3.389   3.389   3.421   3.421   3.431   3.431
  3.431   3.432   3.490   3.490   3.629   3.629   3.720   4.433
  4.448   4.448   4.453   4.454   4.494   4.496   4.687   4.687
  5.464   8.180   8.215  17.027  17.027  17.142  17.142  17.300
 17.377  23.408  23.416  23.435  23.494  23.496  23.496  23.514
 23.606  23.606  23.885  30.907  30.919  30.919  30.924  30.924
 30.926  30.927  30.929  30.929  30.932  30.933  30.944  30.944
 30.973 189.396 189.408
 
 Beta MOs
 -- Occupied --
-88.898 -88.898  -7.982  -7.981  -5.945  -5.944  -5.937  -5.937
 -5.937  -5.937  -0.816  -0.583  -0.383  -0.334  -0.334
 -- Virtual --
 -0.143  -0.143  -0.013   0.015   0.050   0.050   0.059   0.069
  0.089   0.089   0.141   0.173   0.173   0.197   0.197   0.259
  0.312   0.312   0.324   0.389   0.389   0.408   0.408   0.440
  0.502   0.502   0.532   0.640   0.801   0.801   0.803   0.803
  0.807   0.807   0.880   0.961   0.961   0.966   0.966   0.992
  0.992   1.022   1.022   1.027   1.116   1.207   1.207   1.252
  1.252   1.314   1.332   1.332   1.395   1.738   1.738   1.982
  1.982   2.073   2.291   3.261   3.440   3.440   3.442   3.442
  3.463   3.463   3.482   3.482   3.522   3.522   3.652   3.652
  3.738   4.438   4.454   4.454   4.467   4.469   4.509   4.511
  4.696   4.696   5.475   8.193   8.227  17.044  17.044  17.158
 17.158  17.303  17.381  23.414  23.429  23.448  23.503  23.503
 23.507  23.527  23.613  23.613  23.891  30.910  30.924  30.924
 30.929  30.929  30.930  30.930  30.932  30.932  30.936  30.936
 30.946  30.946  30.975 189.402 189.414
 --------------------------------------------------------------
 
          Ground-State Mulliken Net Atomic Charges

     Atom                 Charge (a.u.)    Spin (a.u.)
  --------------------------------------------------------
      1 S                     0.000000       1.000000
      2 S                     0.000000       1.000000
  --------------------------------------------------------
  Sum of atomic charges =     0.000000
  Sum of spin   charges =     2.000000

 -----------------------------------------------------------------
                    Cartesian Multipole Moments
 -----------------------------------------------------------------
    Charge (ESU x 10^10)
                 0.0000
    Dipole Moment (Debye)
         X       0.0000      Y       0.0000      Z       0.0000
       Tot       0.0000
    Quadrupole Moments (Debye-Ang)
        XX     -25.9921     XY       0.0000     YY     -25.9921
        XZ       0.0000     YZ       0.0000     ZZ     -24.1681
    Octapole Moments (Debye-Ang^2)
       XXX       0.0000    XXY       0.0000    XYY       0.0000
       YYY       0.0000    XXZ     -25.0355    XYZ       0.0000
       YYZ     -25.0355    XZZ       0.0000    YZZ       0.0000
       ZZZ     -69.8358
    Hexadecapole Moments (Debye-Ang^3)
      XXXX     -35.3632   XXXY       0.0000   XXYY     -11.7871
      XYYY       0.0000   YYYY     -35.3632   XXXZ       0.0000
      XXYZ       0.0000   XYYZ       0.0000   YYYZ       0.0000
      XXZZ     -59.0343   XYZZ       0.0000   YYZZ     -59.0343
      XZZZ       0.0000   YZZZ       0.0000   ZZZZ    -295.0188
 -----------------------------------------------------------------
 Calculating analytic gradient of the SCF energy
 Gradient of XC Energy
            1           2
    1   0.0000000  -0.0000000
    2  -0.0000000   0.0000000
    3  -0.2328790   0.2328790
 Gradient of SCF Energy
            1           2
    1   0.0000000  -0.0000000
    2  -0.0000000   0.0000000
    3   0.0005648  -0.0005648
 Max gradient component =       5.648E-04
 RMS gradient           =       3.261E-04
 Gradient time:  CPU 24.12 s  wall 24.18 s
Dipole drv :
gprntSymmMtrx error report: 
 Final Hessian.
            1           2           3           4           5           6
    1  -0.0000744   0.0000005  -0.0000070   0.0000734  -0.0000007   0.0000000
    2   0.0000005  -0.0000840   0.0000050  -0.0000004   0.0000836  -0.0000056
    3  -0.0000070   0.0000050   0.3078344   0.0000015  -0.0000062  -0.3078343
    4   0.0000734  -0.0000004   0.0000015  -0.0000723   0.0000006   0.0000000
    5  -0.0000007   0.0000836  -0.0000062   0.0000006  -0.0000832   0.0000067
    6   0.0000000  -0.0000056  -0.3078343   0.0000000   0.0000067   0.3078341
 Writing REM_CC_EA            2
 ----------------------------------------------------
       Standard Nuclear Orientation (Angstroms)
    I     Atom         X            Y            Z
 ----------------------------------------------------
    1      S       0.000000     0.000000     0.013959
    2      S       0.000000     0.000000     1.913432
 ----------------------------------------------------
 Nuclear Repulsion Energy =    71.3194673774 hartrees
 There are       17 alpha and       15 beta electrons
 old dipole drv.
            1           2           3           4           5           6
    1   0.0000008   0.0000005   0.0000018   0.0000008  -0.0000004  -0.0000080
    2   0.0000013   0.0000007  -0.0000080  -0.0000064   0.0000020   0.0000038
    3  -0.0003570  -0.0001180  -0.0001929   0.0007547  -0.0003862  -0.0006480
 New transposed dipole drv.
            1           2           3
    1   0.0000008   0.0000013  -0.0003570
    2   0.0000005   0.0000007  -0.0001180
    3   0.0000018  -0.0000080  -0.0001929
    4   0.0000008  -0.0000064   0.0007547
    5  -0.0000004   0.0000020  -0.0003862
    6  -0.0000080   0.0000038  -0.0006480
FINAL TENSOR RESULT:
Order 2, Length 6
Order 1, Length 6
  -0.0000744   0.0000005  -0.0000070   0.0000734  -0.0000007   0.0000000
Order 1, Length 6
   0.0000005  -0.0000840   0.0000050  -0.0000004   0.0000836  -0.0000056
Order 1, Length 6
  -0.0000070   0.0000050   0.3078344   0.0000015  -0.0000062  -0.3078343
Order 1, Length 6
   0.0000734  -0.0000004   0.0000015  -0.0000723   0.0000006   0.0000000
Order 1, Length 6
  -0.0000007   0.0000836  -0.0000062   0.0000006  -0.0000832   0.0000067
Order 1, Length 6
   0.0000000  -0.0000056  -0.3078343   0.0000000   0.0000067   0.3078341


 # Finishing finite difference calculation for IDERIV #
 ######################################################
 ######################################################
 Requested basis set is G3large
 There are 38 shells and 132 basis functions
 **********************************************************************
 **                                                                  **
 **                       VIBRATIONAL ANALYSIS                       **
 **                       --------------------                       **
 **                                                                  **
 **        VIBRATIONAL FREQUENCIES (CM**-1) AND NORMAL MODES         **
 **     FORCE CONSTANTS (mDYN/ANGSTROM) AND REDUCED MASSES (AMU)     **
 **                  INFRARED INTENSITIES (KM/MOL)                   **
 **                                                                  **
 **********************************************************************
 

 Mode:                 1
 Frequency:       713.34
 Force Cnst:      9.5854
 Red. Mass:      31.9721
 IR Active:          YES
 IR Intens:        0.000
 Raman Active:       YES
               X      Y      Z
 S          0.000  0.000  0.707
 S          0.000  0.000 -0.707
 TransDip   0.000  0.000  0.000

 STANDARD THERMODYNAMIC QUANTITIES AT   298.18 K  AND     1.00 ATM

   This Molecule has  0 Imaginary Frequencies
   Zero point vibrational energy:        1.020 kcal/mol

   Atom    1 Element S  Has Mass   31.97207
   Atom    2 Element S  Has Mass   31.97207
   Molecular Mass:    63.944140 amu
   Principal axes and moments of inertia in atomic units:
                             1           2           3
    Eigenvalues --        0.00000   205.97026   205.97026
          X               0.00000     0.00000     1.00000
          Y               0.00000     1.00000     0.00000
          Z               1.00000     0.00000     0.00000
   Rotational Symmetry Number is   1
   The Molecule is a Symmetric Top
   Translational Enthalpy:        0.889 kcal/mol
   Rotational Enthalpy:           0.889 kcal/mol
   Vibrational Enthalpy:          1.087 kcal/mol
   gas constant (RT):             0.593 kcal/mol
   Translational Entropy:        38.385  cal/mol.K
   Rotational Entropy:          -42.776  cal/mol.K
   Vibrational Entropy:           0.291  cal/mol.K

   Total Enthalpy:                3.457 kcal/mol
   Total Entropy:                -4.100  cal/mol.K
 Total job time:  647.86s(wall), 643.03s(cpu) 
 Wed Jul 24 16:13:26 2013

        *************************************************************
        *                                                           *
        *  Thank you very much for using Q-Chem.  Have a nice day.  *
        *                                                           *
        *************************************************************


0 sent ACK to 0 
now end server 0 ... 
