Process 0 of 1 is on cl142.stfx.acenet.ca - thread support 1
initial socket setup ...start
initial socket setup ...done 
now start server 0 ... 

cmd = /usr/bin/ssh clhead /usr/local/qchem/bin/get_hostid 573717459 > /globalscratch/itamblyn/bnl/g297_b3lyp_neut_g03Large_worked/g2g71054/omega540/qchem23900/lic.dat
                  Welcome to Q-Chem
     A Quantum Leap Into The Future Of Chemistry

 Y. Shao, L. Fusti-Molnar, Y. Jung, J. Kussmann, C. Ochsenfeld,
 S. T. Brown, A. T. B. Gilbert, L. V. Slipchenko,S. V. Levchenko,
 D. P. O'Neill, R. A. DiStasio Jr., R. C. Lochan, T. Wang,
 G. J. O. Beran, N. A. Besley, J. M. Herbert, C. Y. Lin,
 T. Van Voorhis, S. H. Chien, A. Sodt, R. P. Steele, 
 V. A. Rassolov, P. E. Maslen, P. P. Korambath, R. D. Adamson,
 B. Austin, J. Baker, E. F. C. Byrd, H. Dachsel, R. J. Doerksen,
 A. Dreuw, B. D. Dunietz, A. D. Dutoi, T. R. Furlani,
 S. R. Gwaltney, A. Heyden, S. Hirata, C.-P. Hsu, G. Kedziora,
 R. Z. Khaliullin, P. Klunzinger, A. M. Lee, M. S. Lee, W. Liang,
 I. Lotan, N. Nair, B. Peters, E. I. Proynov, P. A. Pieniazek, 
 Y. M. Rhee, J. Ritchie, E. Rosta, C. D. Sherrill, 
 A. C. Simmonett, J. E. Subotnik, H. L. Woodcock III,
 W. Zhang, A. T. Bell, A. K. Chakraborty, D. M. Chipman,
 F. J. Keil, A. Warshel, W. J. Hehre, H. F. Schaefer III,
 J. Kong, A. I. Krylov, P. M. W. Gill, M. Head-Gordon,
 Q-Chem, Version 3.1, Q-Chem, Inc., Pittsburgh, PA (2007).

 Additional authors for Version 3.1: 
 Z. Gan, Y. Zhao, N. E. Schultz, D. Truhlar, E. Epifanovsky and M. Oana.

 Additional authors for Version 3.2: 
 R. Baer, B. R. Brooks, D. Casanova, J.-D. Chai, C.-L. Cheng, 
 C. Cramer, D. Crittenden, A. Ghysels, G. Hawkins, E. G. Hohenstein, 
 C. Kelley, W. Kurlancheek, D. Liotard, E. Livshits, P. Manohar, 
 A. Marenich, D. Neuhauser, R. Olson, M. A. Rohrdanz, K. S. Thanthiriwatte, 
 A. J. W. Thom, V. Vanovschi, C. F. Williams, Q. Wu and Z.-Q. You. 


 Intel X86 Linux Version

 Q-chem begins on Fri Apr 15 15:32:19 2011  

 Parallel job on  1  processors
Processing $rem in /usr/local/qchem/config/preferences.

theFileMan(): MAXOPENFILES=974 MAX_SUB_FILE_NUM=16
Maximum size of a physical file is 2.0 GB, maximum size of a tmp-file is 32.0 GB


--------------------------------------------------------------
User input:
--------------------------------------------------------------

$molecule
-1,2
S
O,1,SO
O,1,SO,2,OSO

SO=1.46359695
OSO=119.10217046

$end

$comment
negative
$end

$xc_functional
   X HF 1.0
   X BNL 1.0
   C LYP 1.0
$end

$rem
SYMMETRY_DECOMPOSITION	0
exchange 		general
BASIS                   g3large
omega			540
separate_jk		true
mem_static              760
max_scf_cycles          200
scf_final_print         1
sym_ignore              true
$end

--------------------------------------------------------------
 Writing REM_CC_EA            3
 ----------------------------------------------------
       Standard Nuclear Orientation (Angstroms)
    I     Atom         X            Y            Z
 ----------------------------------------------------
    1      S       0.000000     0.000000     0.000000
    2      O       0.000000     0.000000     1.463597
    3      O       1.278823     0.000000    -0.711847
 ----------------------------------------------------
 Nuclear Repulsion Energy =   105.9800937865 hartrees
 There are       17 alpha and       16 beta electrons
 Requested basis set is G3large
 There are 39 shells and 150 basis functions

Total QAlloc Memory Limit   2000 MB
Mega-Array Size       743 MB
MEM_STATIC part       760 MB

                       Distance Matrix (Angstroms)
             S (  1)   O (  2)
   O (  2)  1.463597
   O (  3)  1.463597  2.523479
 
 A cutoff of  1.0D-08 yielded    717 shell pairs
 There are  10801 function pairs ( 14764 Cartesian)
Evaluating contribution to one-electron hamiltonian from nuclear
 Smallest overlap matrix eigenvalue = 5.33E-04
 Multipole matrices computed through 2nd order

  Scale SEOQF with 1.000000e-01/1.000000e-01/1.000000e-01

 Standard Electronic Orientation quadrupole field applied
 Nucleus-field energy     =    -0.0000000018 hartrees
 Guess from superposition of atomic densities
 Warning:  Energy on first SCF cycle will be non-variational
 An unrestricted hybrid HF-DFT SCF calculation will be
 performed using Pulay DIIS extrapolation
 Exchange:     1.0000 Hartree-Fock + 1.0000 BNL
 Correlation:  1.0000 LYP
 Using SG-1 standard quadrature grid
 SCF converges when DIIS error is below 1.0E-05
 Warning!  Inaccurate integrated density:
   Number of electrons =    33
   Numerical integral  =    32.000059195192
   Relative error      =    -3.0301236509 %
 ---------------------------------------
  Cycle       Energy         DIIS Error
 ---------------------------------------
    1    -546.4594293683      4.36E-02
    2    -545.6777616480      8.38E-03
    3    -545.6854807532      8.99E-03
    4    -545.8333834841      6.40E-04
    5    -545.8350172688      1.75E-04
    6    -545.8355265495      7.32E-05
    7    -545.8356494699      5.95E-05
    8    -545.8356963214      2.67E-05
    9    -545.8357283530      1.20E-05
   10    -545.8357345342      4.88E-06 Convergence criterion met
 ---------------------------------------
 One-Electron    Energy =  -975.4529637947
 Total Coulomb   Energy =   363.8270531624
 Alpha Exchange  Energy =    -4.5078331613
 Beta  Exchange  Energy =    -4.2408595320
 DFT   Exchange  Energy =   -30.1591208980
 DFT Correlation Energy =    -1.2821040953
 Nuclear Repu.   Energy =   105.9800937847
 Nuclear Attr.   Energy = -1520.2295652038
 Kinetic         Energy =   544.7766014091
 <S^2> = 0.7594
 SCF time:  CPU 62.27 s  wall 73.38 s
 Final Alpha MO Eigenvalues
            1           2           3           4           5           6
    1 -87.8429701 -18.6181284 -18.6181124  -7.7757736  -5.8182992  -5.8169549
            7           8           9          10          11          12
    1  -5.8139255  -1.0422272  -0.9414868  -0.5397045  -0.3920538  -0.3767125
           13          14          15          16          17          18
    1  -0.3753334  -0.2764740  -0.2361236  -0.2062053  -0.0722836   0.2192214
           19          20          21          22
    1   0.2349891   0.2360451   0.2391932   0.3925587
 Final Beta MO Eigenvalues
            1           2           3           4           5           6
    1 -87.8395228 -18.6112418 -18.6112129  -7.7721020  -5.8160221  -5.8117610
            7           8           9          10          11          12
    1  -5.8079467  -1.0302573  -0.9292831  -0.5066000  -0.3689925  -0.3649071
           13          14          15          16          17          18
    1  -0.3427619  -0.2293143  -0.2190910  -0.1877042   0.2173631   0.2244168
           19          20          21
    1   0.2343094   0.2357811   0.2767887
 Analysis of SCF Wavefunction
 
 --------------------------------------------------------------
                    Orbital Energies (a.u.)
 --------------------------------------------------------------
 
 Alpha MOs
 -- Occupied --
-87.843 -18.618 -18.618  -7.776  -5.818  -5.817  -5.814  -1.042
 -0.941  -0.540  -0.392  -0.377  -0.375  -0.276  -0.236  -0.206
 -0.072
 -- Virtual --
  0.219   0.235   0.236   0.239   0.393   0.394   0.419   0.433
  0.451   0.454   0.466   0.496   0.522   0.553   0.580   0.634
  0.668   0.669   0.681   0.792   0.847   0.970   1.160   1.184
  1.220   1.249   1.256   1.270   1.294   1.324   1.349   1.363
  1.377   1.396   1.416   1.424   1.442   1.460   1.532   1.616
  1.732   1.903   1.912   1.957   2.059   2.071   2.139   2.183
  2.381   2.450   2.483   2.486   2.599   2.608   2.982   2.997
  3.759   3.764   3.775   3.782   3.783   3.894   3.968   4.835
  4.843   4.863   4.975   4.987   5.268   5.271   5.290   5.320
  5.425   5.442   5.445   5.450   5.458   5.494   5.531   5.572
  5.699   5.806   5.932   5.945   6.103   6.142   6.633   6.852
  7.141   7.186   7.229   7.269   7.548   7.553   7.602   7.679
  7.760   7.934   9.620  17.310  17.670  18.078  23.801  23.862
 23.941  24.117  24.214  31.190  31.193  31.219  31.223  31.242
 31.249  31.319  43.978  44.003  44.046  44.087  44.122  44.172
 44.177  44.191  44.212  44.254  46.017  46.022  46.042  46.061
 46.593  46.626  50.378  50.389 190.279
 
 Beta MOs
 -- Occupied --
-87.840 -18.611 -18.611  -7.772  -5.816  -5.812  -5.808  -1.030
 -0.929  -0.507  -0.369  -0.365  -0.343  -0.229  -0.219  -0.188
 -- Virtual --
  0.217   0.224   0.234   0.236   0.277   0.394   0.400   0.426
  0.435   0.457   0.463   0.472   0.496   0.525   0.553   0.598
  0.642   0.672   0.697   0.699   0.795   0.851   0.974   1.170
  1.194   1.223   1.259   1.260   1.284   1.316   1.338   1.362
  1.372   1.379   1.401   1.428   1.429   1.457   1.464   1.538
  1.620   1.743   1.909   1.923   1.969   2.082   2.083   2.145
  2.196   2.386   2.463   2.488   2.499   2.602   2.611   2.990
  3.004   3.774   3.778   3.779   3.804   3.811   3.916   3.974
  4.841   4.854   4.874   4.984   4.992   5.290   5.294   5.298
  5.328   5.436   5.456   5.458   5.463   5.471   5.503   5.543
  5.583   5.707   5.814   5.939   5.961   6.109   6.156   6.642
  6.859   7.163   7.208   7.249   7.290   7.569   7.574   7.610
  7.688   7.772   7.945   9.626  17.323  17.672  18.080  23.808
 23.869  23.948  24.121  24.216  31.193  31.196  31.222  31.225
 31.245  31.251  31.320  43.995  44.021  44.063  44.104  44.130
 44.189  44.195  44.201  44.220  44.263  46.030  46.035  46.047
 46.066  46.598  46.631  50.387  50.398 190.283
 --------------------------------------------------------------
 
          Ground-State Mulliken Net Atomic Charges

     Atom                 Charge (a.u.)    Spin (a.u.)
  --------------------------------------------------------
      1 S                     0.341164       0.629401
      2 O                    -0.670565       0.185182
      3 O                    -0.670599       0.185418
  --------------------------------------------------------
  Sum of atomic charges =    -1.000000
  Sum of spin   charges =     1.000000

 -----------------------------------------------------------------
                    Cartesian Multipole Moments
 -----------------------------------------------------------------
    Charge (ESU x 10^10)
                -4.8032
    Dipole Moment (Debye)
         X      -2.6612      Y      -0.0004      Z      -1.5643
       Tot       3.0869
    Quadrupole Moments (Debye-Ang)
        XX     -31.5879     XY       0.0016     YY     -26.4413
        XZ       2.5978     YZ       0.0009     ZZ     -34.4800
    Octapole Moments (Debye-Ang^2)
       XXX     -30.8814    XXY      -0.0009    XYY      -6.9630
       YYY      -0.0003    XXZ      -0.3536    XYZ      -0.0008
       YYZ      -4.0928    XZZ     -10.1160    YZZ      -0.0016
       ZZZ     -23.7451
    Hexadecapole Moments (Debye-Ang^3)
      XXXX    -107.4459   XXXY       0.0043   XXYY     -22.3806
      XYYY       0.0029   YYYY     -35.2689   XXXZ      21.8008
      XXYZ       0.0011   XYYZ       5.6449   YYYZ       0.0022
      XXZZ     -42.0038   XYZZ       0.0020   YYZZ     -28.6649
      XZZZ      18.6260   YZZZ       0.0009   ZZZZ    -152.4497
 -----------------------------------------------------------------
 Total job time:  76.33s(wall), 62.44s(cpu) 
 Fri Apr 15 15:33:35 2011

        *************************************************************
        *                                                           *
        *  Thank you very much for using Q-Chem.  Have a nice day.  *
        *                                                           *
        *************************************************************


0 sent ACK to 0 
now end server 0 ... 
 
**********************************************************************
Job 2 of 3 
**********************************************************************
 
Process 0 of 1 is on cl142.stfx.acenet.ca - thread support 1
initial socket setup ...start
initial socket setup ...done 
now start server 0 ... 

cmd = /usr/bin/ssh clhead /usr/local/qchem/bin/get_hostid 631188781 > /globalscratch/itamblyn/bnl/g297_b3lyp_neut_g03Large_worked/g2g71054/omega540/qchem23900/lic.dat
                  Welcome to Q-Chem
     A Quantum Leap Into The Future Of Chemistry

 Y. Shao, L. Fusti-Molnar, Y. Jung, J. Kussmann, C. Ochsenfeld,
 S. T. Brown, A. T. B. Gilbert, L. V. Slipchenko,S. V. Levchenko,
 D. P. O'Neill, R. A. DiStasio Jr., R. C. Lochan, T. Wang,
 G. J. O. Beran, N. A. Besley, J. M. Herbert, C. Y. Lin,
 T. Van Voorhis, S. H. Chien, A. Sodt, R. P. Steele, 
 V. A. Rassolov, P. E. Maslen, P. P. Korambath, R. D. Adamson,
 B. Austin, J. Baker, E. F. C. Byrd, H. Dachsel, R. J. Doerksen,
 A. Dreuw, B. D. Dunietz, A. D. Dutoi, T. R. Furlani,
 S. R. Gwaltney, A. Heyden, S. Hirata, C.-P. Hsu, G. Kedziora,
 R. Z. Khaliullin, P. Klunzinger, A. M. Lee, M. S. Lee, W. Liang,
 I. Lotan, N. Nair, B. Peters, E. I. Proynov, P. A. Pieniazek, 
 Y. M. Rhee, J. Ritchie, E. Rosta, C. D. Sherrill, 
 A. C. Simmonett, J. E. Subotnik, H. L. Woodcock III,
 W. Zhang, A. T. Bell, A. K. Chakraborty, D. M. Chipman,
 F. J. Keil, A. Warshel, W. J. Hehre, H. F. Schaefer III,
 J. Kong, A. I. Krylov, P. M. W. Gill, M. Head-Gordon,
 Q-Chem, Version 3.1, Q-Chem, Inc., Pittsburgh, PA (2007).

 Additional authors for Version 3.1: 
 Z. Gan, Y. Zhao, N. E. Schultz, D. Truhlar, E. Epifanovsky and M. Oana.

 Additional authors for Version 3.2: 
 R. Baer, B. R. Brooks, D. Casanova, J.-D. Chai, C.-L. Cheng, 
 C. Cramer, D. Crittenden, A. Ghysels, G. Hawkins, E. G. Hohenstein, 
 C. Kelley, W. Kurlancheek, D. Liotard, E. Livshits, P. Manohar, 
 A. Marenich, D. Neuhauser, R. Olson, M. A. Rohrdanz, K. S. Thanthiriwatte, 
 A. J. W. Thom, V. Vanovschi, C. F. Williams, Q. Wu and Z.-Q. You. 


 Intel X86 Linux Version

 Q-chem begins on Fri Apr 15 15:33:40 2011  

 Parallel job on  1  processors
Processing $rem in /usr/local/qchem/config/preferences.

theFileMan(): MAXOPENFILES=974 MAX_SUB_FILE_NUM=16
Maximum size of a physical file is 2.0 GB, maximum size of a tmp-file is 32.0 GB


--------------------------------------------------------------
User input:
--------------------------------------------------------------

$molecule
0,1
S
O,1,SO
O,1,SO,2,OSO

SO=1.46359695
OSO=119.10217046

$end

$comment
neutral
$end

$xc_functional
   X HF 1.0
   X BNL 1.0
   C LYP 1.0
$end

$rem
SYMMETRY_DECOMPOSITION	0
exchange 		general
BASIS                   g3large
omega			540
separate_jk		true
mem_static              760
max_scf_cycles          200
scf_final_print         1
sym_ignore              true
$end

--------------------------------------------------------------
 Writing REM_CC_EA            3
 ----------------------------------------------------
       Standard Nuclear Orientation (Angstroms)
    I     Atom         X            Y            Z
 ----------------------------------------------------
    1      S       0.000000     0.000000     0.000000
    2      O       0.000000     0.000000     1.463597
    3      O       1.278823     0.000000    -0.711847
 ----------------------------------------------------
 Nuclear Repulsion Energy =   105.9800937865 hartrees
 There are       16 alpha and       16 beta electrons
 Requested basis set is G3large
 There are 39 shells and 150 basis functions

Total QAlloc Memory Limit   2000 MB
Mega-Array Size       743 MB
MEM_STATIC part       760 MB

                       Distance Matrix (Angstroms)
             S (  1)   O (  2)
   O (  2)  1.463597
   O (  3)  1.463597  2.523479
 
 A cutoff of  1.0D-08 yielded    717 shell pairs
 There are  10801 function pairs ( 14764 Cartesian)
Evaluating contribution to one-electron hamiltonian from nuclear
 Smallest overlap matrix eigenvalue = 5.33E-04
 Multipole matrices computed through 2nd order

  Scale SEOQF with 1.000000e-01/1.000000e-01/1.000000e-01

 Standard Electronic Orientation quadrupole field applied
 Nucleus-field energy     =    -0.0000000018 hartrees
 Guess from superposition of atomic densities
 Warning:  Energy on first SCF cycle will be non-variational
 A restricted hybrid HF-DFT SCF calculation will be
 performed using Pulay DIIS extrapolation
 Exchange:     1.0000 Hartree-Fock + 1.0000 BNL
 Correlation:  1.0000 LYP
 Using SG-1 standard quadrature grid
 SCF converges when DIIS error is below 1.0E-05
 ---------------------------------------
  Cycle       Energy         DIIS Error
 ---------------------------------------
    1    -546.4594293683      4.36E-02
    2    -545.6175195462      8.41E-03
    3    -545.6085830265      9.63E-03
    4    -545.7737079060      8.73E-04
    5    -545.7755523306      2.35E-04
    6    -545.7760294052      1.48E-04
    7    -545.7761288800      9.68E-05
    8    -545.7761882082      3.34E-05
    9    -545.7762077456      1.12E-05
   10    -545.7762104235      2.89E-06 Convergence criterion met
 ---------------------------------------
 One-Electron    Energy =  -965.6709502002
 Total Coulomb   Energy =   353.7244590989
 Alpha Exchange  Energy =    -4.2660862271
 Beta  Exchange  Energy =    -4.2660862271
 DFT   Exchange  Energy =   -30.0233434555
 DFT Correlation Energy =    -1.2542971974
 Nuclear Repu.   Energy =   105.9800937847
 Nuclear Attr.   Energy = -1509.9044612410
 Kinetic         Energy =   544.2335110409
 SCF time:  CPU 53.43 s  wall 66.66 s
 Final Alpha MO Eigenvalues
            1           2           3           4           5           6
    1 -88.1839741 -18.9260319 -18.9259960  -8.1098648  -6.1553202  -6.1509575
            7           8           9          10          11          12
    1  -6.1465185  -1.3358134  -1.2312296  -0.8143246  -0.6614861  -0.6566098
           13          14          15          16          17          18
    1  -0.6558949  -0.5207236  -0.5169819  -0.4866048  -0.0489516   0.0534987
           19          20          21
    1   0.0690872   0.0742256   0.0805444
 Analysis of SCF Wavefunction
 
 --------------------------------------------------------------
                    Orbital Energies (a.u.)
 --------------------------------------------------------------
 
 Alpha MOs
 -- Occupied --
-88.184 -18.926 -18.926  -8.110  -6.155  -6.151  -6.147  -1.336
 -1.231  -0.814  -0.661  -0.657  -0.656  -0.521  -0.517  -0.487
 -- Virtual --
 -0.049   0.053   0.069   0.074   0.081   0.158   0.194   0.225
  0.229   0.245   0.264   0.268   0.311   0.318   0.335   0.362
  0.399   0.417   0.418   0.451   0.548   0.591   0.716   0.893
  0.918   0.960   0.973   0.985   1.007   1.010   1.046   1.088
  1.106   1.119   1.151   1.156   1.170   1.188   1.214   1.259
  1.344   1.455   1.639   1.644   1.687   1.769   1.800   1.869
  1.915   2.098   2.173   2.203   2.209   2.323   2.337   2.710
  2.728   3.453   3.459   3.474   3.475   3.478   3.587   3.668
  4.522   4.525   4.548   4.673   4.687   4.980   4.984   5.006
  5.037   5.141   5.159   5.162   5.167   5.175   5.210   5.247
  5.287   5.408   5.517   5.641   5.653   5.814   5.847   6.331
  6.553   6.853   6.898   6.942   6.981   7.259   7.264   7.316
  7.394   7.471   7.650   9.306  16.976  17.340  17.747  23.467
 23.527  23.606  23.786  23.884  30.854  30.857  30.882  30.888
 30.906  30.918  30.988  43.675  43.700  43.743  43.784  43.819
 43.868  43.874  43.888  43.909  43.951  45.709  45.714  45.737
 45.756  46.286  46.320  50.073  50.084 189.940
 --------------------------------------------------------------
 
          Ground-State Mulliken Net Atomic Charges

     Atom                 Charge (a.u.)
  ----------------------------------------
      1 S                     0.805100
      2 O                    -0.402636
      3 O                    -0.402465
  ----------------------------------------
  Sum of atomic charges =     0.000000

 -----------------------------------------------------------------
                    Cartesian Multipole Moments
 -----------------------------------------------------------------
    Charge (ESU x 10^10)
                 0.0000
    Dipole Moment (Debye)
         X      -1.7532      Y       0.0000      Z      -1.0309
       Tot       2.0339
    Quadrupole Moments (Debye-Ang)
        XX     -25.3835     XY       0.0002     YY     -21.1057
        XZ       1.4806     YZ       0.0001     ZZ     -27.0324
    Octapole Moments (Debye-Ang^2)
       XXX     -25.0365    XXY       0.0002    XYY      -6.9702
       YYY      -0.0001    XXZ      -2.3726    XYZ       0.0000
       YYZ      -4.0975    XZZ      -8.2667    YZZ       0.0001
       ZZZ     -17.2055
    Hexadecapole Moments (Debye-Ang^3)
      XXXX     -82.9301   XXXY       0.0006   XXYY     -16.2917
      XYYY       0.0002   YYYY     -19.9914   XXXZ      17.0747
      XXYZ       0.0001   XYYZ       5.1196   YYYZ       0.0000
      XXZZ     -33.4491   XYZZ       0.0001   YYZZ     -21.9918
      XZZZ      16.1880   YZZZ       0.0003   ZZZZ    -119.9642
 -----------------------------------------------------------------
 Total job time:  70.13s(wall), 53.61s(cpu) 
 Fri Apr 15 15:34:50 2011

        *************************************************************
        *                                                           *
        *  Thank you very much for using Q-Chem.  Have a nice day.  *
        *                                                           *
        *************************************************************


0 sent ACK to 0 
now end server 0 ... 
 
**********************************************************************
Job 3 of 3 
**********************************************************************
 
Process 0 of 1 is on cl142.stfx.acenet.ca - thread support 1
initial socket setup ...start
initial socket setup ...done 
now start server 0 ... 

cmd = /usr/bin/ssh clhead /usr/local/qchem/bin/get_hostid 679690771 > /globalscratch/itamblyn/bnl/g297_b3lyp_neut_g03Large_worked/g2g71054/omega540/qchem23900/lic.dat
                  Welcome to Q-Chem
     A Quantum Leap Into The Future Of Chemistry

 Y. Shao, L. Fusti-Molnar, Y. Jung, J. Kussmann, C. Ochsenfeld,
 S. T. Brown, A. T. B. Gilbert, L. V. Slipchenko,S. V. Levchenko,
 D. P. O'Neill, R. A. DiStasio Jr., R. C. Lochan, T. Wang,
 G. J. O. Beran, N. A. Besley, J. M. Herbert, C. Y. Lin,
 T. Van Voorhis, S. H. Chien, A. Sodt, R. P. Steele, 
 V. A. Rassolov, P. E. Maslen, P. P. Korambath, R. D. Adamson,
 B. Austin, J. Baker, E. F. C. Byrd, H. Dachsel, R. J. Doerksen,
 A. Dreuw, B. D. Dunietz, A. D. Dutoi, T. R. Furlani,
 S. R. Gwaltney, A. Heyden, S. Hirata, C.-P. Hsu, G. Kedziora,
 R. Z. Khaliullin, P. Klunzinger, A. M. Lee, M. S. Lee, W. Liang,
 I. Lotan, N. Nair, B. Peters, E. I. Proynov, P. A. Pieniazek, 
 Y. M. Rhee, J. Ritchie, E. Rosta, C. D. Sherrill, 
 A. C. Simmonett, J. E. Subotnik, H. L. Woodcock III,
 W. Zhang, A. T. Bell, A. K. Chakraborty, D. M. Chipman,
 F. J. Keil, A. Warshel, W. J. Hehre, H. F. Schaefer III,
 J. Kong, A. I. Krylov, P. M. W. Gill, M. Head-Gordon,
 Q-Chem, Version 3.1, Q-Chem, Inc., Pittsburgh, PA (2007).

 Additional authors for Version 3.1: 
 Z. Gan, Y. Zhao, N. E. Schultz, D. Truhlar, E. Epifanovsky and M. Oana.

 Additional authors for Version 3.2: 
 R. Baer, B. R. Brooks, D. Casanova, J.-D. Chai, C.-L. Cheng, 
 C. Cramer, D. Crittenden, A. Ghysels, G. Hawkins, E. G. Hohenstein, 
 C. Kelley, W. Kurlancheek, D. Liotard, E. Livshits, P. Manohar, 
 A. Marenich, D. Neuhauser, R. Olson, M. A. Rohrdanz, K. S. Thanthiriwatte, 
 A. J. W. Thom, V. Vanovschi, C. F. Williams, Q. Wu and Z.-Q. You. 


 Intel X86 Linux Version

 Q-chem begins on Fri Apr 15 15:34:54 2011  

 Parallel job on  1  processors
Processing $rem in /usr/local/qchem/config/preferences.

theFileMan(): MAXOPENFILES=974 MAX_SUB_FILE_NUM=16
Maximum size of a physical file is 2.0 GB, maximum size of a tmp-file is 32.0 GB


--------------------------------------------------------------
User input:
--------------------------------------------------------------

$molecule
1,2
S
O,1,SO
O,1,SO,2,OSO

SO=1.46359695
OSO=119.10217046

$end

$comment
positive
$end

$xc_functional
   X HF 1.0
   X BNL 1.0
   C LYP 1.0
$end

$rem
SYMMETRY_DECOMPOSITION	0
exchange 		general
BASIS                   g3large
omega			540
separate_jk		true
mem_static              760
max_scf_cycles          200
scf_final_print         1
sym_ignore              true
$end

--------------------------------------------------------------
 Writing REM_CC_EA            3
 ----------------------------------------------------
       Standard Nuclear Orientation (Angstroms)
    I     Atom         X            Y            Z
 ----------------------------------------------------
    1      S       0.000000     0.000000     0.000000
    2      O       0.000000     0.000000     1.463597
    3      O       1.278823     0.000000    -0.711847
 ----------------------------------------------------
 Nuclear Repulsion Energy =   105.9800937865 hartrees
 There are       16 alpha and       15 beta electrons
 Requested basis set is G3large
 There are 39 shells and 150 basis functions

Total QAlloc Memory Limit   2000 MB
Mega-Array Size       743 MB
MEM_STATIC part       760 MB

                       Distance Matrix (Angstroms)
             S (  1)   O (  2)
   O (  2)  1.463597
   O (  3)  1.463597  2.523479
 
 A cutoff of  1.0D-08 yielded    717 shell pairs
 There are  10801 function pairs ( 14764 Cartesian)
Evaluating contribution to one-electron hamiltonian from nuclear
 Smallest overlap matrix eigenvalue = 5.33E-04
 Multipole matrices computed through 2nd order

  Scale SEOQF with 1.000000e-01/1.000000e-01/1.000000e-01

 Standard Electronic Orientation quadrupole field applied
 Nucleus-field energy     =    -0.0000000018 hartrees
 Guess from superposition of atomic densities
 Warning:  Energy on first SCF cycle will be non-variational
 An unrestricted hybrid HF-DFT SCF calculation will be
 performed using Pulay DIIS extrapolation
 Exchange:     1.0000 Hartree-Fock + 1.0000 BNL
 Correlation:  1.0000 LYP
 Using SG-1 standard quadrature grid
 SCF converges when DIIS error is below 1.0E-05
 Warning!  Inaccurate integrated density:
   Number of electrons =    31
   Numerical integral  =    32.000059195192
   Relative error      =     3.2259974038 %
 ---------------------------------------
  Cycle       Energy         DIIS Error
 ---------------------------------------
    1    -546.4594293683      4.36E-02
    2    -545.1178671742      7.88E-03
    3    -545.1709005544      8.04E-03
    4    -545.2892678670      1.62E-03
    5    -545.2944354441      2.46E-04
    6    -545.2951561519      2.15E-04
    7    -545.2953667087      1.11E-04
    8    -545.2955174633      4.61E-05
    9    -545.2955858220      2.04E-05
   10    -545.2956053680      1.31E-05
   11    -545.2956149222      1.12E-05
   12    -545.2956217529      1.08E-05
   13    -545.2956263942      1.09E-05
   14    -545.2956176914      1.05E-05
   15    -545.2955765816      8.40E-06 Convergence criterion met
 ---------------------------------------
 One-Electron    Energy =  -954.8824121104
 Total Coulomb   Energy =   342.9988977573
 Alpha Exchange  Energy =    -4.2985419978
 Beta  Exchange  Energy =    -4.0009132919
 DFT   Exchange  Energy =   -29.8750530927
 DFT Correlation Energy =    -1.2176476308
 Nuclear Repu.   Energy =   105.9800937847
 Nuclear Attr.   Energy = -1498.6801232439
 Kinetic         Energy =   543.7977111335
 <S^2> = 0.7718
 SCF time:  CPU 91.92 s  wall 111.34 s
 Final Alpha MO Eigenvalues
            1           2           3           4           5           6
    1 -88.5362487 -19.2942336 -19.2879688  -8.4612745  -6.5059792  -6.5014655
            7           8           9          10          11          12
    1  -6.5005547  -1.6779995  -1.5774709  -1.1529636  -0.9978486  -0.9904637
           13          14          15          16          17          18
    1  -0.9765763  -0.8540142  -0.8483916  -0.8451379  -0.3637731  -0.1815219
           19          20          21
    1  -0.1551921  -0.1191214  -0.0848214
 Final Beta MO Eigenvalues
            1           2           3           4           5           6
    1 -88.5350574 -19.2816790 -19.2766400  -8.4596409  -6.5047911  -6.5000859
            7           8           9          10          11          12
    1  -6.4976809  -1.6578674  -1.5495993  -1.1026065  -0.9672816  -0.9639083
           13          14          15          16          17          18
    1  -0.9343178  -0.8344287  -0.8042794  -0.4753167  -0.3460640  -0.1708224
           19          20
    1  -0.1291610  -0.1172044
 Analysis of SCF Wavefunction
 
 --------------------------------------------------------------
                    Orbital Energies (a.u.)
 --------------------------------------------------------------
 
 Alpha MOs
 -- Occupied --
-88.536 -19.294 -19.288  -8.461  -6.506  -6.501  -6.501  -1.678
 -1.577  -1.153  -0.998  -0.990  -0.977  -0.854  -0.848  -0.845
 -- Virtual --
 -0.364  -0.182  -0.155  -0.119  -0.085  -0.063  -0.043   0.026
  0.031   0.042   0.049   0.055   0.092   0.104   0.133   0.139
  0.142   0.162   0.186   0.218   0.301   0.310   0.454   0.605
  0.633   0.670   0.687   0.691   0.699   0.734   0.747   0.811
  0.831   0.834   0.879   0.888   0.904   0.916   0.934   0.954
  1.045   1.154   1.342   1.346   1.378   1.466   1.500   1.552
  1.611   1.794   1.867   1.893   1.903   2.004   2.029   2.400
  2.420   3.118   3.126   3.133   3.137   3.139   3.258   3.332
  4.179   4.183   4.212   4.329   4.347   4.649   4.656   4.661
  4.693   4.819   4.828   4.832   4.835   4.840   4.871   4.913
  4.954   5.071   5.179   5.302   5.318   5.459   5.511   5.981
  6.208   6.502   6.554   6.585   6.633   6.913   6.923   6.958
  7.033   7.128   7.302   8.962  16.629  16.989  17.401  23.114
 23.175  23.258  23.436  23.533  30.501  30.504  30.533  30.537
 30.555  30.567  30.636  43.311  43.329  43.374  43.417  43.439
 43.502  43.508  43.521  43.532  43.579  45.349  45.357  45.368
 45.388  45.919  45.954  49.709  49.721 189.588
 
 Beta MOs
 -- Occupied --
-88.535 -19.282 -19.277  -8.460  -6.505  -6.500  -6.498  -1.658
 -1.550  -1.103  -0.967  -0.964  -0.934  -0.834  -0.804
 -- Virtual --
 -0.475  -0.346  -0.171  -0.129  -0.117  -0.085  -0.061  -0.034
  0.031   0.032   0.042   0.050   0.060   0.094   0.106   0.135
  0.138   0.147   0.163   0.188   0.219   0.304   0.332   0.459
  0.613   0.638   0.676   0.687   0.696   0.709   0.741   0.755
  0.814   0.833   0.843   0.886   0.897   0.911   0.922   0.950
  0.973   1.052   1.169   1.354   1.356   1.394   1.470   1.509
  1.574   1.622   1.798   1.875   1.902   1.915   2.021   2.042
  2.412   2.434   3.125   3.133   3.149   3.151   3.151   3.261
  3.342   4.188   4.190   4.216   4.345   4.360   4.663   4.669
  4.689   4.720   4.830   4.847   4.851   4.856   4.863   4.895
  4.933   4.972   5.089   5.197   5.318   5.333   5.489   5.525
  6.002   6.224   6.532   6.577   6.622   6.661   6.938   6.945
  6.995   7.074   7.149   7.333   8.971  16.631  16.993  17.401
 23.118  23.178  23.258  23.437  23.535  30.502  30.505  30.533
 30.538  30.556  30.568  30.638  43.330  43.355  43.398  43.439
 43.473  43.521  43.529  43.544  43.566  43.603  45.358  45.365
 45.386  45.405  45.934  45.968  49.724  49.736 189.590
 --------------------------------------------------------------
 
          Ground-State Mulliken Net Atomic Charges

     Atom                 Charge (a.u.)    Spin (a.u.)
  --------------------------------------------------------
      1 S                     1.131721       0.191452
      2 O                    -0.071946       0.380491
      3 O                    -0.059775       0.428057
  --------------------------------------------------------
  Sum of atomic charges =     1.000000
  Sum of spin   charges =     1.000000

 -----------------------------------------------------------------
                    Cartesian Multipole Moments
 -----------------------------------------------------------------
    Charge (ESU x 10^10)
                 4.8032
    Dipole Moment (Debye)
         X      -0.1558      Y       0.0008      Z      -0.1791
       Tot       0.2374
    Quadrupole Moments (Debye-Ang)
        XX     -18.8196     XY       0.0022     YY     -18.4891
        XZ       0.6242     YZ      -0.0041     ZZ     -19.6937
    Octapole Moments (Debye-Ang^2)
       XXX     -17.4731    XXY       0.0061    XYY      -6.3836
       YYY       0.0009    XXZ      -4.0387    XYZ      -0.0027
       YYZ      -3.7582    XZZ      -5.9020    YZZ      -0.0057
       ZZZ      -9.9758
    Hexadecapole Moments (Debye-Ang^3)
      XXXX     -60.1715   XXXY       0.0139   XXYY     -13.1665
      XYYY       0.0026   YYYY     -14.9171   XXXZ      12.8479
      XXYZ      -0.0040   XYYZ       4.7642   YYYZ      -0.0049
      XXZZ     -26.4558   XYZZ      -0.0042   YYZZ     -18.4923
      XZZZ      15.1579   YZZZ      -0.0122   ZZZZ     -91.9991
 -----------------------------------------------------------------
 Total job time:  113.89s(wall), 92.10s(cpu) 
 Fri Apr 15 15:36:48 2011

        *************************************************************
        *                                                           *
        *  Thank you very much for using Q-Chem.  Have a nice day.  *
        *                                                           *
        *************************************************************


0 sent ACK to 0 
now end server 0 ... 
