Process 0 of 1 is on cl160.stfx.acenet.ca - thread support 1
initial socket setup ...start
initial socket setup ...done 
now start server 0 ... 

cmd = /usr/bin/ssh clhead /usr/local/qchem/bin/get_hostid 1522661130 > /scratch/tmp/4503956.1.medium.q/qchem27263/lic.dat
                  Welcome to Q-Chem
     A Quantum Leap Into The Future Of Chemistry

 Y. Shao, L. Fusti-Molnar, Y. Jung, J. Kussmann, C. Ochsenfeld,
 S. T. Brown, A. T. B. Gilbert, L. V. Slipchenko,S. V. Levchenko,
 D. P. O'Neill, R. A. DiStasio Jr., R. C. Lochan, T. Wang,
 G. J. O. Beran, N. A. Besley, J. M. Herbert, C. Y. Lin,
 T. Van Voorhis, S. H. Chien, A. Sodt, R. P. Steele, 
 V. A. Rassolov, P. E. Maslen, P. P. Korambath, R. D. Adamson,
 B. Austin, J. Baker, E. F. C. Byrd, H. Dachsel, R. J. Doerksen,
 A. Dreuw, B. D. Dunietz, A. D. Dutoi, T. R. Furlani,
 S. R. Gwaltney, A. Heyden, S. Hirata, C.-P. Hsu, G. Kedziora,
 R. Z. Khaliullin, P. Klunzinger, A. M. Lee, M. S. Lee, W. Liang,
 I. Lotan, N. Nair, B. Peters, E. I. Proynov, P. A. Pieniazek, 
 Y. M. Rhee, J. Ritchie, E. Rosta, C. D. Sherrill, 
 A. C. Simmonett, J. E. Subotnik, H. L. Woodcock III,
 W. Zhang, A. T. Bell, A. K. Chakraborty, D. M. Chipman,
 F. J. Keil, A. Warshel, W. J. Hehre, H. F. Schaefer III,
 J. Kong, A. I. Krylov, P. M. W. Gill, M. Head-Gordon,
 Q-Chem, Version 3.1, Q-Chem, Inc., Pittsburgh, PA (2007).

 Additional authors for Version 3.1: 
 Z. Gan, Y. Zhao, N. E. Schultz, D. Truhlar, E. Epifanovsky and M. Oana.

 Additional authors for Version 3.2: 
 R. Baer, B. R. Brooks, D. Casanova, J.-D. Chai, C.-L. Cheng, 
 C. Cramer, D. Crittenden, A. Ghysels, G. Hawkins, E. G. Hohenstein, 
 C. Kelley, W. Kurlancheek, D. Liotard, E. Livshits, P. Manohar, 
 A. Marenich, D. Neuhauser, R. Olson, M. A. Rohrdanz, K. S. Thanthiriwatte, 
 A. J. W. Thom, V. Vanovschi, C. F. Williams, Q. Wu and Z.-Q. You. 


 Intel X86 Linux Version

 Q-chem begins on Sun Apr 17 21:32:16 2011  

 Parallel job on  1  processors
Processing $rem in /usr/local/qchem/config/preferences.

theFileMan(): MAXOPENFILES=974 MAX_SUB_FILE_NUM=16
Maximum size of a physical file is 2.0 GB, maximum size of a tmp-file is 32.0 GB


--------------------------------------------------------------
User input:
--------------------------------------------------------------

$molecule
0,1
O
C,1,RA
X,2,1.,1,A
O,2,RB,3,A,1,180.,0
H,1,R1,2,A1,3,0.,0
H,2,R4,1,A4,4,180.,0

RA=1.34724842
RB=1.20472567
R1=0.97740415
R4=1.09964234
A=62.60226564
A1=106.64234264
A4=109.35129373

$end

$comment
neutral
$end

$xc_functional
   X HF 1.0
   X BNL 1.0
   C LYP 1.0
$end

$rem
SYMMETRY_DECOMPOSITION	0
exchange 		general
BASIS                   g3large
omega			440 
JOBTYPE                 opt
separate_jk		true
mem_static              760
max_scf_cycles          200
scf_final_print         1
sym_ignore              true
$end


--------------------------------------------------------------
 Writing REM_CC_EA            5
 ----------------------------------------------------
       Standard Nuclear Orientation (Angstroms)
    I     Atom         X            Y            Z
 ----------------------------------------------------
    1      O       0.000000     0.000000     0.000000
    2      C       0.000000     0.000000     1.347248
    3      O       0.984381     0.000000     2.041769
    4      H       0.936462     0.000000    -0.279925
    5      H      -1.037518     0.000000     1.711625
 ----------------------------------------------------
 Nuclear Repulsion Energy =    69.9821826899 hartrees
 There are       12 alpha and       12 beta electrons
 Requested basis set is G3large
 There are 42 shells and 146 basis functions

Total QAlloc Memory Limit   2000 MB
Mega-Array Size       743 MB
MEM_STATIC part       760 MB
 A cutoff of  1.0D-11 yielded    874 shell pairs
 There are  10606 function pairs ( 13431 Cartesian)
Evaluating contribution to one-electron hamiltonian from nuclear
 Smallest overlap matrix eigenvalue = 7.83E-04
 Multipole matrices computed through 2nd order

  Scale SEOQF with 1.000000e-01/1.000000e-01/1.000000e-01

 Standard Electronic Orientation quadrupole field applied
 Nucleus-field energy     =    -0.0000000047 hartrees
 Guess from superposition of atomic densities
 Warning:  Energy on first SCF cycle will be non-variational
 A restricted hybrid HF-DFT SCF calculation will be
 performed using Pulay DIIS extrapolation
 Exchange:     1.0000 Hartree-Fock + 1.0000 BNL
 Correlation:  1.0000 LYP
 Using SG-1 standard quadrature grid
 SCF converges when DIIS error is below 1.0E-08
 ---------------------------------------
  Cycle       Energy         DIIS Error
 ---------------------------------------
    1    -188.4757818455      3.94E-02
    2    -187.9530935201      7.04E-03
    3    -187.9445882768      8.39E-03
    4    -188.0606375360      9.08E-04
    5    -188.0618277342      6.43E-04
    6    -188.0626290431      1.21E-04
    7    -188.0627093465      3.23E-05
    8    -188.0627220746      1.18E-05
    9    -188.0627239921      4.77E-06
   10    -188.0627242669      1.60E-06
   11    -188.0627243359      4.39E-07
   12    -188.0627242962      1.02E-07
   13    -188.0627243186      2.04E-08
   14    -188.0627243188      5.14E-09 Convergence criterion met
 ---------------------------------------
 One-Electron    Energy =  -397.5452356528
 Total Coulomb   Energy =   160.9585785584
 Alpha Exchange  Energy =    -2.6428145051
 Beta  Exchange  Energy =    -2.6428145051
 DFT   Exchange  Energy =   -15.3271311856
 DFT Correlation Energy =    -0.8454897137
 Nuclear Repu.   Energy =    69.9821826851
 Nuclear Attr.   Energy =  -584.8011305307
 Kinetic         Energy =   187.2558948780
 SCF time:  CPU 68.82 s  wall 74.68 s
 Final Alpha MO Eigenvalues
            1           2           3           4           5           6
    1 -18.8760180 -18.8212579 -10.1550973  -1.2699930  -1.1764462  -0.8193723
            7           8           9          10          11          12
    1  -0.6720828  -0.6383093  -0.6083420  -0.5509579  -0.4742311  -0.4324870
           13          14          15          16          17
    1   0.0354015   0.0447156   0.0676478   0.0915028   0.1049982
 Analysis of SCF Wavefunction
 
 --------------------------------------------------------------
                    Orbital Energies (a.u.)
 --------------------------------------------------------------
 
 Alpha MOs
 -- Occupied --
-18.876 -18.821 -10.155  -1.270  -1.176  -0.819  -0.672  -0.638
 -0.608  -0.551  -0.474  -0.432
 -- Virtual --
  0.035   0.045   0.068   0.092   0.105   0.118   0.148   0.197
  0.215   0.238   0.249   0.284   0.291   0.314   0.340   0.353
  0.358   0.409   0.497   0.584   0.590   0.594   0.662   0.708
  0.725   0.787   0.843   0.863   0.929   1.047   1.072   1.113
  1.129   1.152   1.161   1.184   1.196   1.214   1.381   1.458
  1.491   1.558   1.612   1.667   1.728   1.825   1.839   2.036
  2.140   2.147   2.301   2.380   2.466   2.564   2.725   2.736
  2.885   3.002   3.086   3.106   3.237   3.289   3.296   3.418
  3.450   3.554   3.601   3.605   3.742   3.777   3.811   4.011
  4.176   4.221   4.298   4.458   4.973   5.027   5.045   5.086
  5.149   5.185   5.223   5.238   5.357   5.497   5.508   5.591
  5.592   5.887   5.967   6.032   6.394   6.596   6.880   6.900
  6.956   7.000   7.116   7.202   7.226   7.233   7.297   7.535
  7.628   7.720   7.745  24.820  27.275  28.115  28.229  40.841
 40.969  41.091  41.162  41.308  43.693  43.734  43.757  43.765
 43.808  43.819  43.863  43.882  43.941  44.004  45.694  45.815
 45.895  46.081  46.425  46.722  50.098  50.326
 --------------------------------------------------------------
 
          Ground-State Mulliken Net Atomic Charges

     Atom                 Charge (a.u.)
  ----------------------------------------
      1 O                    -0.257434
      2 C                     0.157082
      3 O                    -0.348395
      4 H                     0.299471
      5 H                     0.149277
  ----------------------------------------
  Sum of atomic charges =     0.000000

 -----------------------------------------------------------------
                    Cartesian Multipole Moments
 -----------------------------------------------------------------
    Charge (ESU x 10^10)
                 0.0000
    Dipole Moment (Debye)
         X      -0.8187      Y       0.0000      Z      -1.3659
       Tot       1.5925
    Quadrupole Moments (Debye-Ang)
        XX     -17.4269     XY       0.0000     YY     -17.4590
        XZ      -6.2541     YZ       0.0000     ZZ     -21.9421
    Octapole Moments (Debye-Ang^2)
       XXX     -18.1176    XXY       0.0000    XYY      -5.2385
       YYY       0.0000    XXZ     -23.3856    XYZ       0.0000
       YYZ     -18.9503    XZZ     -16.2089    YZZ       0.0000
       ZZZ     -72.1082
    Hexadecapole Moments (Debye-Ang^3)
      XXXX     -57.9595   XXXY       0.0000   XXYY     -12.2512
      XYYY       0.0000   YYYY     -15.5728   XXXZ     -38.6172
      XXYZ       0.0000   XYYZ     -10.2036   YYYZ       0.0000
      XXZZ     -53.7292   XYZZ       0.0000   YYZZ     -40.0080
      XZZZ     -53.9182   YZZZ       0.0000   ZZZZ    -262.4846
 -----------------------------------------------------------------
 Calculating analytic gradient of the SCF energy
 Gradient of AOints
            1           2           3           4           5
    1   4.4219408   6.7986804 -11.2244906  -3.6153564   3.6192258
    2   0.0000000   0.0000002   0.0000000  -0.0000000  -0.0000002
    3  10.2258317  -0.4346783 -10.2553174   1.9323697  -1.4682057
 Gradient of XC Energy
            1           2           3           4           5
    1  -0.1990440  -0.1951676   0.3268529   0.2120116  -0.1446529
    2  -0.0000000  -0.0000000   0.0000000   0.0000000   0.0000000
    3  -0.1863761  -0.0336846   0.2432896  -0.0774640   0.0542350
 Gradient of SCF Energy
            1           2           3           4           5
    1  -0.0089538  -0.0206436   0.0253555   0.0026683   0.0015736
    2  -0.0000000   0.0000000   0.0000000   0.0000000   0.0000000
    3  -0.0220401   0.0015973   0.0218952   0.0014618  -0.0029143
 Max gradient component =       2.536E-02
 RMS gradient           =       1.194E-02
 Gradient time:  CPU 24.00 s  wall 24.37 s
 Geometry Optimization Parameters
   NAtoms,    NIC,     NZ,  NCons,   NDum,   NFix, NCnnct, MaxDiis
        5      20       6       0       0       0       0       0


** GEOMETRY OPTIMIZATION IN DELOCALIZED INTERNAL COORDINATES **
   Searching for a Minimum

   Optimization Cycle:   1

                       Coordinates (Angstroms)
     ATOM              X           Y           Z
    1  O           0.000000    0.000000    0.000000
    2  C           0.000000    0.000000    1.347248
    3  O           0.984381    0.000000    2.041769
    4  H           0.936462    0.000000   -0.279925
    5  H          -1.037518    0.000000    1.711625
   Point Group: c1    Number of degrees of freedom:   9


   Energy is   -188.062724319


 Attempting to Generate Delocalized Internal Coordinates

  7 Hessian modes will be used to form the next step
  Hessian Eigenvalues:
     0.160000    0.160000    0.220000    0.337217    0.518923    0.556110
     1.024840

 Minimum Search - Taking Simple RFO Step
 Searching for Lamda that Minimizes Along All modes
 Value Taken    Lamda =  -0.00231537
 Step Taken.  Stepsize is  0.069053

                             Maximum     Tolerance    Cnvgd?
         Gradient           0.031533      0.000300      NO
         Displacement       0.051000      0.001200      NO
         Energy change     *********      0.000001      NO


 New Cartesian Coordinates Obtained by Inverse Iteration

 Displacement from previous Coordinates is:  0.076732
 Writing REM_CC_EA            5
 ----------------------------------------------------
       Standard Nuclear Orientation (Angstroms)
    I     Atom         X            Y            Z
 ----------------------------------------------------
    1      O       0.012323     0.000000     0.015281
    2      C      -0.005976     0.000000     1.342899
    3      O       0.974817     0.000000     2.012463
    4      H       0.943645     0.000000    -0.274080
    5      H      -1.041484     0.000000     1.724155
 ----------------------------------------------------
 Nuclear Repulsion Energy =    70.9333981815 hartrees
 There are       12 alpha and       12 beta electrons
 Applying Cartesian multipole field
    Component          Value
    ---------          -----
     (2,0,0)        1.00000E-11
     (0,2,0)        2.00000E-11
     (0,0,2)       -3.00000E-11
 Nucleus-field energy     =    -0.0000000046 hartrees
 Requested basis set is G3large
 There are 42 shells and 146 basis functions
 A cutoff of  1.0D-11 yielded    876 shell pairs
 There are  10616 function pairs ( 13443 Cartesian)
Evaluating contribution to one-electron hamiltonian from nuclear
 Smallest overlap matrix eigenvalue = 7.24E-04
 Multipole matrices computed through 2nd order
 Guess MOs from SCF MO coefficient file
Reading MOs from coefficient file
Reading MOs from coefficient file
 A restricted hybrid HF-DFT SCF calculation will be
 performed using Pulay DIIS extrapolation
 Exchange:     1.0000 Hartree-Fock + 1.0000 BNL
 Correlation:  1.0000 LYP
 Using SG-1 standard quadrature grid
 SCF converges when DIIS error is below 1.0E-08
 ---------------------------------------
  Cycle       Energy         DIIS Error
 ---------------------------------------
    1    -188.0677893740      1.39E-03
    2    -188.0637608799      1.81E-04
    3    -188.0637878690      1.53E-04
    4    -188.0638240090      4.14E-05
    5    -188.0638269534      1.11E-05
    6    -188.0638272322      5.55E-06
    7    -188.0638272974      1.18E-06
    8    -188.0638273405      2.20E-07
    9    -188.0638273335      4.59E-08
   10    -188.0638273385      1.22E-08
   11    -188.0638272846      3.46E-09 Convergence criterion met
 ---------------------------------------
 One-Electron    Energy =  -399.4261533471
 Total Coulomb   Energy =   161.9174074228
 Alpha Exchange  Energy =    -2.6448394121
 Beta  Exchange  Energy =    -2.6448394121
 DFT   Exchange  Energy =   -15.3518367729
 DFT Correlation Energy =    -0.8469639403
 Nuclear Repu.   Energy =    70.9333981768
 Nuclear Attr.   Energy =  -586.8007178602
 Kinetic         Energy =   187.3745645131
 SCF time:  CPU 52.95 s  wall 56.77 s
 Final Alpha MO Eigenvalues
            1           2           3           4           5           6
    1 -18.8730384 -18.8163383 -10.1495207  -1.2780130  -1.1790643  -0.8210641
            7           8           9          10          11          12
    1  -0.6775400  -0.6364274  -0.6139661  -0.5485705  -0.4739162  -0.4307797
           13          14          15          16          17
    1   0.0358989   0.0444763   0.0720120   0.0916156   0.1076642
 Analysis of SCF Wavefunction
 
 --------------------------------------------------------------
                    Orbital Energies (a.u.)
 --------------------------------------------------------------
 
 Alpha MOs
 -- Occupied --
-18.873 -18.816 -10.150  -1.278  -1.179  -0.821  -0.678  -0.636
 -0.614  -0.549  -0.474  -0.431
 -- Virtual --
  0.036   0.044   0.072   0.092   0.108   0.118   0.148   0.199
  0.216   0.239   0.249   0.282   0.291   0.316   0.341   0.355
  0.360   0.423   0.505   0.584   0.590   0.606   0.664   0.716
  0.732   0.786   0.847   0.864   0.934   1.045   1.082   1.113
  1.130   1.150   1.161   1.179   1.200   1.216   1.385   1.461
  1.492   1.555   1.623   1.674   1.739   1.847   1.851   2.045
  2.149   2.153   2.304   2.393   2.471   2.571   2.742   2.750
  2.884   3.009   3.081   3.109   3.235   3.286   3.304   3.436
  3.461   3.552   3.614   3.620   3.767   3.784   3.814   4.037
  4.185   4.219   4.322   4.474   4.979   5.023   5.053   5.096
  5.149   5.190   5.227   5.243   5.368   5.510   5.544   5.591
  5.620   5.968   6.009   6.078   6.449   6.648   6.883   6.935
  6.987   7.004   7.166   7.215   7.221   7.261   7.301   7.536
  7.646   7.717   7.776  24.890  27.283  28.128  28.272  40.851
 40.990  41.101  41.179  41.319  43.700  43.738  43.761  43.771
 43.815  43.826  43.868  43.888  43.953  44.018  45.705  45.832
 45.923  46.092  46.463  46.756  50.122  50.367
 --------------------------------------------------------------
 
          Ground-State Mulliken Net Atomic Charges

     Atom                 Charge (a.u.)
  ----------------------------------------
      1 O                    -0.255061
      2 C                     0.159458
      3 O                    -0.354150
      4 H                     0.301806
      5 H                     0.147947
  ----------------------------------------
  Sum of atomic charges =     0.000000

 -----------------------------------------------------------------
                    Cartesian Multipole Moments
 -----------------------------------------------------------------
    Charge (ESU x 10^10)
                 0.0000
    Dipole Moment (Debye)
         X      -0.8139      Y       0.0000      Z      -1.3479
       Tot       1.5746
    Quadrupole Moments (Debye-Ang)
        XX     -17.3566     XY       0.0000     YY     -17.3854
        XZ      -6.2422     YZ       0.0000     ZZ     -21.7452
    Octapole Moments (Debye-Ang^2)
       XXX     -17.8803    XXY       0.0000    XYY      -5.1906
       YYY       0.0000    XXZ     -23.2066    XYZ       0.0000
       YYZ     -18.7935    XZZ     -16.0969    YZZ       0.0000
       ZZZ     -71.1547
    Hexadecapole Moments (Debye-Ang^3)
      XXXX     -57.2219   XXXY       0.0000   XXYY     -12.1220
      XYYY       0.0000   YYYY     -15.4341   XXXZ     -37.4467
      XXYZ       0.0000   XYYZ      -9.8413   YYYZ       0.0000
      XXZZ     -52.6702   XYZZ       0.0000   YYZZ     -39.1865
      XZZZ     -52.6659   YZZZ       0.0000   ZZZZ    -256.2778
 -----------------------------------------------------------------
 Calculating analytic gradient of the SCF energy
 Gradient of AOints
            1           2           3           4           5
    1   4.1824191   7.2289016 -11.3887690  -3.6226242   3.6000724
    2   0.0000000  -0.0000000  -0.0000000  -0.0000000   0.0000000
    3  10.2789727  -0.6035437 -10.1489827   2.0390010  -1.5654473
 Gradient of XC Energy
            1           2           3           4           5
    1  -0.1893579  -0.2119422   0.3322621   0.2119496  -0.1429117
    2  -0.0000000   0.0000000   0.0000000   0.0000000  -0.0000000
    3  -0.1847000  -0.0277235   0.2367023  -0.0818596   0.0575808
 Gradient of SCF Energy
            1           2           3           4           5
    1   0.0017515  -0.0030330   0.0000019   0.0009438   0.0003357
    2  -0.0000000   0.0000000  -0.0000000   0.0000000  -0.0000000
    3  -0.0019593   0.0061997  -0.0035245  -0.0004803  -0.0002356
 Max gradient component =       6.200E-03
 RMS gradient           =       2.133E-03
 Gradient time:  CPU 26.17 s  wall 26.64 s
 Geometry Optimization Parameters
   NAtoms,    NIC,     NZ,  NCons,   NDum,   NFix, NCnnct, MaxDiis
        5      20       6       0       0       0       0       0

 Cartesian Hessian Update
 Hessian Updated using BFGS Update


** GEOMETRY OPTIMIZATION IN DELOCALIZED INTERNAL COORDINATES **
   Searching for a Minimum

   Optimization Cycle:   2

                       Coordinates (Angstroms)
     ATOM              X           Y           Z
    1  O           0.012323    0.000000    0.015281
    2  C          -0.005976    0.000000    1.342899
    3  O           0.974817    0.000000    2.012463
    4  H           0.943645    0.000000   -0.274080
    5  H          -1.041484    0.000000    1.724155
   Point Group: c1    Number of degrees of freedom:   9


   Energy is   -188.063827285

 Hessian Updated using BFGS Update

  7 Hessian modes will be used to form the next step
  Hessian Eigenvalues:
     0.158494    0.160228    0.254156    0.336238    0.500023    0.525054
     1.058645

 Minimum Search - Taking Simple RFO Step
 Searching for Lamda that Minimizes Along All modes
 Value Taken    Lamda =  -0.00012638
 Step Taken.  Stepsize is  0.021625

                             Maximum     Tolerance    Cnvgd?
         Gradient           0.004000      0.000300      NO
         Displacement       0.014310      0.001200      NO
         Energy change     -0.001103      0.000001      NO


 New Cartesian Coordinates Obtained by Inverse Iteration

 Displacement from previous Coordinates is:  0.025300
 Writing REM_CC_EA            5
 ----------------------------------------------------
       Standard Nuclear Orientation (Angstroms)
    I     Atom         X            Y            Z
 ----------------------------------------------------
    1      O       0.010329     0.000000     0.016008
    2      C      -0.000847     0.000000     1.340509
    3      O       0.972323     0.000000     2.021259
    4      H       0.939243     0.000000    -0.277353
    5      H      -1.037723     0.000000     1.720295
 ----------------------------------------------------
 Nuclear Repulsion Energy =    70.9385056221 hartrees
 There are       12 alpha and       12 beta electrons
 Applying Cartesian multipole field
    Component          Value
    ---------          -----
     (2,0,0)        1.00000E-11
     (0,2,0)        2.00000E-11
     (0,0,2)       -3.00000E-11
 Nucleus-field energy     =    -0.0000000046 hartrees
 Requested basis set is G3large
 There are 42 shells and 146 basis functions
 A cutoff of  1.0D-11 yielded    874 shell pairs
 There are  10606 function pairs ( 13431 Cartesian)
Evaluating contribution to one-electron hamiltonian from nuclear
 Smallest overlap matrix eigenvalue = 7.28E-04
 Multipole matrices computed through 2nd order
 Guess MOs from SCF MO coefficient file
Reading MOs from coefficient file
Reading MOs from coefficient file
 A restricted hybrid HF-DFT SCF calculation will be
 performed using Pulay DIIS extrapolation
 Exchange:     1.0000 Hartree-Fock + 1.0000 BNL
 Correlation:  1.0000 LYP
 Using SG-1 standard quadrature grid
 SCF converges when DIIS error is below 1.0E-08
 ---------------------------------------
  Cycle       Energy         DIIS Error
 ---------------------------------------
    1    -188.0639539199      4.45E-04
    2    -188.0638759661      6.15E-05
    3    -188.0638811497      5.24E-05
    4    -188.0638854391      1.15E-05
    5    -188.0638856842      4.67E-06
    6    -188.0638857229      2.24E-06
    7    -188.0638857162      2.22E-07
    8    -188.0638857363      6.45E-08
    9    -188.0638857254      2.10E-08
   10    -188.0638857272      5.68E-09 Convergence criterion met
 ---------------------------------------
 One-Electron    Energy =  -399.4225264208
 Total Coulomb   Energy =   161.9101414797
 Alpha Exchange  Energy =    -2.6449083440
 Beta  Exchange  Energy =    -2.6449083440
 DFT   Exchange  Energy =   -15.3531666172
 DFT Correlation Energy =    -0.8470230985
 Nuclear Repu.   Energy =    70.9385056175
 Nuclear Attr.   Energy =  -586.8037247236
 Kinetic         Energy =   187.3811983028
 SCF time:  CPU 48.31 s  wall 51.73 s
 Final Alpha MO Eigenvalues
            1           2           3           4           5           6
    1 -18.8744762 -18.8162988 -10.1492337  -1.2789742  -1.1805365  -0.8220478
            7           8           9          10          11          12
    1  -0.6774955  -0.6370460  -0.6148551  -0.5484974  -0.4746862  -0.4306435
           13          14          15          16          17
    1   0.0355489   0.0447608   0.0727314   0.0916879   0.1078624
 Analysis of SCF Wavefunction
 
 --------------------------------------------------------------
                    Orbital Energies (a.u.)
 --------------------------------------------------------------
 
 Alpha MOs
 -- Occupied --
-18.874 -18.816 -10.149  -1.279  -1.181  -0.822  -0.677  -0.637
 -0.615  -0.548  -0.475  -0.431
 -- Virtual --
  0.036   0.045   0.073   0.092   0.108   0.118   0.148   0.199
  0.216   0.239   0.249   0.282   0.292   0.315   0.342   0.354
  0.360   0.425   0.505   0.584   0.591   0.603   0.664   0.713
  0.734   0.787   0.847   0.865   0.936   1.045   1.081   1.112
  1.132   1.150   1.161   1.181   1.197   1.216   1.389   1.460
  1.494   1.556   1.620   1.673   1.740   1.847   1.848   2.049
  2.149   2.157   2.302   2.396   2.476   2.571   2.742   2.750
  2.886   3.007   3.082   3.109   3.235   3.287   3.304   3.436
  3.463   3.555   3.616   3.622   3.770   3.784   3.810   4.036
  4.186   4.218   4.330   4.472   4.978   5.023   5.052   5.095
  5.149   5.190   5.232   5.241   5.370   5.516   5.542   5.597
  5.615   5.952   6.018   6.090   6.456   6.660   6.882   6.933
  6.984   7.004   7.172   7.215   7.224   7.276   7.301   7.533
  7.644   7.725   7.773  24.894  27.285  28.128  28.275  40.851
 40.990  41.101  41.180  41.320  43.700  43.737  43.761  43.769
 43.814  43.826  43.869  43.886  43.953  44.018  45.705  45.833
 45.921  46.096  46.467  46.762  50.124  50.368
 --------------------------------------------------------------
 
          Ground-State Mulliken Net Atomic Charges

     Atom                 Charge (a.u.)
  ----------------------------------------
      1 O                    -0.249464
      2 C                     0.156529
      3 O                    -0.353468
      4 H                     0.300325
      5 H                     0.146078
  ----------------------------------------
  Sum of atomic charges =     0.000000

 -----------------------------------------------------------------
                    Cartesian Multipole Moments
 -----------------------------------------------------------------
    Charge (ESU x 10^10)
                 0.0000
    Dipole Moment (Debye)
         X      -0.7898      Y       0.0000      Z      -1.4056
       Tot       1.6123
    Quadrupole Moments (Debye-Ang)
        XX     -17.3939     XY       0.0000     YY     -17.3802
        XZ      -6.2032     YZ       0.0000     ZZ     -21.8564
    Octapole Moments (Debye-Ang^2)
       XXX     -17.8841    XXY       0.0000    XYY      -5.1866
       YYY       0.0000    XXZ     -23.3075    XYZ       0.0000
       YYZ     -18.8467    XZZ     -16.0463    YZZ       0.0000
       ZZZ     -71.5813
    Hexadecapole Moments (Debye-Ang^3)
      XXXX     -57.1740   XXXY       0.0000   XXYY     -12.0983
      XYYY       0.0000   YYYY     -15.4268   XXXZ     -37.5835
      XXYZ       0.0000   XYYZ      -9.8913   YYYZ       0.0000
      XXZZ     -52.9251   XYZZ       0.0000   YYZZ     -39.3626
      XZZZ     -52.7651   YZZZ       0.0000   ZZZZ    -257.9368
 -----------------------------------------------------------------
 Calculating analytic gradient of the SCF energy
 Gradient of AOints
            1           2           3           4           5
    1   4.2596042   7.0520658 -11.2853853  -3.6164140   3.5901293
    2   0.0000000  -0.0000000   0.0000000   0.0000000  -0.0000000
    3  10.2755998  -0.4942800 -10.2858274   2.0558217  -1.5513142
 Gradient of XC Energy
            1           2           3           4           5
    1  -0.1924668  -0.2059825   0.3290143   0.2119254  -0.1424904
    2  -0.0000000   0.0000000  -0.0000000  -0.0000000   0.0000000
    3  -0.1851510  -0.0309944   0.2419972  -0.0828867   0.0570349
 Gradient of SCF Energy
            1           2           3           4           5
    1  -0.0003689   0.0016600  -0.0012870  -0.0002377   0.0002336
    2   0.0000000   0.0000000  -0.0000000   0.0000000  -0.0000000
    3  -0.0007292   0.0010985  -0.0006448   0.0005187  -0.0002431
 Max gradient component =       1.660E-03
 RMS gradient           =       6.900E-04
 Gradient time:  CPU 24.18 s  wall 24.61 s
 Geometry Optimization Parameters
   NAtoms,    NIC,     NZ,  NCons,   NDum,   NFix, NCnnct, MaxDiis
        5      20       6       0       0       0       0       0

 Cartesian Hessian Update
 Hessian Updated using BFGS Update


** GEOMETRY OPTIMIZATION IN DELOCALIZED INTERNAL COORDINATES **
   Searching for a Minimum

   Optimization Cycle:   3

                       Coordinates (Angstroms)
     ATOM              X           Y           Z
    1  O           0.010329    0.000000    0.016008
    2  C          -0.000847    0.000000    1.340509
    3  O           0.972323    0.000000    2.021259
    4  H           0.939243    0.000000   -0.277353
    5  H          -1.037723    0.000000    1.720295
   Point Group: c1    Number of degrees of freedom:   9


   Energy is   -188.063885727

 Hessian Updated using BFGS Update

  7 Hessian modes will be used to form the next step
  Hessian Eigenvalues:
     0.150326    0.160389    0.293282    0.340159    0.498641    0.529129
     1.020577

 Minimum Search - Taking Simple RFO Step
 Searching for Lamda that Minimizes Along All modes
 Value Taken    Lamda =  -0.00000677
 Step Taken.  Stepsize is  0.005006

                             Maximum     Tolerance    Cnvgd?
         Gradient           0.001233      0.000300      NO
         Displacement       0.002850      0.001200      NO
         Energy change     -0.000058      0.000001      NO


 New Cartesian Coordinates Obtained by Inverse Iteration

 Displacement from previous Coordinates is:  0.006115
 Writing REM_CC_EA            5
 ----------------------------------------------------
       Standard Nuclear Orientation (Angstroms)
    I     Atom         X            Y            Z
 ----------------------------------------------------
    1      O       0.011306     0.000000     0.016589
    2      C      -0.001294     0.000000     1.340810
    3      O       0.972294     0.000000     2.022281
    4      H       0.939551     0.000000    -0.279930
    5      H      -1.038532     0.000000     1.720967
 ----------------------------------------------------
 Nuclear Repulsion Energy =    70.9187822365 hartrees
 There are       12 alpha and       12 beta electrons
 Applying Cartesian multipole field
    Component          Value
    ---------          -----
     (2,0,0)        1.00000E-11
     (0,2,0)        2.00000E-11
     (0,0,2)       -3.00000E-11
 Nucleus-field energy     =    -0.0000000046 hartrees
 Requested basis set is G3large
 There are 42 shells and 146 basis functions
 A cutoff of  1.0D-11 yielded    874 shell pairs
 There are  10606 function pairs ( 13431 Cartesian)
Evaluating contribution to one-electron hamiltonian from nuclear
 Smallest overlap matrix eigenvalue = 7.30E-04
 Multipole matrices computed through 2nd order
 Guess MOs from SCF MO coefficient file
Reading MOs from coefficient file
Reading MOs from coefficient file
 A restricted hybrid HF-DFT SCF calculation will be
 performed using Pulay DIIS extrapolation
 Exchange:     1.0000 Hartree-Fock + 1.0000 BNL
 Correlation:  1.0000 LYP
 Using SG-1 standard quadrature grid
 SCF converges when DIIS error is below 1.0E-08
 ---------------------------------------
  Cycle       Energy         DIIS Error
 ---------------------------------------
    1    -188.0636171231      5.96E-05
    2    -188.0638890583      1.05E-05
    3    -188.0638891793      9.85E-06
    4    -188.0638893391      2.15E-06
    5    -188.0638893100      7.14E-07
    6    -188.0638893253      2.75E-07
    7    -188.0638893306      8.12E-08
    8    -188.0638893249      1.60E-08
    9    -188.0638893273      3.39E-09 Convergence criterion met
 ---------------------------------------
 One-Electron    Energy =  -399.3866839823
 Total Coulomb   Energy =   161.8930845840
 Alpha Exchange  Energy =    -2.6448460716
 Beta  Exchange  Energy =    -2.6448460716
 DFT   Exchange  Energy =   -15.3523973540
 DFT Correlation Energy =    -0.8469826636
 Nuclear Repu.   Energy =    70.9187822319
 Nuclear Attr.   Energy =  -586.7634377505
 Kinetic         Energy =   187.3767537682
 SCF time:  CPU 42.89 s  wall 45.82 s
 Final Alpha MO Eigenvalues
            1           2           3           4           5           6
    1 -18.8745150 -18.8161221 -10.1493487  -1.2787297  -1.1801233  -0.8222390
            7           8           9          10          11          12
    1  -0.6775881  -0.6368185  -0.6146900  -0.5481107  -0.4744867  -0.4304673
           13          14          15          16          17
    1   0.0354815   0.0447281   0.0726654   0.0917029   0.1078156
 Analysis of SCF Wavefunction
 
 --------------------------------------------------------------
                    Orbital Energies (a.u.)
 --------------------------------------------------------------
 
 Alpha MOs
 -- Occupied --
-18.875 -18.816 -10.149  -1.279  -1.180  -0.822  -0.678  -0.637
 -0.615  -0.548  -0.474  -0.430
 -- Virtual --
  0.035   0.045   0.073   0.092   0.108   0.118   0.148   0.199
  0.216   0.239   0.249   0.282   0.292   0.315   0.342   0.354
  0.360   0.425   0.505   0.584   0.591   0.604   0.664   0.713
  0.734   0.786   0.847   0.864   0.937   1.045   1.081   1.112
  1.132   1.150   1.161   1.182   1.197   1.216   1.389   1.459
  1.494   1.555   1.620   1.673   1.740   1.847   1.847   2.049
  2.149   2.156   2.301   2.396   2.476   2.571   2.742   2.751
  2.884   3.008   3.082   3.109   3.235   3.287   3.304   3.436
  3.463   3.555   3.616   3.621   3.770   3.784   3.810   4.035
  4.184   4.217   4.330   4.472   4.978   5.023   5.052   5.094
  5.149   5.190   5.231   5.240   5.370   5.515   5.541   5.594
  5.616   5.952   6.018   6.090   6.454   6.658   6.882   6.933
  6.983   7.004   7.170   7.215   7.223   7.276   7.302   7.533
  7.644   7.725   7.773  24.893  27.284  28.128  28.272  40.850
 40.990  41.101  41.179  41.320  43.700  43.737  43.761  43.769
 43.814  43.826  43.869  43.886  43.953  44.018  45.705  45.832
 45.920  46.094  46.468  46.761  50.124  50.367
 --------------------------------------------------------------
 
          Ground-State Mulliken Net Atomic Charges

     Atom                 Charge (a.u.)
  ----------------------------------------
      1 O                    -0.249748
      2 C                     0.156823
      3 O                    -0.354073
      4 H                     0.300795
      5 H                     0.146203
  ----------------------------------------
  Sum of atomic charges =     0.000000

 -----------------------------------------------------------------
                    Cartesian Multipole Moments
 -----------------------------------------------------------------
    Charge (ESU x 10^10)
                 0.0000
    Dipole Moment (Debye)
         X      -0.7932      Y       0.0000      Z      -1.4160
       Tot       1.6231
    Quadrupole Moments (Debye-Ang)
        XX     -17.3932     XY       0.0000     YY     -17.3832
        XZ      -6.2206     YZ       0.0000     ZZ     -21.8682
    Octapole Moments (Debye-Ang^2)
       XXX     -17.8976    XXY       0.0000    XYY      -5.1915
       YYY       0.0000    XXZ     -23.3267    XYZ       0.0000
       YYZ     -18.8634    XZZ     -16.0725    YZZ       0.0000
       ZZZ     -71.6687
    Hexadecapole Moments (Debye-Ang^3)
      XXXX     -57.1846   XXXY       0.0000   XXYY     -12.1028
      XYYY       0.0000   YYYY     -15.4332   XXXZ     -37.6131
      XXYZ       0.0000   XYYZ      -9.8962   YYYZ       0.0000
      XXZZ     -52.9616   XYZZ       0.0000   YYZZ     -39.4077
      XZZZ     -52.8414   YZZZ       0.0000   ZZZZ    -258.2968
 -----------------------------------------------------------------
 Calculating analytic gradient of the SCF energy
 Gradient of AOints
            1           2           3           4           5
    1   4.2341079   7.0663058 -11.2816319  -3.6099336   3.5911519
    2  -0.0000000   0.0000000  -0.0000000   0.0000000  -0.0000000
    3  10.2644329  -0.4983987 -10.2837440   2.0726264  -1.5549166
 Gradient of XC Energy
            1           2           3           4           5
    1  -0.1915575  -0.2063749   0.3288631   0.2115708  -0.1425016
    2   0.0000000  -0.0000000   0.0000000  -0.0000000   0.0000000
    3  -0.1845206  -0.0307274   0.2418387  -0.0837436   0.0571528
 Gradient of SCF Energy
            1           2           3           4           5
    1  -0.0001050   0.0002639  -0.0001531   0.0000573  -0.0000631
    2  -0.0000000   0.0000000  -0.0000000  -0.0000000   0.0000000
    3  -0.0002789   0.0003590  -0.0000548  -0.0000187  -0.0000066
 Max gradient component =       3.590E-04
 RMS gradient           =       1.464E-04
 Gradient time:  CPU 26.02 s  wall 26.53 s
 Geometry Optimization Parameters
   NAtoms,    NIC,     NZ,  NCons,   NDum,   NFix, NCnnct, MaxDiis
        5      20       6       0       0       0       0       0

 Cartesian Hessian Update
 Hessian Updated using BFGS Update


** GEOMETRY OPTIMIZATION IN DELOCALIZED INTERNAL COORDINATES **
   Searching for a Minimum

   Optimization Cycle:   4

                       Coordinates (Angstroms)
     ATOM              X           Y           Z
    1  O           0.011306    0.000000    0.016589
    2  C          -0.001294    0.000000    1.340810
    3  O           0.972294    0.000000    2.022281
    4  H           0.939551    0.000000   -0.279930
    5  H          -1.038532    0.000000    1.720967
   Point Group: c1    Number of degrees of freedom:   9


   Energy is   -188.063889327

 Hessian Updated using BFGS Update

  7 Hessian modes will be used to form the next step
  Hessian Eigenvalues:
     0.148350    0.163821    0.280118    0.341006    0.493235    0.541670
     0.981862

 Minimum Search - Taking Simple RFO Step
 Searching for Lamda that Minimizes Along All modes
 Value Taken    Lamda =   0.00000000
 Step Taken.  Stepsize is  0.000840

                             Maximum     Tolerance    Cnvgd?
         Gradient           0.000277      0.000300     YES
         Displacement       0.000699      0.001200     YES
         Energy change     -0.000004      0.000001      NO


                       Distance Matrix (Angstroms)
             O (  1)   C (  2)   O (  3)   H (  4)
   C (  2)  1.324281
   O (  3)  2.224028  1.188392
   H (  4)  0.974455  1.874030  2.302444
   H (  5)  2.001766  1.104710  2.033276  2.813611
 


 ******************************
 **  OPTIMIZATION CONVERGED  **
 ******************************
 Analysis of SCF Wavefunction
 
 --------------------------------------------------------------
                    Orbital Energies (a.u.)
 --------------------------------------------------------------
 
 Alpha MOs
 -- Occupied --
-18.875 -18.816 -10.149  -1.279  -1.180  -0.822  -0.678  -0.637
 -0.615  -0.548  -0.474  -0.430
 -- Virtual --
  0.035   0.045   0.073   0.092   0.108   0.118   0.148   0.199
  0.216   0.239   0.249   0.282   0.292   0.315   0.342   0.354
  0.360   0.425   0.505   0.584   0.591   0.604   0.664   0.713
  0.734   0.786   0.847   0.864   0.937   1.045   1.081   1.112
  1.132   1.150   1.161   1.182   1.197   1.216   1.389   1.459
  1.494   1.555   1.620   1.673   1.740   1.847   1.847   2.049
  2.149   2.156   2.301   2.396   2.476   2.571   2.742   2.751
  2.884   3.008   3.082   3.109   3.235   3.287   3.304   3.436
  3.463   3.555   3.616   3.621   3.770   3.784   3.810   4.035
  4.184   4.217   4.330   4.472   4.978   5.023   5.052   5.094
  5.149   5.190   5.231   5.240   5.370   5.515   5.541   5.594
  5.616   5.952   6.018   6.090   6.454   6.658   6.882   6.933
  6.983   7.004   7.170   7.215   7.223   7.276   7.302   7.533
  7.644   7.725   7.773  24.893  27.284  28.128  28.272  40.850
 40.990  41.101  41.179  41.320  43.700  43.737  43.761  43.769
 43.814  43.826  43.869  43.886  43.953  44.018  45.705  45.832
 45.920  46.094  46.468  46.761  50.124  50.367
 --------------------------------------------------------------
 
          Ground-State Mulliken Net Atomic Charges

     Atom                 Charge (a.u.)
  ----------------------------------------
      1 O                    -0.249748
      2 C                     0.156823
      3 O                    -0.354073
      4 H                     0.300795
      5 H                     0.146203
  ----------------------------------------
  Sum of atomic charges =     0.000000

 -----------------------------------------------------------------
                    Cartesian Multipole Moments
 -----------------------------------------------------------------
    Charge (ESU x 10^10)
                 0.0000
    Dipole Moment (Debye)
         X      -0.7932      Y       0.0000      Z      -1.4160
       Tot       1.6231
    Quadrupole Moments (Debye-Ang)
        XX     -17.3932     XY       0.0000     YY     -17.3832
        XZ      -6.2206     YZ       0.0000     ZZ     -21.8682
    Octapole Moments (Debye-Ang^2)
       XXX     -17.8976    XXY       0.0000    XYY      -5.1915
       YYY       0.0000    XXZ     -23.3267    XYZ       0.0000
       YYZ     -18.8634    XZZ     -16.0725    YZZ       0.0000
       ZZZ     -71.6687
    Hexadecapole Moments (Debye-Ang^3)
      XXXX     -57.1846   XXXY       0.0000   XXYY     -12.1028
      XYYY       0.0000   YYYY     -15.4332   XXXZ     -37.6131
      XXYZ       0.0000   XYYZ      -9.8962   YYYZ       0.0000
      XXZZ     -52.9616   XYZZ       0.0000   YYZZ     -39.4077
      XZZZ     -52.8414   YZZZ       0.0000   ZZZZ    -258.2968
 -----------------------------------------------------------------
 Total job time:  331.89s(wall), 313.85s(cpu) 
 Sun Apr 17 21:37:48 2011

        *************************************************************
        *                                                           *
        *  Thank you very much for using Q-Chem.  Have a nice day.  *
        *                                                           *
        *************************************************************


0 sent ACK to 0 
now end server 0 ... 
 
**********************************************************************
Job 2 of 2 
**********************************************************************
 
Process 0 of 1 is on cl160.stfx.acenet.ca - thread support 1
initial socket setup ...start
initial socket setup ...done 
now start server 0 ... 

cmd = /usr/bin/ssh clhead /usr/local/qchem/bin/get_hostid 1649613697 > /scratch/tmp/4503956.1.medium.q/qchem27263/lic.dat
                  Welcome to Q-Chem
     A Quantum Leap Into The Future Of Chemistry

 Y. Shao, L. Fusti-Molnar, Y. Jung, J. Kussmann, C. Ochsenfeld,
 S. T. Brown, A. T. B. Gilbert, L. V. Slipchenko,S. V. Levchenko,
 D. P. O'Neill, R. A. DiStasio Jr., R. C. Lochan, T. Wang,
 G. J. O. Beran, N. A. Besley, J. M. Herbert, C. Y. Lin,
 T. Van Voorhis, S. H. Chien, A. Sodt, R. P. Steele, 
 V. A. Rassolov, P. E. Maslen, P. P. Korambath, R. D. Adamson,
 B. Austin, J. Baker, E. F. C. Byrd, H. Dachsel, R. J. Doerksen,
 A. Dreuw, B. D. Dunietz, A. D. Dutoi, T. R. Furlani,
 S. R. Gwaltney, A. Heyden, S. Hirata, C.-P. Hsu, G. Kedziora,
 R. Z. Khaliullin, P. Klunzinger, A. M. Lee, M. S. Lee, W. Liang,
 I. Lotan, N. Nair, B. Peters, E. I. Proynov, P. A. Pieniazek, 
 Y. M. Rhee, J. Ritchie, E. Rosta, C. D. Sherrill, 
 A. C. Simmonett, J. E. Subotnik, H. L. Woodcock III,
 W. Zhang, A. T. Bell, A. K. Chakraborty, D. M. Chipman,
 F. J. Keil, A. Warshel, W. J. Hehre, H. F. Schaefer III,
 J. Kong, A. I. Krylov, P. M. W. Gill, M. Head-Gordon,
 Q-Chem, Version 3.1, Q-Chem, Inc., Pittsburgh, PA (2007).

 Additional authors for Version 3.1: 
 Z. Gan, Y. Zhao, N. E. Schultz, D. Truhlar, E. Epifanovsky and M. Oana.

 Additional authors for Version 3.2: 
 R. Baer, B. R. Brooks, D. Casanova, J.-D. Chai, C.-L. Cheng, 
 C. Cramer, D. Crittenden, A. Ghysels, G. Hawkins, E. G. Hohenstein, 
 C. Kelley, W. Kurlancheek, D. Liotard, E. Livshits, P. Manohar, 
 A. Marenich, D. Neuhauser, R. Olson, M. A. Rohrdanz, K. S. Thanthiriwatte, 
 A. J. W. Thom, V. Vanovschi, C. F. Williams, Q. Wu and Z.-Q. You. 


 Intel X86 Linux Version

 Q-chem begins on Sun Apr 17 21:37:51 2011  

 Parallel job on  1  processors
Processing $rem in /usr/local/qchem/config/preferences.

theFileMan(): MAXOPENFILES=974 MAX_SUB_FILE_NUM=16
Maximum size of a physical file is 2.0 GB, maximum size of a tmp-file is 32.0 GB


--------------------------------------------------------------
User input:
--------------------------------------------------------------

$molecule 
READ 
$end 

$xc_functional
   X HF 1.0
   X BNL 1.0
   C LYP 1.0
$end

$rem
SYMMETRY_DECOMPOSITION	0
exchange 		general
BASIS                   g3large
omega			440 
JOBTYPE                 freq
IDERIV 0
SCF_GUESS READ
separate_jk		true
mem_static              760
max_scf_cycles          200
scf_final_print         1
sym_ignore              true
$end

--------------------------------------------------------------
 Writing REM_CC_EA            5
 ----------------------------------------------------
       Standard Nuclear Orientation (Angstroms)
    I     Atom         X            Y            Z
 ----------------------------------------------------
    1      O       0.011306     0.000000     0.016589
    2      C      -0.001294     0.000000     1.340810
    3      O       0.972294     0.000000     2.022281
    4      H       0.939551     0.000000    -0.279930
    5      H      -1.038532     0.000000     1.720967
 ----------------------------------------------------
 Nuclear Repulsion Energy =    70.9187822365 hartrees
 There are       12 alpha and       12 beta electrons
 Requested basis set is G3large
 There are 42 shells and 146 basis functions

Total QAlloc Memory Limit   2000 MB
Mega-Array Size       759 MB
MEM_STATIC part       760 MB

                       Distance Matrix (Angstroms)
             O (  1)   C (  2)   O (  3)   H (  4)
   C (  2)  1.324281
   O (  3)  2.224028  1.188392
   H (  4)  0.974455  1.874030  2.302444
   H (  5)  2.001766  1.104710  2.033276  2.813611
 
 A cutoff of  1.0D-11 yielded    874 shell pairs
 There are  10606 function pairs ( 13431 Cartesian)
Evaluating contribution to one-electron hamiltonian from nuclear
 Smallest overlap matrix eigenvalue = 7.30E-04
 Multipole matrices computed through 2nd order
 Guess MOs from SCF MO coefficient file
Reading MOs from coefficient file
Reading MOs from coefficient file
 A restricted hybrid HF-DFT SCF calculation will be
 performed using Pulay DIIS extrapolation
 Exchange:     1.0000 Hartree-Fock + 1.0000 BNL
 Correlation:  1.0000 LYP
 Using SG-1 standard quadrature grid
 SCF converges when DIIS error is below 1.0E-08
 ---------------------------------------
  Cycle       Energy         DIIS Error
 ---------------------------------------
    1    -188.0638893158      6.20E-10
    2    -188.0638893162      3.23E-10 Convergence criterion met
 ---------------------------------------
 One-Electron    Energy =  -399.3866845378
 Total Coulomb   Energy =   161.8930851943
 Alpha Exchange  Energy =    -2.6448460781
 Beta  Exchange  Energy =    -2.6448460781
 DFT   Exchange  Energy =   -15.3523973884
 DFT Correlation Energy =    -0.8469826646
 Nuclear Repu.   Energy =    70.9187822365
 Nuclear Attr.   Energy =  -586.7634386042
 Kinetic         Energy =   187.3767540663
 SCF time:  CPU 10.51 s  wall 11.45 s
 Final Alpha MO Eigenvalues
            1           2           3           4           5           6
    1 -18.8745150 -18.8161221 -10.1493487  -1.2787297  -1.1801233  -0.8222390
            7           8           9          10          11          12
    1  -0.6775881  -0.6368185  -0.6146900  -0.5481107  -0.4744867  -0.4304673
           13          14          15          16          17
    1   0.0354815   0.0447281   0.0726654   0.0917029   0.1078156
 Analysis of SCF Wavefunction
 
 --------------------------------------------------------------
                    Orbital Energies (a.u.)
 --------------------------------------------------------------
 
 Alpha MOs
 -- Occupied --
-18.875 -18.816 -10.149  -1.279  -1.180  -0.822  -0.678  -0.637
 -0.615  -0.548  -0.474  -0.430
 -- Virtual --
  0.035   0.045   0.073   0.092   0.108   0.118   0.148   0.199
  0.216   0.239   0.249   0.282   0.292   0.315   0.342   0.354
  0.360   0.425   0.505   0.584   0.591   0.604   0.664   0.713
  0.734   0.786   0.847   0.864   0.937   1.045   1.081   1.112
  1.132   1.150   1.161   1.182   1.197   1.216   1.389   1.459
  1.494   1.555   1.620   1.673   1.740   1.847   1.847   2.049
  2.149   2.156   2.301   2.396   2.476   2.571   2.742   2.751
  2.884   3.008   3.082   3.109   3.235   3.287   3.304   3.436
  3.463   3.555   3.616   3.621   3.770   3.784   3.810   4.035
  4.184   4.217   4.330   4.472   4.978   5.023   5.052   5.094
  5.149   5.190   5.231   5.240   5.370   5.515   5.541   5.594
  5.616   5.952   6.018   6.090   6.454   6.658   6.882   6.933
  6.983   7.004   7.170   7.215   7.223   7.276   7.302   7.533
  7.644   7.725   7.773  24.893  27.284  28.128  28.272  40.850
 40.990  41.101  41.179  41.320  43.700  43.737  43.761  43.769
 43.814  43.826  43.869  43.886  43.953  44.018  45.705  45.832
 45.920  46.094  46.468  46.761  50.124  50.367
 --------------------------------------------------------------
 
          Ground-State Mulliken Net Atomic Charges

     Atom                 Charge (a.u.)
  ----------------------------------------
      1 O                    -0.249749
      2 C                     0.156823
      3 O                    -0.354073
      4 H                     0.300795
      5 H                     0.146203
  ----------------------------------------
  Sum of atomic charges =     0.000000

 -----------------------------------------------------------------
                    Cartesian Multipole Moments
 -----------------------------------------------------------------
    Charge (ESU x 10^10)
                 0.0000
    Dipole Moment (Debye)
         X      -0.7932      Y       0.0000      Z      -1.4160
       Tot       1.6231
    Quadrupole Moments (Debye-Ang)
        XX     -17.3932     XY       0.0000     YY     -17.3832
        XZ      -6.2206     YZ       0.0000     ZZ     -21.8682
    Octapole Moments (Debye-Ang^2)
       XXX     -17.8976    XXY       0.0000    XYY      -5.1915
       YYY       0.0000    XXZ     -23.3267    XYZ       0.0000
       YYZ     -18.8634    XZZ     -16.0725    YZZ       0.0000
       ZZZ     -71.6687
    Hexadecapole Moments (Debye-Ang^3)
      XXXX     -57.1846   XXXY       0.0000   XXYY     -12.1028
      XYYY       0.0000   YYYY     -15.4332   XXXZ     -37.6131
      XXYZ       0.0000   XYYZ      -9.8962   YYYZ       0.0000
      XXZZ     -52.9616   XYZZ       0.0000   YYZZ     -39.4077
      XZZZ     -52.8414   YZZZ       0.0000   ZZZZ    -258.2968
 -----------------------------------------------------------------
 No analytic derivatives required
 ######################################################
 ######################################################
 # Starting finite difference calculation for IDERIV  #
 Finite diff step size: 1.89e-03 a.u.
 Writing REM_CC_EA            5
 ----------------------------------------------------
       Standard Nuclear Orientation (Angstroms)
    I     Atom         X            Y            Z
 ----------------------------------------------------
    1      O       0.013306     0.000000     0.016589
    2      C      -0.001294     0.000000     1.340810
    3      O       0.972294     0.000000     2.022281
    4      H       0.939551     0.000000    -0.279930
    5      H      -1.038532     0.000000     1.720967
 ----------------------------------------------------
 Nuclear Repulsion Energy =    70.9318003194 hartrees
 There are       12 alpha and       12 beta electrons

                       Distance Matrix (Angstroms)
             O (  1)   C (  2)   O (  3)   H (  4)
   C (  2)  1.324302
   O (  3)  2.223164  1.188392
   H (  4)  0.972551  1.874030  2.302444
   H (  5)  2.002815  1.104710  2.033276  2.813611
 
 Requested basis set is G3large
 There are 42 shells and 146 basis functions
 A cutoff of  1.0D-11 yielded    874 shell pairs
 There are  10606 function pairs ( 13431 Cartesian)
Evaluating contribution to one-electron hamiltonian from nuclear
 Smallest overlap matrix eigenvalue = 7.29E-04
 Multipole matrices computed through 2nd order
 Guess MOs from SCF MO coefficient file
Reading MOs from coefficient file
Reading MOs from coefficient file
 A restricted hybrid HF-DFT SCF calculation will be
 performed using Pulay DIIS extrapolation
 Exchange:     1.0000 Hartree-Fock + 1.0000 BNL
 Correlation:  1.0000 LYP
 Using SG-1 standard quadrature grid
 SCF converges when DIIS error is below 1.0E-08
 ---------------------------------------
  Cycle       Energy         DIIS Error
 ---------------------------------------
    1    -188.0649042994      6.23E-05
    2    -188.0638853676      9.99E-06
    3    -188.0638855248      7.41E-06
    4    -188.0638856363      2.84E-06
    5    -188.0638856440      5.49E-07
    6    -188.0638856519      2.46E-07
    7    -188.0638856499      5.83E-08
    8    -188.0638856501      1.74E-08
    9    -188.0638856529      6.13E-09 Convergence criterion met
 ---------------------------------------
 One-Electron    Energy =  -399.4114919457
 Total Coulomb   Energy =   161.9057597388
 Alpha Exchange  Energy =    -2.6449211732
 Beta  Exchange  Energy =    -2.6449211732
 DFT   Exchange  Energy =   -15.3531014716
 DFT Correlation Energy =    -0.8470099472
 Nuclear Repu.   Energy =    70.9318003194
 Nuclear Attr.   Energy =  -586.7912675526
 Kinetic         Energy =   187.3797756068
 SCF time:  CPU 42.92 s  wall 46.27 s
 Final Alpha MO Eigenvalues
            1           2           3           4           5           6
    1 -18.8743011 -18.8160591 -10.1493776  -1.2788766  -1.1801206  -0.8226270
            7           8           9          10          11          12
    1  -0.6778390  -0.6367688  -0.6146942  -0.5480655  -0.4744645  -0.4304361
           13          14          15          16          17
    1   0.0355488   0.0447179   0.0726112   0.0916997   0.1078046
 Analysis of SCF Wavefunction
 
 --------------------------------------------------------------
                    Orbital Energies (a.u.)
 --------------------------------------------------------------
 
 Alpha MOs
 -- Occupied --
-18.874 -18.816 -10.149  -1.279  -1.180  -0.823  -0.678  -0.637
 -0.615  -0.548  -0.474  -0.430
 -- Virtual --
  0.036   0.045   0.073   0.092   0.108   0.118   0.148   0.199
  0.216   0.239   0.249   0.282   0.292   0.315   0.342   0.354
  0.360   0.425   0.505   0.584   0.591   0.604   0.664   0.714
  0.733   0.786   0.847   0.864   0.937   1.045   1.082   1.112
  1.132   1.150   1.161   1.182   1.197   1.216   1.389   1.460
  1.494   1.554   1.621   1.673   1.740   1.848   1.848   2.048
  2.149   2.156   2.300   2.395   2.475   2.571   2.742   2.752
  2.884   3.008   3.082   3.109   3.235   3.287   3.304   3.437
  3.463   3.555   3.617   3.620   3.770   3.785   3.810   4.036
  4.187   4.217   4.332   4.473   4.978   5.024   5.052   5.095
  5.149   5.190   5.231   5.240   5.370   5.514   5.542   5.594
  5.619   5.954   6.019   6.089   6.454   6.657   6.883   6.933
  6.985   7.004   7.172   7.215   7.222   7.281   7.302   7.534
  7.644   7.724   7.773  24.894  27.284  28.128  28.272  40.850
 40.990  41.101  41.179  41.320  43.700  43.737  43.761  43.769
 43.814  43.827  43.869  43.886  43.954  44.018  45.705  45.832
 45.920  46.094  46.471  46.762  50.125  50.367
 --------------------------------------------------------------
 
          Ground-State Mulliken Net Atomic Charges

     Atom                 Charge (a.u.)
  ----------------------------------------
      1 O                    -0.249610
      2 C                     0.157012
      3 O                    -0.354173
      4 H                     0.300365
      5 H                     0.146406
  ----------------------------------------
  Sum of atomic charges =     0.000000

 -----------------------------------------------------------------
                    Cartesian Multipole Moments
 -----------------------------------------------------------------
    Charge (ESU x 10^10)
                 0.0000
    Dipole Moment (Debye)
         X      -0.7969      Y       0.0000      Z      -1.4144
       Tot       1.6234
    Quadrupole Moments (Debye-Ang)
        XX     -17.3890     XY       0.0000     YY     -17.3811
        XZ      -6.2241     YZ       0.0000     ZZ     -21.8656
    Octapole Moments (Debye-Ang^2)
       XXX     -17.9281    XXY       0.0000    XYY      -5.2018
       YYY       0.0000    XXZ     -23.3243    XYZ       0.0000
       YYZ     -18.8628    XZZ     -16.0899    YZZ       0.0000
       ZZZ     -71.6701
    Hexadecapole Moments (Debye-Ang^3)
      XXXX     -57.1696   XXXY       0.0000   XXYY     -12.0995
      XYYY       0.0000   YYYY     -15.4304   XXXZ     -37.6192
      XXYZ       0.0000   XYYZ      -9.8973   YYYZ       0.0000
      XXZZ     -52.9544   XYZZ       0.0000   YYZZ     -39.4066
      XZZZ     -52.8662   YZZZ       0.0000   ZZZZ    -258.3097
 -----------------------------------------------------------------
 Writing REM_CC_EA            5
 ----------------------------------------------------
       Standard Nuclear Orientation (Angstroms)
    I     Atom         X            Y            Z
 ----------------------------------------------------
    1      O       0.011306     0.000000     0.016589
    2      C      -0.001294     0.000000     1.340810
    3      O       0.972294     0.000000     2.022281
    4      H       0.939551     0.000000    -0.279930
    5      H      -1.038532     0.000000     1.720967
 ----------------------------------------------------
 Nuclear Repulsion Energy =    70.9187822365 hartrees
 There are       12 alpha and       12 beta electrons

                       Distance Matrix (Angstroms)
             O (  1)   C (  2)   O (  3)   H (  4)
   C (  2)  1.324281
   O (  3)  2.224028  1.188392
   H (  4)  0.974455  1.874030  2.302444
   H (  5)  2.001766  1.104710  2.033276  2.813611
 
 Requested basis set is G3large
 There are 42 shells and 146 basis functions
 A cutoff of  1.0D-11 yielded    874 shell pairs
 There are  10606 function pairs ( 13431 Cartesian)
Evaluating contribution to one-electron hamiltonian from nuclear
 Smallest overlap matrix eigenvalue = 7.30E-04
 Multipole matrices computed through 2nd order
 Guess MOs from SCF MO coefficient file
Reading MOs from coefficient file
Reading MOs from coefficient file
 A restricted hybrid HF-DFT SCF calculation will be
 performed using Pulay DIIS extrapolation
 Exchange:     1.0000 Hartree-Fock + 1.0000 BNL
 Correlation:  1.0000 LYP
 Using SG-1 standard quadrature grid
 SCF converges when DIIS error is below 1.0E-08
 ---------------------------------------
  Cycle       Energy         DIIS Error
 ---------------------------------------
    1    -188.0628730315      6.23E-05
    2    -188.0638890722      1.00E-05
    3    -188.0638892250      7.46E-06
    4    -188.0638892642      2.84E-06
    5    -188.0638892839      5.47E-07
    6    -188.0638892782      2.43E-07
    7    -188.0638892804      5.85E-08
    8    -188.0638892802      1.73E-08
    9    -188.0638892775      6.12E-09 Convergence criterion met
 ---------------------------------------
 One-Electron    Energy =  -399.3866858035
 Total Coulomb   Energy =   161.8930866004
 Alpha Exchange  Energy =    -2.6448460941
 Beta  Exchange  Energy =    -2.6448460941
 DFT   Exchange  Energy =   -15.3523974575
 DFT Correlation Energy =    -0.8469826652
 Nuclear Repu.   Energy =    70.9187822365
 Nuclear Attr.   Energy =  -586.7634407462
 Kinetic         Energy =   187.3767549427
 SCF time:  CPU 42.62 s  wall 45.68 s
 Final Alpha MO Eigenvalues
            1           2           3           4           5           6
    1 -18.8745150 -18.8161221 -10.1493487  -1.2787297  -1.1801233  -0.8222390
            7           8           9          10          11          12
    1  -0.6775881  -0.6368185  -0.6146900  -0.5481106  -0.4744867  -0.4304673
           13          14          15          16          17
    1   0.0354815   0.0447281   0.0726654   0.0917029   0.1078156
 Analysis of SCF Wavefunction
 
 --------------------------------------------------------------
                    Orbital Energies (a.u.)
 --------------------------------------------------------------
 
 Alpha MOs
 -- Occupied --
-18.875 -18.816 -10.149  -1.279  -1.180  -0.822  -0.678  -0.637
 -0.615  -0.548  -0.474  -0.430
 -- Virtual --
  0.035   0.045   0.073   0.092   0.108   0.118   0.148   0.199
  0.216   0.239   0.249   0.282   0.292   0.315   0.342   0.354
  0.360   0.425   0.505   0.584   0.591   0.604   0.664   0.713
  0.734   0.786   0.847   0.864   0.937   1.045   1.081   1.112
  1.132   1.150   1.161   1.182   1.197   1.216   1.389   1.459
  1.494   1.555   1.620   1.673   1.740   1.847   1.847   2.049
  2.149   2.156   2.301   2.396   2.476   2.571   2.742   2.751
  2.884   3.008   3.082   3.109   3.235   3.287   3.304   3.436
  3.463   3.555   3.616   3.621   3.770   3.784   3.810   4.035
  4.184   4.217   4.330   4.472   4.978   5.023   5.052   5.094
  5.149   5.190   5.231   5.240   5.370   5.515   5.541   5.594
  5.616   5.952   6.018   6.090   6.454   6.658   6.882   6.933
  6.983   7.004   7.170   7.215   7.223   7.276   7.302   7.533
  7.644   7.725   7.773  24.893  27.284  28.128  28.272  40.850
 40.990  41.101  41.179  41.320  43.700  43.737  43.761  43.769
 43.814  43.826  43.869  43.886  43.953  44.018  45.705  45.832
 45.920  46.094  46.468  46.761  50.124  50.367
 --------------------------------------------------------------
 
          Ground-State Mulliken Net Atomic Charges

     Atom                 Charge (a.u.)
  ----------------------------------------
      1 O                    -0.249749
      2 C                     0.156823
      3 O                    -0.354073
      4 H                     0.300795
      5 H                     0.146203
  ----------------------------------------
  Sum of atomic charges =     0.000000

 -----------------------------------------------------------------
                    Cartesian Multipole Moments
 -----------------------------------------------------------------
    Charge (ESU x 10^10)
                 0.0000
    Dipole Moment (Debye)
         X      -0.7932      Y       0.0000      Z      -1.4160
       Tot       1.6231
    Quadrupole Moments (Debye-Ang)
        XX     -17.3932     XY       0.0000     YY     -17.3832
        XZ      -6.2206     YZ       0.0000     ZZ     -21.8682
    Octapole Moments (Debye-Ang^2)
       XXX     -17.8976    XXY       0.0000    XYY      -5.1915
       YYY       0.0000    XXZ     -23.3267    XYZ       0.0000
       YYZ     -18.8634    XZZ     -16.0725    YZZ       0.0000
       ZZZ     -71.6687
    Hexadecapole Moments (Debye-Ang^3)
      XXXX     -57.1846   XXXY       0.0000   XXYY     -12.1028
      XYYY       0.0000   YYYY     -15.4332   XXXZ     -37.6131
      XXYZ       0.0000   XYYZ      -9.8962   YYYZ       0.0000
      XXZZ     -52.9616   XYZZ       0.0000   YYZZ     -39.4077
      XZZZ     -52.8414   YZZZ       0.0000   ZZZZ    -258.2968
 -----------------------------------------------------------------
 Writing REM_CC_EA            5
 ----------------------------------------------------
       Standard Nuclear Orientation (Angstroms)
    I     Atom         X            Y            Z
 ----------------------------------------------------
    1      O       0.012306     0.001000     0.016589
    2      C      -0.001294     0.000000     1.340810
    3      O       0.972294     0.000000     2.022281
    4      H       0.939551     0.000000    -0.279930
    5      H      -1.038532     0.000000     1.720967
 ----------------------------------------------------
 Nuclear Repulsion Energy =    70.9252839528 hartrees
 There are       12 alpha and       12 beta electrons

                       Distance Matrix (Angstroms)
             O (  1)   C (  2)   O (  3)   H (  4)
   C (  2)  1.324291
   O (  3)  2.223596  1.188392
   H (  4)  0.973503  1.874030  2.302444
   H (  5)  2.002291  1.104710  2.033276  2.813611
 
 Requested basis set is G3large
 There are 42 shells and 146 basis functions
 A cutoff of  1.0D-11 yielded    874 shell pairs
 There are  10606 function pairs ( 13431 Cartesian)
Evaluating contribution to one-electron hamiltonian from nuclear
 Smallest overlap matrix eigenvalue = 7.30E-04
 Multipole matrices computed through 2nd order
 Guess MOs from SCF MO coefficient file
Reading MOs from coefficient file
Reading MOs from coefficient file
 A restricted hybrid HF-DFT SCF calculation will be
 performed using Pulay DIIS extrapolation
 Exchange:     1.0000 Hartree-Fock + 1.0000 BNL
 Correlation:  1.0000 LYP
 Using SG-1 standard quadrature grid
 SCF converges when DIIS error is below 1.0E-08
 ---------------------------------------
  Cycle       Energy         DIIS Error
 ---------------------------------------
    1    -188.0643968636      3.74E-05
    2    -188.0638883341      5.49E-06
    3    -188.0638884058      3.86E-06
    4    -188.0638884297      1.68E-06
    5    -188.0638884363      3.93E-07
    6    -188.0638884369      1.67E-07
    7    -188.0638884352      7.00E-08
    8    -188.0638884323      2.57E-08
    9    -188.0638884352      8.56E-09 Convergence criterion met
 ---------------------------------------
 One-Electron    Energy =  -399.3990757525
 Total Coulomb   Energy =   161.8994157398
 Alpha Exchange  Energy =    -2.6448836249
 Beta  Exchange  Energy =    -2.6448836249
 DFT   Exchange  Energy =   -15.3527488379
 DFT Correlation Energy =    -0.8469962877
 Nuclear Repu.   Energy =    70.9252839528
 Nuclear Attr.   Energy =  -586.7773363716
 Kinetic         Energy =   187.3782606191
 SCF time:  CPU 43.22 s  wall 46.03 s
 Final Alpha MO Eigenvalues
            1           2           3           4           5           6
    1 -18.8744081 -18.8160907 -10.1493631  -1.2788030  -1.1801219  -0.8224327
            7           8           9          10          11          12
    1  -0.6777133  -0.6367939  -0.6146921  -0.5480882  -0.4744756  -0.4304518
           13          14          15          16          17
    1   0.0355152   0.0447230   0.0726383   0.0917013   0.1078100
 Analysis of SCF Wavefunction
 
 --------------------------------------------------------------
                    Orbital Energies (a.u.)
 --------------------------------------------------------------
 
 Alpha MOs
 -- Occupied --
-18.874 -18.816 -10.149  -1.279  -1.180  -0.822  -0.678  -0.637
 -0.615  -0.548  -0.474  -0.430
 -- Virtual --
  0.036   0.045   0.073   0.092   0.108   0.118   0.148   0.199
  0.216   0.239   0.249   0.282   0.292   0.315   0.342   0.354
  0.360   0.425   0.505   0.584   0.591   0.604   0.664   0.714
  0.734   0.786   0.847   0.864   0.937   1.045   1.082   1.112
  1.132   1.150   1.161   1.182   1.197   1.216   1.389   1.459
  1.494   1.555   1.620   1.673   1.740   1.848   1.848   2.048
  2.149   2.156   2.301   2.396   2.475   2.571   2.742   2.751
  2.884   3.008   3.082   3.109   3.235   3.287   3.304   3.436
  3.463   3.555   3.617   3.621   3.770   3.784   3.810   4.036
  4.185   4.217   4.331   4.473   4.978   5.023   5.052   5.094
  5.149   5.190   5.231   5.240   5.370   5.514   5.542   5.594
  5.617   5.953   6.018   6.089   6.454   6.658   6.883   6.933
  6.984   7.004   7.171   7.215   7.222   7.278   7.302   7.534
  7.644   7.724   7.773  24.893  27.284  28.128  28.272  40.850
 40.990  41.101  41.179  41.320  43.700  43.737  43.761  43.769
 43.814  43.827  43.869  43.886  43.954  44.018  45.705  45.832
 45.920  46.094  46.469  46.762  50.125  50.367
 --------------------------------------------------------------
 
          Ground-State Mulliken Net Atomic Charges

     Atom                 Charge (a.u.)
  ----------------------------------------
      1 O                    -0.249680
      2 C                     0.156917
      3 O                    -0.354123
      4 H                     0.300581
      5 H                     0.146305
  ----------------------------------------
  Sum of atomic charges =     0.000000

 -----------------------------------------------------------------
                    Cartesian Multipole Moments
 -----------------------------------------------------------------
    Charge (ESU x 10^10)
                 0.0000
    Dipole Moment (Debye)
         X      -0.7950      Y      -0.0019      Z      -1.4152
       Tot       1.6232
    Quadrupole Moments (Debye-Ang)
        XX     -17.3911     XY      -0.0004     YY     -17.3821
        XZ      -6.2223     YZ       0.0012     ZZ     -21.8669
    Octapole Moments (Debye-Ang^2)
       XXX     -17.9128    XXY      -0.0056    XYY      -5.1967
       YYY      -0.0174    XXZ     -23.3255    XYZ       0.0003
       YYZ     -18.8631    XZZ     -16.0812    YZZ      -0.0028
       ZZZ     -71.6694
    Hexadecapole Moments (Debye-Ang^3)
      XXXX     -57.1770   XXXY      -0.0010   XXYY     -12.1012
      XYYY      -0.0001   YYYY     -15.4318   XXXZ     -37.6162
      XXYZ       0.0009   XYYZ      -9.8967   YYYZ       0.0016
      XXZZ     -52.9580   XYZZ       0.0013   YYZZ     -39.4071
      XZZZ     -52.8538   YZZZ       0.0066   ZZZZ    -258.3032
 -----------------------------------------------------------------
 Writing REM_CC_EA            5
 ----------------------------------------------------
       Standard Nuclear Orientation (Angstroms)
    I     Atom         X            Y            Z
 ----------------------------------------------------
    1      O       0.012306    -0.001000     0.016589
    2      C      -0.001294     0.000000     1.340810
    3      O       0.972294     0.000000     2.022281
    4      H       0.939551     0.000000    -0.279930
    5      H      -1.038532     0.000000     1.720967
 ----------------------------------------------------
 Nuclear Repulsion Energy =    70.9252839528 hartrees
 There are       12 alpha and       12 beta electrons

                       Distance Matrix (Angstroms)
             O (  1)   C (  2)   O (  3)   H (  4)
   C (  2)  1.324291
   O (  3)  2.223596  1.188392
   H (  4)  0.973503  1.874030  2.302444
   H (  5)  2.002291  1.104710  2.033276  2.813611
 
 Requested basis set is G3large
 There are 42 shells and 146 basis functions
 A cutoff of  1.0D-11 yielded    874 shell pairs
 There are  10606 function pairs ( 13431 Cartesian)
Evaluating contribution to one-electron hamiltonian from nuclear
 Smallest overlap matrix eigenvalue = 7.30E-04
 Multipole matrices computed through 2nd order
 Guess MOs from SCF MO coefficient file
Reading MOs from coefficient file
Reading MOs from coefficient file
 A restricted hybrid HF-DFT SCF calculation will be
 performed using Pulay DIIS extrapolation
 Exchange:     1.0000 Hartree-Fock + 1.0000 BNL
 Correlation:  1.0000 LYP
 Using SG-1 standard quadrature grid
 SCF converges when DIIS error is below 1.0E-08
 ---------------------------------------
  Cycle       Energy         DIIS Error
 ---------------------------------------
    1    -188.0638853442      4.14E-05
    2    -188.0638882834      4.57E-06
    3    -188.0638883990      1.33E-06
    4    -188.0638884114      4.47E-07
    5    -188.0638884146      2.51E-07
    6    -188.0638884153      1.61E-07
    7    -188.0638884151      4.91E-08
    8    -188.0638884146      2.09E-08
    9    -188.0638884151      6.29E-09 Convergence criterion met
 ---------------------------------------
 One-Electron    Energy =  -399.3990788362
 Total Coulomb   Energy =   161.8994191536
 Alpha Exchange  Energy =    -2.6448836371
 Beta  Exchange  Energy =    -2.6448836371
 DFT   Exchange  Energy =   -15.3527491162
 DFT Correlation Energy =    -0.8469962949
 Nuclear Repu.   Energy =    70.9252839528
 Nuclear Attr.   Energy =  -586.7773422825
 Kinetic         Energy =   187.3782634463
 SCF time:  CPU 43.28 s  wall 46.19 s
 Final Alpha MO Eigenvalues
            1           2           3           4           5           6
    1 -18.8744081 -18.8160906 -10.1493631  -1.2788030  -1.1801218  -0.8224326
            7           8           9          10          11          12
    1  -0.6777133  -0.6367938  -0.6146920  -0.5480882  -0.4744756  -0.4304517
           13          14          15          16          17
    1   0.0355152   0.0447230   0.0726383   0.0917013   0.1078100
 Analysis of SCF Wavefunction
 
 --------------------------------------------------------------
                    Orbital Energies (a.u.)
 --------------------------------------------------------------
 
 Alpha MOs
 -- Occupied --
-18.874 -18.816 -10.149  -1.279  -1.180  -0.822  -0.678  -0.637
 -0.615  -0.548  -0.474  -0.430
 -- Virtual --
  0.036   0.045   0.073   0.092   0.108   0.118   0.148   0.199
  0.216   0.239   0.249   0.282   0.292   0.315   0.342   0.354
  0.360   0.425   0.505   0.584   0.591   0.604   0.664   0.714
  0.734   0.786   0.847   0.864   0.937   1.045   1.082   1.112
  1.132   1.150   1.161   1.182   1.197   1.216   1.389   1.459
  1.494   1.555   1.620   1.673   1.740   1.848   1.848   2.048
  2.149   2.156   2.301   2.396   2.475   2.571   2.742   2.751
  2.884   3.008   3.082   3.109   3.235   3.287   3.304   3.436
  3.463   3.555   3.617   3.621   3.770   3.784   3.810   4.036
  4.185   4.217   4.331   4.473   4.978   5.023   5.052   5.094
  5.149   5.190   5.231   5.240   5.370   5.514   5.542   5.594
  5.617   5.953   6.018   6.089   6.454   6.658   6.883   6.933
  6.984   7.004   7.171   7.215   7.222   7.278   7.302   7.534
  7.644   7.724   7.773  24.893  27.284  28.128  28.272  40.850
 40.990  41.101  41.179  41.320  43.700  43.737  43.761  43.769
 43.814  43.827  43.869  43.886  43.954  44.018  45.705  45.832
 45.920  46.094  46.469  46.762  50.125  50.367
 --------------------------------------------------------------
 
          Ground-State Mulliken Net Atomic Charges

     Atom                 Charge (a.u.)
  ----------------------------------------
      1 O                    -0.249680
      2 C                     0.156917
      3 O                    -0.354123
      4 H                     0.300581
      5 H                     0.146305
  ----------------------------------------
  Sum of atomic charges =     0.000000

 -----------------------------------------------------------------
                    Cartesian Multipole Moments
 -----------------------------------------------------------------
    Charge (ESU x 10^10)
                 0.0000
    Dipole Moment (Debye)
         X      -0.7950      Y       0.0019      Z      -1.4152
       Tot       1.6232
    Quadrupole Moments (Debye-Ang)
        XX     -17.3911     XY       0.0004     YY     -17.3821
        XZ      -6.2223     YZ      -0.0012     ZZ     -21.8669
    Octapole Moments (Debye-Ang^2)
       XXX     -17.9128    XXY       0.0056    XYY      -5.1967
       YYY       0.0174    XXZ     -23.3255    XYZ      -0.0003
       YYZ     -18.8631    XZZ     -16.0812    YZZ       0.0028
       ZZZ     -71.6694
    Hexadecapole Moments (Debye-Ang^3)
      XXXX     -57.1770   XXXY       0.0010   XXYY     -12.1012
      XYYY       0.0001   YYYY     -15.4318   XXXZ     -37.6162
      XXYZ      -0.0009   XYYZ      -9.8967   YYYZ      -0.0016
      XXZZ     -52.9580   XYZZ      -0.0013   YYZZ     -39.4071
      XZZZ     -52.8538   YZZZ      -0.0066   ZZZZ    -258.3032
 -----------------------------------------------------------------
 Writing REM_CC_EA            5
 ----------------------------------------------------
       Standard Nuclear Orientation (Angstroms)
    I     Atom         X            Y            Z
 ----------------------------------------------------
    1      O       0.012306     0.000000     0.017589
    2      C      -0.001294     0.000000     1.340810
    3      O       0.972294     0.000000     2.022281
    4      H       0.939551     0.000000    -0.279930
    5      H      -1.038532     0.000000     1.720967
 ----------------------------------------------------
 Nuclear Repulsion Energy =    70.9455047888 hartrees
 There are       12 alpha and       12 beta electrons

                       Distance Matrix (Angstroms)
             O (  1)   C (  2)   O (  3)   H (  4)
   C (  2)  1.323291
   O (  3)  2.222694  1.188392
   H (  4)  0.973808  1.874030  2.302444
   H (  5)  2.001439  1.104710  2.033276  2.813611
 
 Requested basis set is G3large
 There are 42 shells and 146 basis functions
 A cutoff of  1.0D-11 yielded    874 shell pairs
 There are  10606 function pairs ( 13431 Cartesian)
Evaluating contribution to one-electron hamiltonian from nuclear
 Smallest overlap matrix eigenvalue = 7.29E-04
 Multipole matrices computed through 2nd order
 Guess MOs from SCF MO coefficient file
Reading MOs from coefficient file
Reading MOs from coefficient file
 A restricted hybrid HF-DFT SCF calculation will be
 performed using Pulay DIIS extrapolation
 Exchange:     1.0000 Hartree-Fock + 1.0000 BNL
 Correlation:  1.0000 LYP
 Using SG-1 standard quadrature grid
 SCF converges when DIIS error is below 1.0E-08
 ---------------------------------------
  Cycle       Energy         DIIS Error
 ---------------------------------------
    1    -188.0638151480      4.78E-05
    2    -188.0638882855      8.69E-06
    3    -188.0638882824      9.61E-06
    4    -188.0638884886      1.41E-06
    5    -188.0638884852      3.22E-07
    6    -188.0638884839      1.14E-07
    7    -188.0638884815      5.01E-08
    8    -188.0638884782      1.52E-08
    9    -188.0638884790      4.16E-09 Convergence criterion met
 ---------------------------------------
 One-Electron    Energy =  -399.4390475356
 Total Coulomb   Energy =   161.9196856713
 Alpha Exchange  Energy =    -2.6449134615
 Beta  Exchange  Energy =    -2.6449134615
 DFT   Exchange  Energy =   -15.3531773138
 DFT Correlation Energy =    -0.8470271667
 Nuclear Repu.   Energy =    70.9455047888
 Nuclear Attr.   Energy =  -586.8192576260
 Kinetic         Energy =   187.3802100904
 SCF time:  CPU 43.68 s  wall 46.46 s
 Final Alpha MO Eigenvalues
            1           2           3           4           5           6
    1 -18.8745029 -18.8158965 -10.1492257  -1.2790514  -1.1800763  -0.8226216
            7           8           9          10          11          12
    1  -0.6778292  -0.6367389  -0.6148685  -0.5479386  -0.4744207  -0.4303538
           13          14          15          16          17
    1   0.0354787   0.0447236   0.0727457   0.0917131   0.1078679
 Analysis of SCF Wavefunction
 
 --------------------------------------------------------------
                    Orbital Energies (a.u.)
 --------------------------------------------------------------
 
 Alpha MOs
 -- Occupied --
-18.875 -18.816 -10.149  -1.279  -1.180  -0.823  -0.678  -0.637
 -0.615  -0.548  -0.474  -0.430
 -- Virtual --
  0.035   0.045   0.073   0.092   0.108   0.118   0.148   0.199
  0.216   0.239   0.249   0.282   0.292   0.315   0.342   0.354
  0.360   0.426   0.505   0.584   0.591   0.604   0.664   0.714
  0.734   0.786   0.847   0.864   0.937   1.045   1.082   1.112
  1.132   1.150   1.161   1.182   1.197   1.216   1.389   1.459
  1.494   1.555   1.620   1.673   1.740   1.848   1.848   2.049
  2.149   2.156   2.301   2.396   2.476   2.571   2.743   2.752
  2.884   3.008   3.082   3.109   3.235   3.287   3.304   3.437
  3.463   3.555   3.617   3.621   3.771   3.785   3.810   4.036
  4.185   4.217   4.332   4.473   4.978   5.023   5.052   5.095
  5.149   5.190   5.231   5.240   5.370   5.515   5.542   5.594
  5.618   5.955   6.020   6.091   6.454   6.660   6.883   6.934
  6.984   7.004   7.171   7.215   7.222   7.279   7.302   7.534
  7.644   7.724   7.774  24.895  27.285  28.128  28.273  40.851
 40.991  41.101  41.180  41.320  43.700  43.737  43.761  43.769
 43.814  43.827  43.869  43.886  43.954  44.018  45.705  45.832
 45.920  46.094  46.470  46.762  50.125  50.367
 --------------------------------------------------------------
 
          Ground-State Mulliken Net Atomic Charges

     Atom                 Charge (a.u.)
  ----------------------------------------
      1 O                    -0.249129
      2 C                     0.156779
      3 O                    -0.354633
      4 H                     0.300775
[...]
 SCF converges when DIIS error is below 1.0E-08
 ---------------------------------------
  Cycle       Energy         DIIS Error
 ---------------------------------------
    1    -188.0635946066      2.61E-05
    2    -188.0638885249      5.76E-06
    3    -188.0638885661      5.52E-06
    4    -188.0638885848      9.68E-07
    5    -188.0638886025      4.84E-07
    6    -188.0638886223      1.91E-07
    7    -188.0638886243      7.33E-08
    8    -188.0638886197      2.42E-08
    9    -188.0638886213      7.32E-09 Convergence criterion met
 ---------------------------------------
 One-Electron    Energy =  -399.3803291890
 Total Coulomb   Energy =   161.8898648747
 Alpha Exchange  Energy =    -2.6448251366
 Beta  Exchange  Energy =    -2.6448251366
 DFT   Exchange  Energy =   -15.3522001823
 DFT Correlation Energy =    -0.8469721236
 Nuclear Repu.   Energy =    70.9153982721
 Nuclear Attr.   Energy =  -586.7560340472
 Kinetic         Energy =   187.3757048581
 SCF time:  CPU 42.88 s  wall 52.26 s
 Final Alpha MO Eigenvalues
            1           2           3           4           5           6
    1 -18.8745524 -18.8160893 -10.1493989  -1.2787322  -1.1801228  -0.8221120
            7           8           9          10          11          12
    1  -0.6775994  -0.6368247  -0.6146898  -0.5480676  -0.4744892  -0.4304132
           13          14          15          16          17
    1   0.0354819   0.0447140   0.0726724   0.0917095   0.1078243
 Analysis of SCF Wavefunction
 
 --------------------------------------------------------------
                    Orbital Energies (a.u.)
 --------------------------------------------------------------
 
 Alpha MOs
 -- Occupied --
-18.875 -18.816 -10.149  -1.279  -1.180  -0.822  -0.678  -0.637
 -0.615  -0.548  -0.474  -0.430
 -- Virtual --
  0.035   0.045   0.073   0.092   0.108   0.118   0.148   0.199
  0.216   0.239   0.249   0.282   0.292   0.315   0.342   0.354
  0.360   0.425   0.505   0.584   0.591   0.603   0.664   0.713
  0.734   0.786   0.847   0.864   0.937   1.045   1.082   1.112
  1.132   1.150   1.161   1.182   1.197   1.216   1.389   1.459
  1.494   1.555   1.620   1.673   1.740   1.848   1.848   2.049
  2.149   2.156   2.301   2.396   2.476   2.571   2.742   2.751
  2.884   3.008   3.082   3.109   3.235   3.287   3.304   3.436
  3.463   3.556   3.617   3.621   3.770   3.784   3.809   4.035
  4.184   4.216   4.329   4.472   4.978   5.022   5.052   5.094
  5.149   5.190   5.231   5.240   5.370   5.515   5.541   5.593
  5.616   5.952   6.017   6.089   6.454   6.658   6.882   6.933
  6.983   7.004   7.169   7.215   7.223   7.276   7.301   7.534
  7.644   7.724   7.773  24.893  27.284  28.128  28.272  40.850
 40.990  41.101  41.179  41.320  43.700  43.737  43.761  43.769
 43.814  43.826  43.869  43.886  43.953  44.018  45.705  45.832
 45.920  46.094  46.467  46.761  50.124  50.367
 --------------------------------------------------------------
 
          Ground-State Mulliken Net Atomic Charges

     Atom                 Charge (a.u.)
  ----------------------------------------
      1 O                    -0.249806
      2 C                     0.156880
      3 O                    -0.354069
      4 H                     0.300850
      5 H                     0.146144
  ----------------------------------------
  Sum of atomic charges =     0.000000

 -----------------------------------------------------------------
                    Cartesian Multipole Moments
 -----------------------------------------------------------------
    Charge (ESU x 10^10)
                 0.0000
    Dipole Moment (Debye)
         X      -0.7930      Y       0.0000      Z      -1.4154
       Tot       1.6224
    Quadrupole Moments (Debye-Ang)
        XX     -17.3951     XY       0.0000     YY     -17.3842
        XZ      -6.2230     YZ       0.0000     ZZ     -21.8640
    Octapole Moments (Debye-Ang^2)
       XXX     -17.8958    XXY       0.0000    XYY      -5.1907
       YYY       0.0000    XXZ     -23.3291    XYZ       0.0000
       YYZ     -18.8668    XZZ     -16.0806    YZZ       0.0000
       ZZZ     -71.6613
    Hexadecapole Moments (Debye-Ang^3)
      XXXX     -57.1949   XXXY       0.0000   XXYY     -12.1045
      XYYY       0.0000   YYYY     -15.4351   XXXZ     -37.6106
      XXYZ       0.0000   XYYZ      -9.8935   YYYZ       0.0000
      XXZZ     -52.9631   XYZZ       0.0000   YYZZ     -39.4159
      XZZZ     -52.8588   YZZZ       0.0000   ZZZZ    -258.2964
 -----------------------------------------------------------------
 Writing REM_CC_EA            5
 ----------------------------------------------------
       Standard Nuclear Orientation (Angstroms)
    I     Atom         X            Y            Z
 ----------------------------------------------------
    1      O       0.011306     0.000000     0.016589
    2      C      -0.001294     0.000000     1.340810
    3      O       0.972294     0.000000     2.022281
    4      H       0.939551     0.000000    -0.279930
    5      H      -1.038532     0.000000     1.718967
 ----------------------------------------------------
 Nuclear Repulsion Energy =    70.9221607750 hartrees
 There are       12 alpha and       12 beta electrons

                       Distance Matrix (Angstroms)
             O (  1)   C (  2)   O (  3)   H (  4)
   C (  2)  1.324281
   O (  3)  2.224028  1.188392
   H (  4)  0.974455  1.874030  2.302444
   H (  5)  2.000063  1.104023  2.033574  2.812189
 
 Requested basis set is G3large
 There are 42 shells and 146 basis functions
 A cutoff of  1.0D-11 yielded    874 shell pairs
 There are  10606 function pairs ( 13431 Cartesian)
Evaluating contribution to one-electron hamiltonian from nuclear
 Smallest overlap matrix eigenvalue = 7.30E-04
 Multipole matrices computed through 2nd order
 Guess MOs from SCF MO coefficient file
Reading MOs from coefficient file
Reading MOs from coefficient file
 A restricted hybrid HF-DFT SCF calculation will be
 performed using Pulay DIIS extrapolation
 Exchange:     1.0000 Hartree-Fock + 1.0000 BNL
 Correlation:  1.0000 LYP
 Using SG-1 standard quadrature grid
 SCF converges when DIIS error is below 1.0E-08
 ---------------------------------------
  Cycle       Energy         DIIS Error
 ---------------------------------------
    1    -188.0642809058      3.41E-05
    2    -188.0638884177      7.58E-06
    3    -188.0638884770      7.30E-06
    4    -188.0638885989      1.22E-06
    5    -188.0638885821      5.86E-07
    6    -188.0638885606      2.03E-07
    7    -188.0638885587      6.40E-08
    8    -188.0638885812      1.25E-08
    9    -188.0638885791      3.99E-09 Convergence criterion met
 ---------------------------------------
 One-Electron    Energy =  -399.3930258835
 Total Coulomb   Energy =   161.8962973839
 Alpha Exchange  Energy =    -2.6448668761
 Beta  Exchange  Energy =    -2.6448668761
 DFT   Exchange  Energy =   -15.3525939228
 DFT Correlation Energy =    -0.8469931793
 Nuclear Repu.   Energy =    70.9221607750
 Nuclear Attr.   Energy =  -586.7708272927
 Kinetic         Energy =   187.3778014092
 SCF time:  CPU 42.41 s  wall 52.93 s
 Final Alpha MO Eigenvalues
            1           2           3           4           5           6
    1 -18.8744776 -18.8161552 -10.1492988  -1.2787273  -1.1801239  -0.8223663
            7           8           9          10          11          12
    1  -0.6775760  -0.6368123  -0.6146903  -0.5481535  -0.4744843  -0.4305213
           13          14          15          16          17
    1   0.0354811   0.0447423   0.0726584   0.0916962   0.1078068
 Analysis of SCF Wavefunction
 
 --------------------------------------------------------------
                    Orbital Energies (a.u.)
 --------------------------------------------------------------
 
 Alpha MOs
 -- Occupied --
-18.874 -18.816 -10.149  -1.279  -1.180  -0.822  -0.678  -0.637
 -0.615  -0.548  -0.474  -0.431
 -- Virtual --
  0.035   0.045   0.073   0.092   0.108   0.118   0.148   0.199
  0.216   0.239   0.249   0.283   0.292   0.315   0.342   0.354
  0.360   0.425   0.505   0.584   0.591   0.604   0.664   0.713
  0.734   0.786   0.847   0.864   0.936   1.045   1.081   1.112
  1.132   1.150   1.162   1.182   1.197   1.216   1.389   1.459
  1.494   1.555   1.620   1.673   1.740   1.847   1.847   2.048
  2.149   2.156   2.301   2.396   2.475   2.571   2.742   2.751
  2.885   3.008   3.082   3.109   3.235   3.287   3.304   3.436
  3.463   3.555   3.616   3.621   3.770   3.784   3.811   4.036
  4.185   4.218   4.331   4.473   4.978   5.024   5.052   5.094
  5.149   5.190   5.231   5.240   5.370   5.515   5.541   5.595
  5.616   5.953   6.018   6.090   6.454   6.659   6.882   6.933
  6.983   7.004   7.171   7.215   7.223   7.276   7.302   7.533
  7.644   7.725   7.773  24.894  27.285  28.128  28.273  40.851
 40.990  41.101  41.179  41.320  43.700  43.737  43.761  43.769
 43.814  43.826  43.869  43.886  43.953  44.018  45.705  45.832
 45.920  46.094  46.468  46.761  50.124  50.367
 --------------------------------------------------------------
 
          Ground-State Mulliken Net Atomic Charges

     Atom                 Charge (a.u.)
  ----------------------------------------
      1 O                    -0.249690
      2 C                     0.156764
      3 O                    -0.354075
      4 H                     0.300740
      5 H                     0.146262
  ----------------------------------------
  Sum of atomic charges =     0.000000

 -----------------------------------------------------------------
                    Cartesian Multipole Moments
 -----------------------------------------------------------------
    Charge (ESU x 10^10)
                 0.0000
    Dipole Moment (Debye)
         X      -0.7934      Y       0.0000      Z      -1.4167
       Tot       1.6237
    Quadrupole Moments (Debye-Ang)
        XX     -17.3912     XY       0.0000     YY     -17.3822
        XZ      -6.2181     YZ       0.0000     ZZ     -21.8724
    Octapole Moments (Debye-Ang^2)
       XXX     -17.8994    XXY       0.0000    XYY      -5.1922
       YYY       0.0000    XXZ     -23.3242    XYZ       0.0000
       YYZ     -18.8601    XZZ     -16.0644    YZZ       0.0000
       ZZZ     -71.6760
    Hexadecapole Moments (Debye-Ang^3)
      XXXX     -57.1743   XXXY       0.0000   XXYY     -12.1012
      XYYY       0.0000   YYYY     -15.4313   XXXZ     -37.6156
      XXYZ       0.0000   XYYZ      -9.8988   YYYZ       0.0000
      XXZZ     -52.9602   XYZZ       0.0000   YYZZ     -39.3994
      XZZZ     -52.8240   YZZZ       0.0000   ZZZZ    -258.2970
 -----------------------------------------------------------------
 Writing REM_CC_EA            5
 ----------------------------------------------------
       Standard Nuclear Orientation (Angstroms)
    I     Atom         X            Y            Z
 ----------------------------------------------------
    1      O       0.011306     0.000000     0.016589
    2      C      -0.001294     0.000000     1.340810
    3      O       0.972294     0.000000     2.022281
    4      H       0.939551     0.000000    -0.279930
    5      H      -1.038532     0.000000     1.720967
 ----------------------------------------------------
 Nuclear Repulsion Energy =    70.9187822365 hartrees
 There are       12 alpha and       12 beta electrons
FINAL TENSOR RESULT:
Order 2, Length 15
Order 1, Length 15
   0.5652383   0.0000135  -0.1037445  -0.1371445   0.0000050   0.0415114   0.0179015   0.0000076  -0.0682757  -0.4515522  -0.0000156   0.0951886  -0.0009104   0.0000039   0.0341544
Order 1, Length 15
   0.0000135   0.0401049  -0.0000024   0.0000024  -0.0666121   0.0000040  -0.0000024   0.0311464   0.0000390   0.0000016  -0.0196415  -0.0011026   0.0000011   0.0121927   0.0000060
Order 1, Length 15
  -0.1037445  -0.0000024   0.5279301   0.0217214   0.0000617  -0.3371715  -0.0624342  -0.0000167  -0.0872911   0.1383560   0.0000085  -0.0821620   0.0030062  -0.0000754  -0.0243552
Order 1, Length 15
  -0.1371445   0.0000024   0.0217214   1.0384711  -0.0039230   0.1670800  -0.6423855   0.0000125  -0.3328845  -0.0012368   0.0000165   0.0586966  -0.2639393   0.0000211   0.0825795
Order 1, Length 15
   0.0000050  -0.0666121   0.0000617  -0.0039230   0.2029575  -0.0000023   0.0000004  -0.0733311  -0.0000257   0.0000022   0.0066915   0.0000051   0.0000004  -0.0671744  -0.0000447
Order 1, Length 15
   0.0415114   0.0000040  -0.3371715   0.1670800  -0.0000023   0.7692022  -0.3158491   0.0000336  -0.3283499   0.0152240  -0.0000040  -0.0217607   0.0919034   0.0000824  -0.0828424
Order 1, Length 15
   0.0179015  -0.0000024  -0.0624342  -0.6423855   0.0000004  -0.3158491   0.6562519  -0.0021570   0.4122400  -0.0044888   0.0000028  -0.0069665  -0.0352626  -0.0000184  -0.0274514
Order 1, Length 15
   0.0000076   0.0311464  -0.0000167   0.0000125  -0.0733311   0.0000336  -0.0021570   0.0278029   0.0000007  -0.0000013  -0.0071694   0.0010874  -0.0000001   0.0227853   0.0000218
Order 1, Length 15
  -0.0682757   0.0000390  -0.0872911  -0.3328845  -0.0000257  -0.3283499   0.4122400   0.0000007   0.3889691  -0.0108378  -0.0000101   0.0076180  -0.0043570  -0.0000172   0.0114474
Order 1, Length 15
  -0.4515522   0.0000016   0.1383560  -0.0012368   0.0000022   0.0152240  -0.0044888  -0.0000013  -0.0108378   0.4511301  -0.0017919  -0.1473483   0.0014221  -0.0000015   0.0005909
Order 1, Length 15
  -0.0000156  -0.0196415   0.0000085   0.0000165   0.0066915  -0.0000040   0.0000028  -0.0071694  -0.0000101  -0.0017919   0.0128765   0.0000050  -0.0000005   0.0056326   0.0000141
Order 1, Length 15
   0.0951886  -0.0011026  -0.0821620   0.0586966   0.0000051  -0.0217607  -0.0069665   0.0010874   0.0076180  -0.1473483   0.0000050   0.0945185  -0.0004918   0.0000008  -0.0055363
Order 1, Length 15
  -0.0009104   0.0000011   0.0030062  -0.2639393   0.0000004   0.0919034  -0.0352626  -0.0000001  -0.0043570   0.0014221  -0.0000005  -0.0004918   0.2955596   0.0072475  -0.0898669
Order 1, Length 15
   0.0000039   0.0121927  -0.0000754   0.0000211  -0.0671744   0.0000824  -0.0000184   0.0227853  -0.0000172  -0.0000015   0.0056326   0.0000008   0.0072475   0.0209390   0.0000039
Order 1, Length 15
   0.0341544   0.0000060  -0.0243552   0.0825795  -0.0000447  -0.0828424  -0.0274514   0.0000218   0.0114474   0.0005909   0.0000141  -0.0055363  -0.0898669   0.0000039   0.0948290


 # Finishing finite difference calculation for IDERIV #
 ######################################################
 ######################################################
 Requested basis set is G3large
 There are 42 shells and 146 basis functions
 **********************************************************************
 **                                                                  **
 **                       VIBRATIONAL ANALYSIS                       **
 **                       --------------------                       **
 **                                                                  **
 **        VIBRATIONAL FREQUENCIES (CM**-1) AND NORMAL MODES         **
 **     FORCE CONSTANTS (mDYN/ANGSTROM) AND REDUCED MASSES (AMU)     **
 **                                                                  **
 **********************************************************************
 

 Mode:                 1                      2                      3
 Frequency:       606.57                 666.22                1033.42
 Force Cnst:      0.5824                 0.3209                 1.0430
 Red. Mass:       2.6865                 1.2271                 1.6576
 IR Active:          YES                    YES                    YES
 Raman Active:       YES                    YES                    YES
               X      Y      Z        X      Y      Z        X      Y      Z
 O         -0.117  0.019 -0.125   -0.013 -0.090 -0.014    0.001  0.045  0.005
 C          0.190 -0.010 -0.059    0.019  0.071 -0.005   -0.002 -0.226  0.005
 O         -0.012  0.007  0.230    0.000 -0.040  0.024    0.005  0.061  0.001
 H         -0.347 -0.217 -0.808   -0.032  0.955 -0.080   -0.021  0.049 -0.060
 H          0.149 -0.084 -0.166    0.006  0.253 -0.026   -0.061  0.962 -0.089
 TransDip   0.000  0.000  0.000    0.000  0.000  0.000    0.000  0.000  0.000

 Mode:                 4                      5                      6
 Frequency:      1149.29                1293.77                1345.90
 Force Cnst:      1.4982                 2.0949                 1.5219
 Red. Mass:       1.9251                 2.1242                 1.4260
 IR Active:          YES                    YES                    YES
 Raman Active:       YES                    YES                    YES
               X      Y      Z        X      Y      Z        X      Y      Z
 O          0.069 -0.003  0.210    0.104 -0.001 -0.115    0.020  0.002  0.063
 C          0.005  0.016 -0.061   -0.133  0.002  0.222    0.055 -0.015 -0.134
 O         -0.046 -0.004 -0.085    0.006 -0.001 -0.039   -0.088  0.004 -0.013
 H         -0.284  0.000 -0.789   -0.137  0.003 -0.761   -0.022  0.017 -0.063
 H         -0.147 -0.064 -0.458   -0.023 -0.005  0.556    0.447  0.070  0.870
 TransDip   0.000  0.000  0.000    0.000  0.000  0.000    0.000  0.000  0.000

 Mode:                 7                      8                      9
 Frequency:      1894.47                3058.63                3742.01
 Force Cnst:     19.3997                 6.0477                 8.7756
 Red. Mass:       9.1742                 1.0972                 1.0637
 IR Active:          YES                    YES                    YES
 Raman Active:       YES                    YES                    YES
               X      Y      Z        X      Y      Z        X      Y      Z
 O         -0.035  0.001 -0.052    0.002  0.000 -0.001   -0.057  0.000  0.020
 C          0.520 -0.004  0.421   -0.085 -0.003  0.028   -0.003  0.000  0.002
 O         -0.380  0.001 -0.261    0.005  0.001  0.002   -0.001  0.000 -0.001
 H          0.081  0.003  0.304   -0.017  0.005 -0.005    0.941 -0.002 -0.332
 H          0.324  0.018 -0.363    0.930  0.013 -0.355    0.012 -0.001 -0.004
 TransDip   0.000  0.000  0.000    0.000  0.000  0.000    0.000  0.000  0.000

 STANDARD THERMODYNAMIC QUANTITIES AT   298.18 K  AND     1.00 ATM

   This Molecule has  0 Imaginary Frequencies
   Zero point vibrational energy:       21.144 kcal/mol

   Atom    1 Element O  Has Mass   15.99491
   Atom    2 Element C  Has Mass   12.00000
   Atom    3 Element O  Has Mass   15.99491
   Atom    4 Element H  Has Mass    1.00783
   Atom    5 Element H  Has Mass    1.00783
   Molecular Mass:    46.005480 amu
   Principal axes and moments of inertia in atomic units:
                             1           2           3
    Eigenvalues --       23.28684   145.18535   168.47219
          X               0.39318     0.91946     0.00000
          Y               0.00000     0.00000     1.00000
          Z               0.91946    -0.39318     0.00000
   Rotational Symmetry Number is   1
   The Molecule is an Asymmetric Top
   Translational Enthalpy:        0.889 kcal/mol
   Rotational Enthalpy:           0.889 kcal/mol
   Vibrational Enthalpy:         21.368 kcal/mol
   gas constant (RT):             0.593 kcal/mol
   Translational Entropy:        37.404  cal/mol.K
   Rotational Entropy:           20.971  cal/mol.K
   Vibrational Entropy:           0.973  cal/mol.K

   Total Enthalpy:               23.739 kcal/mol
   Total Entropy:                59.348  cal/mol.K
 Total job time:  22159.49s(wall), 18356.03s(cpu) 
 Mon Apr 18 03:47:10 2011

        *************************************************************
        *                                                           *
        *  Thank you very much for using Q-Chem.  Have a nice day.  *
        *                                                           *
        *************************************************************


0 sent ACK to 0 
now end server 0 ... 
