Process 0 of 1 is on cl027.stfx.acenet.ca - thread support 1
initial socket setup ...start
initial socket setup ...done 
now start server 0 ... 

cmd = /usr/bin/ssh clhead /usr/local/qchem/bin/get_hostid 1990515941 > /scratch/tmp/6027637.1.short.q/qchem9604/lic.dat
                  Welcome to Q-Chem
     A Quantum Leap Into The Future Of Chemistry

 Y. Shao, L. Fusti-Molnar, Y. Jung, J. Kussmann, C. Ochsenfeld,
 S. T. Brown, A. T. B. Gilbert, L. V. Slipchenko,S. V. Levchenko,
 D. P. O'Neill, R. A. DiStasio Jr., R. C. Lochan, T. Wang,
 G. J. O. Beran, N. A. Besley, J. M. Herbert, C. Y. Lin,
 T. Van Voorhis, S. H. Chien, A. Sodt, R. P. Steele, 
 V. A. Rassolov, P. E. Maslen, P. P. Korambath, R. D. Adamson,
 B. Austin, J. Baker, E. F. C. Byrd, H. Dachsel, R. J. Doerksen,
 A. Dreuw, B. D. Dunietz, A. D. Dutoi, T. R. Furlani,
 S. R. Gwaltney, A. Heyden, S. Hirata, C.-P. Hsu, G. Kedziora,
 R. Z. Khaliullin, P. Klunzinger, A. M. Lee, M. S. Lee, W. Liang,
 I. Lotan, N. Nair, B. Peters, E. I. Proynov, P. A. Pieniazek, 
 Y. M. Rhee, J. Ritchie, E. Rosta, C. D. Sherrill, 
 A. C. Simmonett, J. E. Subotnik, H. L. Woodcock III,
 W. Zhang, A. T. Bell, A. K. Chakraborty, D. M. Chipman,
 F. J. Keil, A. Warshel, W. J. Hehre, H. F. Schaefer III,
 J. Kong, A. I. Krylov, P. M. W. Gill, M. Head-Gordon,
 Q-Chem, Version 3.1, Q-Chem, Inc., Pittsburgh, PA (2007).

 Additional authors for Version 3.1: 
 Z. Gan, Y. Zhao, N. E. Schultz, D. Truhlar, E. Epifanovsky and M. Oana.

 Additional authors for Version 3.2: 
 R. Baer, B. R. Brooks, D. Casanova, J.-D. Chai, C.-L. Cheng, 
 C. Cramer, D. Crittenden, A. Ghysels, G. Hawkins, E. G. Hohenstein, 
 C. Kelley, W. Kurlancheek, D. Liotard, E. Livshits, P. Manohar, 
 A. Marenich, D. Neuhauser, R. Olson, M. A. Rohrdanz, K. S. Thanthiriwatte, 
 A. J. W. Thom, V. Vanovschi, C. F. Williams, Q. Wu and Z.-Q. You. 


 Intel X86 Linux Version

 Q-chem begins on Mon Jun  3 17:03:41 2013  

 Parallel job on  1  processors
Processing $rem in /usr/local/qchem/config/preferences.

theFileMan(): MAXOPENFILES=974 MAX_SUB_FILE_NUM=16
Maximum size of a physical file is 2.0 GB, maximum size of a tmp-file is 32.0 GB


--------------------------------------------------------------
User input:
--------------------------------------------------------------

$molecule
-1,1
Si
X,1,1.
H,1,R,2,BETA
H,1,R,2,BETA,3,120.,0
H,1,R,2,BETA,3,-120.,0

 R=1.48898721
 BETA=108.02552928

$end

$comment
negative
$end

$xc_functional
C PBE   1.00
X wPBE  1.00
$end

$rem
SYMMETRY_DECOMPOSITION	0
exchange 		general
LRC_DFT                 true
BASIS                   g3large
omega			900
mem_static              760
max_scf_cycles          200
scf_final_print         1
sym_ignore              true
$end

--------------------------------------------------------------
 Writing REM_CC_EA            4
 ----------------------------------------------------
       Standard Nuclear Orientation (Angstroms)
    I     Atom         X            Y            Z
 ----------------------------------------------------
    1      Si      0.000000     0.000000     0.000000
    2      H       1.415906     0.000000    -0.460753
    3      H      -0.707953    -1.226210    -0.460753
    4      H      -0.707953     1.226210    -0.460753
 ----------------------------------------------------
 Nuclear Repulsion Energy =    15.5738830141 hartrees
 There are        9 alpha and        9 beta electrons
 Requested basis set is G3large
 There are 37 shells and 96 basis functions

Total QAlloc Memory Limit   2000 MB
Mega-Array Size       743 MB
MEM_STATIC part       760 MB

                       Distance Matrix (Angstroms)
             Si(  1)   H (  2)   H (  3)
   H (  2)  1.488987
   H (  3)  1.488987  2.452421
   H (  4)  1.488987  2.452421  2.452421
 
 A cutoff of  1.0D-08 yielded    703 shell pairs
 There are   4798 function pairs (  6229 Cartesian)
Evaluating contribution to one-electron hamiltonian from nuclear
 Smallest overlap matrix eigenvalue = 1.72E-03
 Multipole matrices computed through 2nd order

  Scale SEOQF with 1.000000e-01/1.000000e-01/1.000000e-01

 Standard Electronic Orientation quadrupole field applied
 Nucleus-field energy     =     0.0000000003 hartrees
 Guess from superposition of atomic densities
 Warning:  Energy on first SCF cycle will be non-variational
 Long-range K will be added via erf
 Coulomb attenuation parameter = 0.9 bohr**(-1)
 A restricted Kohn-Sham SCF calculation will be
 performed using Pulay DIIS extrapolation
 Exchange:  wPBE + LR-HF      Correlation:  PBE
 Using SG-1 standard quadrature grid
 SCF converges when DIIS error is below 1.0E-05
 Requested basis set is G3large
 There are 37 shells and 96 basis functions
 A cutoff of  1.0D-08 yielded    703 shell pairs
 There are   4798 function pairs (  6229 Cartesian)
 Warning!  Inaccurate integrated density:
   Number of electrons =    18
   Numerical integral  =    16.999930810780
   Relative error      =    -5.5559399401 %
 ---------------------------------------
  Cycle       Energy         DIIS Error
 ---------------------------------------
    1    -291.0001321829      2.58E-02
    2    -291.1919983101      3.45E-03
    3    -291.2225228594      1.45E-03
    4    -291.2249468353      3.87E-04
    5    -291.2254957854      1.30E-04
    6    -291.2256094304      4.55E-05
    7    -291.2256277840      1.42E-05
    8    -291.2256299492      4.40E-06 Convergence criterion met
 ---------------------------------------
 One-Electron    Energy =  -437.9474388718
 Total Coulomb   Energy =   153.2671532631
 Alpha Exchange  Energy =    -3.2904687030
 Beta  Exchange  Energy =    -3.2904687030
 DFT   Exchange  Energy =   -14.9249027602
 DFT Correlation Energy =    -0.6133871886
 Nuclear Repu.   Energy =    15.5738830143
 Nuclear Attr.   Energy =  -728.5593429843
 Kinetic         Energy =   290.6119041126
 SCF time:  CPU 16.53 s  wall 19.97 s
 Final Alpha MO Eigenvalues
            1           2           3           4           5           6
    1 -65.6435403  -5.3016945  -3.6540078  -3.6539783  -3.6515079  -0.4928161
            7           8           9          10          11          12
    1  -0.2836548  -0.2836537  -0.0552946   0.1890705   0.2095486   0.2095489
           13          14
    1   0.2260360   0.2260374
 Analysis of SCF Wavefunction
 
 --------------------------------------------------------------
                    Orbital Energies (a.u.)
 --------------------------------------------------------------
 
 Alpha MOs
 -- Occupied --
-65.644  -5.302  -3.654  -3.654  -3.652  -0.493  -0.284  -0.284
 -0.055
 -- Virtual --
  0.189   0.210   0.210   0.226   0.226   0.227   0.272   0.369
  0.369   0.388   0.439   0.439   0.500   0.544   0.544   0.576
  0.594   0.594   0.698   0.766   0.790   0.790   0.801   0.801
  0.814   0.856   1.017   1.017   1.057   1.089   1.089   1.183
  1.183   1.211   1.387   1.453   1.453   1.458   1.507   1.507
  1.648   1.711   1.711   1.734   1.912   1.912   2.559   2.561
  2.568   2.568   2.635   2.635   2.740   3.245   3.246   3.379
  4.010   4.011   4.104   4.252   4.254   4.462   4.464   4.464
  4.530   4.530   4.532   4.800   4.930   4.931   6.380  11.824
 11.903  11.903  18.032  18.044  18.093  18.267  18.343  22.684
 22.687  22.693  22.695  22.710  22.711  22.734 141.298
 --------------------------------------------------------------
 
          Ground-State Mulliken Net Atomic Charges

     Atom                 Charge (a.u.)
  ----------------------------------------
      1 Si                   -0.647684
      2 H                    -0.117377
      3 H                    -0.117415
      4 H                    -0.117525
  ----------------------------------------
  Sum of atomic charges =    -1.000000

 -----------------------------------------------------------------
                    Cartesian Multipole Moments
 -----------------------------------------------------------------
    Charge (ESU x 10^10)
                -4.8032
    Dipole Moment (Debye)
         X       0.0000      Y       0.0002      Z      -1.3563
       Tot       1.3563
    Quadrupole Moments (Debye-Ang)
        XX     -22.4224     XY       0.0001     YY     -22.4225
        XZ      -0.0001     YZ       0.0003     ZZ     -29.3592
    Octapole Moments (Debye-Ang^2)
       XXX      -1.9406    XXY       0.0001    XYY       1.9399
       YYY       0.0003    XXZ       0.6103    XYZ       0.0000
       YYZ       0.6101    XZZ      -0.0003    YZZ       0.0013
       ZZZ      -4.5969
    Hexadecapole Moments (Debye-Ang^3)
      XXXX     -69.4364   XXXY       0.0001   XXYY     -23.1456
      XYYY       0.0006   YYYY     -69.4359   XXXZ       0.9299
      XXYZ       0.0005   XYYZ      -0.9315   YYYZ       0.0014
      XXZZ     -30.9187   XYZZ       0.0000   YYZZ     -30.9182
      XZZZ      -0.0008   YZZZ       0.0013   ZZZZ    -110.2183
 -----------------------------------------------------------------
 Total job time:  20.53s(wall), 16.63s(cpu) 
 Mon Jun  3 17:04:02 2013

        *************************************************************
        *                                                           *
        *  Thank you very much for using Q-Chem.  Have a nice day.  *
        *                                                           *
        *************************************************************


0 sent ACK to 0 
now end server 0 ... 
 
**********************************************************************
Job 2 of 3 
**********************************************************************
 
Process 0 of 1 is on cl027.stfx.acenet.ca - thread support 1
initial socket setup ...start
initial socket setup ...done 
now start server 0 ... 

cmd = /usr/bin/ssh clhead /usr/local/qchem/bin/get_hostid 827759994 > /scratch/tmp/6027637.1.short.q/qchem9604/lic.dat
                  Welcome to Q-Chem
     A Quantum Leap Into The Future Of Chemistry

 Y. Shao, L. Fusti-Molnar, Y. Jung, J. Kussmann, C. Ochsenfeld,
 S. T. Brown, A. T. B. Gilbert, L. V. Slipchenko,S. V. Levchenko,
 D. P. O'Neill, R. A. DiStasio Jr., R. C. Lochan, T. Wang,
 G. J. O. Beran, N. A. Besley, J. M. Herbert, C. Y. Lin,
 T. Van Voorhis, S. H. Chien, A. Sodt, R. P. Steele, 
 V. A. Rassolov, P. E. Maslen, P. P. Korambath, R. D. Adamson,
 B. Austin, J. Baker, E. F. C. Byrd, H. Dachsel, R. J. Doerksen,
 A. Dreuw, B. D. Dunietz, A. D. Dutoi, T. R. Furlani,
 S. R. Gwaltney, A. Heyden, S. Hirata, C.-P. Hsu, G. Kedziora,
 R. Z. Khaliullin, P. Klunzinger, A. M. Lee, M. S. Lee, W. Liang,
 I. Lotan, N. Nair, B. Peters, E. I. Proynov, P. A. Pieniazek, 
 Y. M. Rhee, J. Ritchie, E. Rosta, C. D. Sherrill, 
 A. C. Simmonett, J. E. Subotnik, H. L. Woodcock III,
 W. Zhang, A. T. Bell, A. K. Chakraborty, D. M. Chipman,
 F. J. Keil, A. Warshel, W. J. Hehre, H. F. Schaefer III,
 J. Kong, A. I. Krylov, P. M. W. Gill, M. Head-Gordon,
 Q-Chem, Version 3.1, Q-Chem, Inc., Pittsburgh, PA (2007).

 Additional authors for Version 3.1: 
 Z. Gan, Y. Zhao, N. E. Schultz, D. Truhlar, E. Epifanovsky and M. Oana.

 Additional authors for Version 3.2: 
 R. Baer, B. R. Brooks, D. Casanova, J.-D. Chai, C.-L. Cheng, 
 C. Cramer, D. Crittenden, A. Ghysels, G. Hawkins, E. G. Hohenstein, 
 C. Kelley, W. Kurlancheek, D. Liotard, E. Livshits, P. Manohar, 
 A. Marenich, D. Neuhauser, R. Olson, M. A. Rohrdanz, K. S. Thanthiriwatte, 
 A. J. W. Thom, V. Vanovschi, C. F. Williams, Q. Wu and Z.-Q. You. 


 Intel X86 Linux Version

 Q-chem begins on Mon Jun  3 17:04:06 2013  

 Parallel job on  1  processors
Processing $rem in /usr/local/qchem/config/preferences.

theFileMan(): MAXOPENFILES=974 MAX_SUB_FILE_NUM=16
Maximum size of a physical file is 2.0 GB, maximum size of a tmp-file is 32.0 GB


--------------------------------------------------------------
User input:
--------------------------------------------------------------

$molecule
0,2
Si
X,1,1.
H,1,R,2,BETA
H,1,R,2,BETA,3,120.,0
H,1,R,2,BETA,3,-120.,0

 R=1.48898721
 BETA=108.02552928

$end

$comment
neutral
$end

$xc_functional
C PBE   1.00
X wPBE  1.00
$end


$rem
SYMMETRY_DECOMPOSITION	0
LRC_DFT                 true
exchange 		general
BASIS                   g3large
omega			900
mem_static              760
max_scf_cycles          200
scf_final_print         1
sym_ignore              true
$end

--------------------------------------------------------------
 Writing REM_CC_EA            4
 ----------------------------------------------------
       Standard Nuclear Orientation (Angstroms)
    I     Atom         X            Y            Z
 ----------------------------------------------------
    1      Si      0.000000     0.000000     0.000000
    2      H       1.415906     0.000000    -0.460753
    3      H      -0.707953    -1.226210    -0.460753
    4      H      -0.707953     1.226210    -0.460753
 ----------------------------------------------------
 Nuclear Repulsion Energy =    15.5738830141 hartrees
 There are        9 alpha and        8 beta electrons
 Requested basis set is G3large
 There are 37 shells and 96 basis functions

Total QAlloc Memory Limit   2000 MB
Mega-Array Size       743 MB
MEM_STATIC part       760 MB

                       Distance Matrix (Angstroms)
             Si(  1)   H (  2)   H (  3)
   H (  2)  1.488987
   H (  3)  1.488987  2.452421
   H (  4)  1.488987  2.452421  2.452421
 
 A cutoff of  1.0D-08 yielded    703 shell pairs
 There are   4798 function pairs (  6229 Cartesian)
Evaluating contribution to one-electron hamiltonian from nuclear
 Smallest overlap matrix eigenvalue = 1.72E-03
 Multipole matrices computed through 2nd order

  Scale SEOQF with 1.000000e-01/1.000000e-01/1.000000e-01

 Standard Electronic Orientation quadrupole field applied
 Nucleus-field energy     =     0.0000000003 hartrees
 Guess from superposition of atomic densities
 Warning:  Energy on first SCF cycle will be non-variational
 Long-range K will be added via erf
 Coulomb attenuation parameter = 0.9 bohr**(-1)
 An unrestricted Kohn-Sham SCF calculation will be
 performed using Pulay DIIS extrapolation
 Exchange:  wPBE + LR-HF      Correlation:  PBE
 Using SG-1 standard quadrature grid
 SCF converges when DIIS error is below 1.0E-05
 Requested basis set is G3large
 There are 37 shells and 96 basis functions
 A cutoff of  1.0D-08 yielded    703 shell pairs
 There are   4798 function pairs (  6229 Cartesian)
 ---------------------------------------
  Cycle       Energy         DIIS Error
 ---------------------------------------
    1    -291.0001321829      2.58E-02
    2    -291.1758431505      2.66E-03
    3    -291.1992986015      7.79E-04
    4    -291.2018540364      2.89E-04
    5    -291.2022712357      9.44E-05
    6    -291.2023549469      3.30E-05
    7    -291.2023702540      9.18E-06 Convergence criterion met
 ---------------------------------------
 One-Electron    Energy =  -433.6445004647
 Total Coulomb   Energy =   148.8220456510
 Alpha Exchange  Energy =    -3.3435002665
 Beta  Exchange  Energy =    -3.1080021517
 DFT   Exchange  Energy =   -14.9209263759
 DFT Correlation Energy =    -0.5813696605
 Nuclear Repu.   Energy =    15.5738830143
 Nuclear Attr.   Energy =  -724.1683812220
 Kinetic         Energy =   290.5238807573
 <S^2> = 0.7539
 SCF time:  CPU 16.82 s  wall 21.27 s
 Final Alpha MO Eigenvalues
            1           2           3           4           5           6
    1 -65.9096637  -5.5672865  -3.9236798  -3.9173656  -3.9173323  -0.7488520
            7           8           9          10          11          12
    1  -0.5163917  -0.5163199  -0.3586034   0.0520212   0.0721556   0.0721609
           13          14
    1   0.0822797   0.0902640
 Final Beta MO Eigenvalues
            1           2           3           4           5           6
    1 -65.9066386  -5.5636309  -3.9152631  -3.9152383  -3.9132952  -0.7084468
            7           8           9          10          11          12
    1  -0.5093065  -0.5092631  -0.0015608   0.0545245   0.0744535   0.0744592
           13
    1   0.0939085
 Analysis of SCF Wavefunction
 
 --------------------------------------------------------------
                    Orbital Energies (a.u.)
 --------------------------------------------------------------
 
 Alpha MOs
 -- Occupied --
-65.910  -5.567  -3.924  -3.917  -3.917  -0.749  -0.516  -0.516
 -0.359
 -- Virtual --
  0.052   0.072   0.072   0.082   0.090   0.090   0.119   0.174
  0.174   0.191   0.223   0.223   0.299   0.353   0.353   0.364
  0.412   0.412   0.488   0.557   0.571   0.571   0.578   0.578
  0.592   0.641   0.801   0.801   0.831   0.848   0.848   0.961
  0.961   0.967   1.174   1.229   1.231   1.231   1.283   1.283
  1.394   1.467   1.467   1.501   1.684   1.684   2.289   2.297
  2.297   2.313   2.372   2.373   2.493   3.018   3.018   3.151
  3.746   3.747   3.834   4.009   4.010   4.233   4.238   4.238
  4.303   4.303   4.306   4.568   4.689   4.690   6.120  11.553
 11.642  11.642  17.761  17.778  17.826  18.002  18.079  22.418
 22.423  22.426  22.431  22.445  22.446  22.471 141.032
 
 Beta MOs
 -- Occupied --
-65.907  -5.564  -3.915  -3.915  -3.913  -0.708  -0.509  -0.509
 -- Virtual --
 -0.002   0.055   0.074   0.074   0.094   0.094   0.101   0.130
  0.187   0.187   0.207   0.248   0.248   0.324   0.358   0.358
  0.398   0.417   0.417   0.495   0.558   0.582   0.582   0.593
  0.593   0.603   0.652   0.808   0.808   0.845   0.863   0.863
  0.967   0.967   0.988   1.177   1.237   1.237   1.237   1.288
  1.288   1.419   1.475   1.475   1.511   1.689   1.689   2.307
  2.317   2.317   2.317   2.387   2.387   2.499   3.021   3.021
  3.154   3.751   3.752   3.842   4.011   4.012   4.235   4.239
  4.239   4.305   4.305   4.308   4.571   4.692   4.693   6.125
 11.564  11.644  11.644  17.770  17.782  17.831  18.006  18.082
 22.421  22.425  22.429  22.433  22.448  22.449  22.473 141.035
 --------------------------------------------------------------
 
          Ground-State Mulliken Net Atomic Charges

     Atom                 Charge (a.u.)    Spin (a.u.)
  --------------------------------------------------------
      1 Si                    0.098376       0.954542
      2 H                    -0.032790       0.014702
      3 H                    -0.032722       0.015737
      4 H                    -0.032864       0.015019
  --------------------------------------------------------
  Sum of atomic charges =     0.000000
  Sum of spin   charges =     1.000000

 -----------------------------------------------------------------
                    Cartesian Multipole Moments
 -----------------------------------------------------------------
    Charge (ESU x 10^10)
                 0.0000
    Dipole Moment (Debye)
         X       0.0001      Y      -0.0005      Z      -0.0025
       Tot       0.0026
    Quadrupole Moments (Debye-Ang)
        XX     -15.6381     XY       0.0003     YY     -15.6379
        XZ       0.0010     YZ       0.0010     ZZ     -16.0885
    Octapole Moments (Debye-Ang^2)
       XXX      -0.6295    XXY      -0.0005    XYY       0.6293
       YYY      -0.0014    XXZ       1.5197    XYZ      -0.0008
       YYZ       1.5196    XZZ      -0.0001    YZZ      -0.0012
       ZZZ       2.2638
    Hexadecapole Moments (Debye-Ang^3)
      XXXX     -40.8016   XXXY       0.0009   XXYY     -13.6003
      XYYY       0.0013   YYYY     -40.8008   XXXZ      -0.3639
      XXYZ       0.0008   XYYZ       0.3667   YYYZ       0.0025
      XXZZ     -12.1494   XYZZ       0.0007   YYZZ     -12.1492
      XZZZ       0.0019   YZZZ       0.0017   ZZZZ     -31.6185
 -----------------------------------------------------------------
 Total job time:  21.38s(wall), 16.93s(cpu) 
 Mon Jun  3 17:04:27 2013

        *************************************************************
        *                                                           *
        *  Thank you very much for using Q-Chem.  Have a nice day.  *
        *                                                           *
        *************************************************************


0 sent ACK to 0 
now end server 0 ... 
 
**********************************************************************
Job 3 of 3 
**********************************************************************
 
Process 0 of 1 is on cl027.stfx.acenet.ca - thread support 1
initial socket setup ...start
initial socket setup ...done 
now start server 0 ... 

cmd = /usr/bin/ssh clhead /usr/local/qchem/bin/get_hostid 737369022 > /scratch/tmp/6027637.1.short.q/qchem9604/lic.dat
                  Welcome to Q-Chem
     A Quantum Leap Into The Future Of Chemistry

 Y. Shao, L. Fusti-Molnar, Y. Jung, J. Kussmann, C. Ochsenfeld,
 S. T. Brown, A. T. B. Gilbert, L. V. Slipchenko,S. V. Levchenko,
 D. P. O'Neill, R. A. DiStasio Jr., R. C. Lochan, T. Wang,
 G. J. O. Beran, N. A. Besley, J. M. Herbert, C. Y. Lin,
 T. Van Voorhis, S. H. Chien, A. Sodt, R. P. Steele, 
 V. A. Rassolov, P. E. Maslen, P. P. Korambath, R. D. Adamson,
 B. Austin, J. Baker, E. F. C. Byrd, H. Dachsel, R. J. Doerksen,
 A. Dreuw, B. D. Dunietz, A. D. Dutoi, T. R. Furlani,
 S. R. Gwaltney, A. Heyden, S. Hirata, C.-P. Hsu, G. Kedziora,
 R. Z. Khaliullin, P. Klunzinger, A. M. Lee, M. S. Lee, W. Liang,
 I. Lotan, N. Nair, B. Peters, E. I. Proynov, P. A. Pieniazek, 
 Y. M. Rhee, J. Ritchie, E. Rosta, C. D. Sherrill, 
 A. C. Simmonett, J. E. Subotnik, H. L. Woodcock III,
 W. Zhang, A. T. Bell, A. K. Chakraborty, D. M. Chipman,
 F. J. Keil, A. Warshel, W. J. Hehre, H. F. Schaefer III,
 J. Kong, A. I. Krylov, P. M. W. Gill, M. Head-Gordon,
 Q-Chem, Version 3.1, Q-Chem, Inc., Pittsburgh, PA (2007).

 Additional authors for Version 3.1: 
 Z. Gan, Y. Zhao, N. E. Schultz, D. Truhlar, E. Epifanovsky and M. Oana.

 Additional authors for Version 3.2: 
 R. Baer, B. R. Brooks, D. Casanova, J.-D. Chai, C.-L. Cheng, 
 C. Cramer, D. Crittenden, A. Ghysels, G. Hawkins, E. G. Hohenstein, 
 C. Kelley, W. Kurlancheek, D. Liotard, E. Livshits, P. Manohar, 
 A. Marenich, D. Neuhauser, R. Olson, M. A. Rohrdanz, K. S. Thanthiriwatte, 
 A. J. W. Thom, V. Vanovschi, C. F. Williams, Q. Wu and Z.-Q. You. 


 Intel X86 Linux Version

 Q-chem begins on Mon Jun  3 17:04:30 2013  

 Parallel job on  1  processors
Processing $rem in /usr/local/qchem/config/preferences.

theFileMan(): MAXOPENFILES=974 MAX_SUB_FILE_NUM=16
Maximum size of a physical file is 2.0 GB, maximum size of a tmp-file is 32.0 GB


--------------------------------------------------------------
User input:
--------------------------------------------------------------

$molecule
1,1
Si
X,1,1.
H,1,R,2,BETA
H,1,R,2,BETA,3,120.,0
H,1,R,2,BETA,3,-120.,0

 R=1.48898721
 BETA=108.02552928

$end

$comment
positive
$end

$xc_functional
C PBE   1.00
X wPBE  1.00
$end

$rem
SYMMETRY_DECOMPOSITION	0
LRC_DFT                 true
exchange 		general
BASIS                   g3large
omega			900
mem_static              760
max_scf_cycles          200
scf_final_print         1
sym_ignore              true
$end

--------------------------------------------------------------
 Writing REM_CC_EA            4
 ----------------------------------------------------
       Standard Nuclear Orientation (Angstroms)
    I     Atom         X            Y            Z
 ----------------------------------------------------
    1      Si      0.000000     0.000000     0.000000
    2      H       1.415906     0.000000    -0.460753
    3      H      -0.707953    -1.226210    -0.460753
    4      H      -0.707953     1.226210    -0.460753
 ----------------------------------------------------
 Nuclear Repulsion Energy =    15.5738830141 hartrees
 There are        8 alpha and        8 beta electrons
 Requested basis set is G3large
 There are 37 shells and 96 basis functions

Total QAlloc Memory Limit   2000 MB
Mega-Array Size       743 MB
MEM_STATIC part       760 MB

                       Distance Matrix (Angstroms)
             Si(  1)   H (  2)   H (  3)
   H (  2)  1.488987
   H (  3)  1.488987  2.452421
   H (  4)  1.488987  2.452421  2.452421
 
 A cutoff of  1.0D-08 yielded    703 shell pairs
 There are   4798 function pairs (  6229 Cartesian)
Evaluating contribution to one-electron hamiltonian from nuclear
 Smallest overlap matrix eigenvalue = 1.72E-03
 Multipole matrices computed through 2nd order

  Scale SEOQF with 1.000000e-01/1.000000e-01/1.000000e-01

 Standard Electronic Orientation quadrupole field applied
 Nucleus-field energy     =     0.0000000003 hartrees
 Guess from superposition of atomic densities
 Warning:  Energy on first SCF cycle will be non-variational
 Long-range K will be added via erf
 Coulomb attenuation parameter = 0.9 bohr**(-1)
 A restricted Kohn-Sham SCF calculation will be
 performed using Pulay DIIS extrapolation
 Exchange:  wPBE + LR-HF      Correlation:  PBE
 Using SG-1 standard quadrature grid
 SCF converges when DIIS error is below 1.0E-05
 Requested basis set is G3large
 There are 37 shells and 96 basis functions
 A cutoff of  1.0D-08 yielded    703 shell pairs
 There are   4798 function pairs (  6229 Cartesian)
 Warning!  Inaccurate integrated density:
   Number of electrons =    16
   Numerical integral  =    16.999930810780
   Relative error      =     6.2495675674 %
 ---------------------------------------
  Cycle       Energy         DIIS Error
 ---------------------------------------
    1    -291.0001321829      2.58E-02
    2    -290.8157981632      4.76E-03
    3    -290.8648952939      1.40E-03
    4    -290.8668558631      4.33E-04
    5    -290.8670629420      7.59E-05
    6    -290.8670858113      2.07E-05
    7    -290.8670884856      7.76E-06 Convergence criterion met
 ---------------------------------------
 One-Electron    Energy =  -428.3021960368
 Total Coulomb   Energy =   143.5316859146
 Alpha Exchange  Energy =    -3.1160264269
 Beta  Exchange  Energy =    -3.1160264269
 DFT   Exchange  Energy =   -14.8809837363
 DFT Correlation Energy =    -0.5574247876
 Nuclear Repu.   Energy =    15.5738830143
 Nuclear Attr.   Energy =  -718.4714734834
 Kinetic         Energy =   290.1692774466
 SCF time:  CPU 14.25 s  wall 18.42 s
 Final Alpha MO Eigenvalues
            1           2           3           4           5           6
    1 -66.2538176  -5.9061795  -4.2661392  -4.2533505  -4.2533212  -1.0059910
            7           8           9          10          11          12
    1  -0.7837558  -0.7837320  -0.3091868  -0.1120593  -0.1120522  -0.1117466
           13
    1  -0.0659687
 Analysis of SCF Wavefunction
 
 --------------------------------------------------------------
                    Orbital Energies (a.u.)
 --------------------------------------------------------------
 
 Alpha MOs
 -- Occupied --
-66.254  -5.906  -4.266  -4.253  -4.253  -1.006  -0.784  -0.784
 -- Virtual --
 -0.309  -0.112  -0.112  -0.112  -0.066  -0.062  -0.062  -0.058
 -0.004  -0.004   0.003   0.003   0.013   0.102   0.151   0.151
  0.167   0.217   0.217   0.263   0.324   0.335   0.335   0.351
  0.351   0.357   0.413   0.565   0.565   0.580   0.580   0.584
  0.710   0.711   0.711   0.935   0.978   0.983   0.983   1.033
  1.033   1.121   1.188   1.188   1.246   1.422   1.422   1.984
  1.990   1.991   2.020   2.073   2.073   2.205   2.752   2.752
  2.882   3.418   3.419   3.499   3.711   3.713   3.965   3.970
  3.970   4.036   4.036   4.039   4.292   4.401   4.402   5.798
 11.215  11.310  11.310  17.420  17.441  17.487  17.665  17.744
 22.076  22.082  22.083  22.098  22.106  22.107  22.137 140.689
 --------------------------------------------------------------
 
          Ground-State Mulliken Net Atomic Charges

     Atom                 Charge (a.u.)
  ----------------------------------------
      1 Si                    0.687997
      2 H                     0.103995
      3 H                     0.104021
      4 H                     0.103987
  ----------------------------------------
  Sum of atomic charges =     1.000000

 -----------------------------------------------------------------
                    Cartesian Multipole Moments
 -----------------------------------------------------------------
    Charge (ESU x 10^10)
                 4.8032
    Dipole Moment (Debye)
         X      -0.0001      Y      -0.0003      Z       0.8595
       Tot       0.8595
    Quadrupole Moments (Debye-Ang)
        XX     -11.0621     XY       0.0003     YY     -11.0614
        XZ       0.0018     YZ       0.0015     ZZ      -8.7894
    Octapole Moments (Debye-Ang^2)
       XXX       1.0130    XXY      -0.0003    XYY      -1.0137
       YYY      -0.0009    XXZ       0.4392    XYZ      -0.0006
       YYZ       0.4380    XZZ      -0.0005    YZZ      -0.0005
       ZZZ       4.7148
    Hexadecapole Moments (Debye-Ang^3)
      XXXX     -26.6175   XXXY       0.0006   XXYY      -8.8721
      XYYY       0.0008   YYYY     -26.6150   XXXZ      -1.3945
      XXYZ       0.0008   XYYZ       1.3980   YYYZ       0.0024
      XXZZ      -6.3214   XYZZ       0.0004   YYZZ      -6.3207
      XZZZ       0.0023   YZZZ       0.0020   ZZZZ     -11.4101
 -----------------------------------------------------------------
 Total job time:  18.52s(wall), 14.36s(cpu) 
 Mon Jun  3 17:04:49 2013

        *************************************************************
        *                                                           *
        *  Thank you very much for using Q-Chem.  Have a nice day.  *
        *                                                           *
        *************************************************************


0 sent ACK to 0 
now end server 0 ... 
