Process 0 of 1 is on cl070.stfx.acenet.ca - thread support 1
initial socket setup ...start
initial socket setup ...done 
now start server 0 ... 

cmd = /usr/bin/ssh clhead /usr/local/qchem/bin/get_hostid 841099074 > /scratch/tmp/6027817.1.short.q/qchem14688/lic.dat
                  Welcome to Q-Chem
     A Quantum Leap Into The Future Of Chemistry

 Y. Shao, L. Fusti-Molnar, Y. Jung, J. Kussmann, C. Ochsenfeld,
 S. T. Brown, A. T. B. Gilbert, L. V. Slipchenko,S. V. Levchenko,
 D. P. O'Neill, R. A. DiStasio Jr., R. C. Lochan, T. Wang,
 G. J. O. Beran, N. A. Besley, J. M. Herbert, C. Y. Lin,
 T. Van Voorhis, S. H. Chien, A. Sodt, R. P. Steele, 
 V. A. Rassolov, P. E. Maslen, P. P. Korambath, R. D. Adamson,
 B. Austin, J. Baker, E. F. C. Byrd, H. Dachsel, R. J. Doerksen,
 A. Dreuw, B. D. Dunietz, A. D. Dutoi, T. R. Furlani,
 S. R. Gwaltney, A. Heyden, S. Hirata, C.-P. Hsu, G. Kedziora,
 R. Z. Khaliullin, P. Klunzinger, A. M. Lee, M. S. Lee, W. Liang,
 I. Lotan, N. Nair, B. Peters, E. I. Proynov, P. A. Pieniazek, 
 Y. M. Rhee, J. Ritchie, E. Rosta, C. D. Sherrill, 
 A. C. Simmonett, J. E. Subotnik, H. L. Woodcock III,
 W. Zhang, A. T. Bell, A. K. Chakraborty, D. M. Chipman,
 F. J. Keil, A. Warshel, W. J. Hehre, H. F. Schaefer III,
 J. Kong, A. I. Krylov, P. M. W. Gill, M. Head-Gordon,
 Q-Chem, Version 3.1, Q-Chem, Inc., Pittsburgh, PA (2007).

 Additional authors for Version 3.1: 
 Z. Gan, Y. Zhao, N. E. Schultz, D. Truhlar, E. Epifanovsky and M. Oana.

 Additional authors for Version 3.2: 
 R. Baer, B. R. Brooks, D. Casanova, J.-D. Chai, C.-L. Cheng, 
 C. Cramer, D. Crittenden, A. Ghysels, G. Hawkins, E. G. Hohenstein, 
 C. Kelley, W. Kurlancheek, D. Liotard, E. Livshits, P. Manohar, 
 A. Marenich, D. Neuhauser, R. Olson, M. A. Rohrdanz, K. S. Thanthiriwatte, 
 A. J. W. Thom, V. Vanovschi, C. F. Williams, Q. Wu and Z.-Q. You. 


 Intel X86 Linux Version

 Q-chem begins on Mon Jun  3 17:05:05 2013  

 Parallel job on  1  processors
Processing $rem in /usr/local/qchem/config/preferences.

theFileMan(): MAXOPENFILES=974 MAX_SUB_FILE_NUM=16
Maximum size of a physical file is 2.0 GB, maximum size of a tmp-file is 32.0 GB


--------------------------------------------------------------
User input:
--------------------------------------------------------------

$molecule
-1,1
C
S,1,R
H,1,ch1,2,hcs
X,1,1.,2,alpha,3,180.,0
H,1,ch,4,hch2,3,90.,0
H,1,ch,4,hch2,3,-90.,0

R=1.81256567
ch=1.09351119
hcs=106.82996657
ch1=1.09887196
hch2=55.32746965
alpha=130.50070297

$end

$comment
negative
$end

$xc_functional
   X HF 1.0
   X BNL 1.0
   C LYP 1.0
$end

$rem
SYMMETRY_DECOMPOSITION	0
exchange 		general
BASIS                   g3large
omega			390
separate_jk		true
mem_static              760
max_scf_cycles          200
scf_final_print         1
sym_ignore              true
$end

--------------------------------------------------------------
 Writing REM_CC_EA            5
 ----------------------------------------------------
       Standard Nuclear Orientation (Angstroms)
    I     Atom         X            Y            Z
 ----------------------------------------------------
    1      C       0.000000     0.000000     0.000000
    2      S       0.000000     0.000000     1.812566
    3      H       1.051805     0.000000    -0.318159
    4      H      -0.473030     0.899322    -0.404016
    5      H      -0.473030    -0.899322    -0.404016
 ----------------------------------------------------
 Nuclear Repulsion Energy =    48.1227557371 hartrees
 There are       13 alpha and       13 beta electrons
 Requested basis set is G3large
 There are 47 shells and 138 basis functions

Total QAlloc Memory Limit   2000 MB
Mega-Array Size       743 MB
MEM_STATIC part       760 MB

                       Distance Matrix (Angstroms)
             C (  1)   S (  2)   H (  3)   H (  4)
   S (  2)  1.812566
   H (  3)  1.098872  2.376191
   H (  4)  1.093511  2.438395  1.772364
   H (  5)  1.093511  2.438395  1.772364  1.798644
 
 A cutoff of  1.0D-08 yielded   1081 shell pairs
 There are   9436 function pairs ( 12275 Cartesian)
Evaluating contribution to one-electron hamiltonian from nuclear
 Smallest overlap matrix eigenvalue = 4.38E-04
 Multipole matrices computed through 2nd order

  Scale SEOQF with 1.000000e-01/1.000000e-01/1.000000e-01

 Standard Electronic Orientation quadrupole field applied
 Nucleus-field energy     =    -0.0000000055 hartrees
 Guess from superposition of atomic densities
 Warning:  Energy on first SCF cycle will be non-variational
 A restricted hybrid HF-DFT SCF calculation will be
 performed using Pulay DIIS extrapolation
 Exchange:     1.0000 Hartree-Fock + 1.0000 BNL
 Correlation:  1.0000 LYP
 Using SG-1 standard quadrature grid
 SCF converges when DIIS error is below 1.0E-05
 Warning!  Inaccurate integrated density:
   Number of electrons =    26
   Numerical integral  =    25.000026025866
   Relative error      =    -3.8460537467 %
 ---------------------------------------
  Cycle       Energy         DIIS Error
 ---------------------------------------
    1    -435.9463185837      3.03E-02
    2    -435.8177609259      4.48E-03
    3    -435.8677697597      3.57E-03
    4    -435.8933981963      3.86E-04
    5    -435.8937436278      1.01E-04
    6    -435.8938026466      4.22E-05
    7    -435.8938089877      1.61E-05
    8    -435.8938105232      5.37E-06 Convergence criterion met
 ---------------------------------------
 One-Electron    Energy =  -704.8047542788
 Total Coulomb   Energy =   250.8679428782
 Alpha Exchange  Energy =    -2.5477914214
 Beta  Exchange  Energy =    -2.5477914214
 DFT   Exchange  Energy =   -24.0273771057
 DFT Correlation Energy =    -0.9567949056
 Nuclear Repu.   Energy =    48.1227557316
 Nuclear Attr.   Energy = -1139.8081808393
 Kinetic         Energy =   435.0034265605
 SCF time:  CPU 36.97 s  wall 37.43 s
 Final Alpha MO Eigenvalues
            1           2           3           4           5           6
    1 -87.5940457  -9.7812589  -7.5395403  -5.5914046  -5.5822088  -5.5821481
            7           8           9          10          11          12
    1  -0.6658253  -0.4943026  -0.3380086  -0.3316381  -0.2188998  -0.0789024
           13          14          15          16          17          18
    1  -0.0772315   0.1570530   0.1839828   0.1865932   0.2257053   0.2629672
 Analysis of SCF Wavefunction
 
 --------------------------------------------------------------
                    Orbital Energies (a.u.)
 --------------------------------------------------------------
 
 Alpha MOs
 -- Occupied --
-87.594  -9.781  -7.540  -5.591  -5.582  -5.582  -0.666  -0.494
 -0.338  -0.332  -0.219  -0.079  -0.077
 -- Virtual --
  0.157   0.184   0.187   0.226   0.263   0.274   0.274   0.293
  0.300   0.316   0.332   0.407   0.407   0.423   0.500   0.578
  0.583   0.613   0.613   0.633   0.662   0.693   0.710   0.726
  0.728   0.826   0.827   0.878   0.907   1.013   1.014   1.033
  1.128   1.204   1.215   1.220   1.259   1.265   1.268   1.283
  1.375   1.389   1.392   1.401   1.409   1.476   1.561   1.561
  1.601   1.603   1.610   1.705   1.716   1.739   1.764   1.771
  1.877   2.208   2.218   2.380   2.765   2.766   2.864   3.240
  3.257   3.324   3.330   3.466   3.476   3.494   3.542   3.564
  3.816   3.838   3.879   3.882   3.894   3.912   3.919   3.980
  3.986   4.122   4.173   4.185   4.295   4.454   4.455   4.636
  4.645   4.647   4.729   4.928   4.928   5.121   5.141   5.324
  5.651   5.912   5.924   8.641  17.398  17.400  17.644  23.774
 23.888  23.937  23.938  23.956  24.474  28.127  28.322  28.345
 31.259  31.259  31.264  31.264  31.269  31.270  31.284  41.133
 41.160  41.447  41.472  41.524 189.732
 --------------------------------------------------------------
 
          Ground-State Mulliken Net Atomic Charges

     Atom                 Charge (a.u.)
  ----------------------------------------
      1 C                    -0.218456
      2 S                    -1.034733
      3 H                     0.092927
      4 H                     0.080128
      5 H                     0.080133
  ----------------------------------------
  Sum of atomic charges =    -1.000000

 -----------------------------------------------------------------
                    Cartesian Multipole Moments
 -----------------------------------------------------------------
    Charge (ESU x 10^10)
                -4.8032
    Dipole Moment (Debye)
         X       0.0473      Y       0.0005      Z      -8.8917
       Tot       8.8919
    Quadrupole Moments (Debye-Ang)
        XX     -28.0670     XY      -0.0006     YY     -27.9526
        XZ       0.1453     YZ       0.0012     ZZ     -43.7940
    Octapole Moments (Debye-Ang^2)
       XXX       0.5428    XXY       0.0012    XYY      -0.7307
       YYY       0.0035    XXZ     -36.7777    XYZ      -0.0022
       YYZ     -36.8163    XZZ       0.0974    YZZ       0.0001
       ZZZ    -121.6853
    Hexadecapole Moments (Debye-Ang^3)
      XXXX     -64.2489   XXXY      -0.0034   XXYY     -21.5136
      XYYY      -0.0034   YYYY     -64.2380   XXXZ       0.4559
      XXYZ       0.0029   XYYZ      -0.1291   YYYZ       0.0088
      XXZZ     -90.5750   XYZZ      -0.0050   YYZZ     -90.2238
      XZZZ       0.8164   YZZZ      -0.0002   ZZZZ    -443.4263
 -----------------------------------------------------------------
 Total job time:  37.59s(wall), 37.13s(cpu) 
 Mon Jun  3 17:05:42 2013

        *************************************************************
        *                                                           *
        *  Thank you very much for using Q-Chem.  Have a nice day.  *
        *                                                           *
        *************************************************************


0 sent ACK to 0 
now end server 0 ... 
 
**********************************************************************
Job 2 of 3 
**********************************************************************
 
Process 0 of 1 is on cl070.stfx.acenet.ca - thread support 1
initial socket setup ...start
initial socket setup ...done 
now start server 0 ... 

cmd = /usr/bin/ssh clhead /usr/local/qchem/bin/get_hostid 788338569 > /scratch/tmp/6027817.1.short.q/qchem14688/lic.dat
                  Welcome to Q-Chem
     A Quantum Leap Into The Future Of Chemistry

 Y. Shao, L. Fusti-Molnar, Y. Jung, J. Kussmann, C. Ochsenfeld,
 S. T. Brown, A. T. B. Gilbert, L. V. Slipchenko,S. V. Levchenko,
 D. P. O'Neill, R. A. DiStasio Jr., R. C. Lochan, T. Wang,
 G. J. O. Beran, N. A. Besley, J. M. Herbert, C. Y. Lin,
 T. Van Voorhis, S. H. Chien, A. Sodt, R. P. Steele, 
 V. A. Rassolov, P. E. Maslen, P. P. Korambath, R. D. Adamson,
 B. Austin, J. Baker, E. F. C. Byrd, H. Dachsel, R. J. Doerksen,
 A. Dreuw, B. D. Dunietz, A. D. Dutoi, T. R. Furlani,
 S. R. Gwaltney, A. Heyden, S. Hirata, C.-P. Hsu, G. Kedziora,
 R. Z. Khaliullin, P. Klunzinger, A. M. Lee, M. S. Lee, W. Liang,
 I. Lotan, N. Nair, B. Peters, E. I. Proynov, P. A. Pieniazek, 
 Y. M. Rhee, J. Ritchie, E. Rosta, C. D. Sherrill, 
 A. C. Simmonett, J. E. Subotnik, H. L. Woodcock III,
 W. Zhang, A. T. Bell, A. K. Chakraborty, D. M. Chipman,
 F. J. Keil, A. Warshel, W. J. Hehre, H. F. Schaefer III,
 J. Kong, A. I. Krylov, P. M. W. Gill, M. Head-Gordon,
 Q-Chem, Version 3.1, Q-Chem, Inc., Pittsburgh, PA (2007).

 Additional authors for Version 3.1: 
 Z. Gan, Y. Zhao, N. E. Schultz, D. Truhlar, E. Epifanovsky and M. Oana.

 Additional authors for Version 3.2: 
 R. Baer, B. R. Brooks, D. Casanova, J.-D. Chai, C.-L. Cheng, 
 C. Cramer, D. Crittenden, A. Ghysels, G. Hawkins, E. G. Hohenstein, 
 C. Kelley, W. Kurlancheek, D. Liotard, E. Livshits, P. Manohar, 
 A. Marenich, D. Neuhauser, R. Olson, M. A. Rohrdanz, K. S. Thanthiriwatte, 
 A. J. W. Thom, V. Vanovschi, C. F. Williams, Q. Wu and Z.-Q. You. 


 Intel X86 Linux Version

 Q-chem begins on Mon Jun  3 17:05:45 2013  

 Parallel job on  1  processors
Processing $rem in /usr/local/qchem/config/preferences.

theFileMan(): MAXOPENFILES=974 MAX_SUB_FILE_NUM=16
Maximum size of a physical file is 2.0 GB, maximum size of a tmp-file is 32.0 GB


--------------------------------------------------------------
User input:
--------------------------------------------------------------

$molecule
0,2
C
S,1,R
H,1,ch1,2,hcs
X,1,1.,2,alpha,3,180.,0
H,1,ch,4,hch2,3,90.,0
H,1,ch,4,hch2,3,-90.,0

R=1.81256567
ch=1.09351119
hcs=106.82996657
ch1=1.09887196
hch2=55.32746965
alpha=130.50070297

$end

$comment
neutral
$end

$xc_functional
   X HF 1.0
   X BNL 1.0
   C LYP 1.0
$end

$rem
SYMMETRY_DECOMPOSITION	0
exchange 		general
BASIS                   g3large
omega			390
separate_jk		true
mem_static              760
max_scf_cycles          200
scf_final_print         1
sym_ignore              true
$end

--------------------------------------------------------------
 Writing REM_CC_EA            5
 ----------------------------------------------------
       Standard Nuclear Orientation (Angstroms)
    I     Atom         X            Y            Z
 ----------------------------------------------------
    1      C       0.000000     0.000000     0.000000
    2      S       0.000000     0.000000     1.812566
    3      H       1.051805     0.000000    -0.318159
    4      H      -0.473030     0.899322    -0.404016
    5      H      -0.473030    -0.899322    -0.404016
 ----------------------------------------------------
 Nuclear Repulsion Energy =    48.1227557371 hartrees
 There are       13 alpha and       12 beta electrons
 Requested basis set is G3large
 There are 47 shells and 138 basis functions

Total QAlloc Memory Limit   2000 MB
Mega-Array Size       743 MB
MEM_STATIC part       760 MB

                       Distance Matrix (Angstroms)
             C (  1)   S (  2)   H (  3)   H (  4)
   S (  2)  1.812566
   H (  3)  1.098872  2.376191
   H (  4)  1.093511  2.438395  1.772364
   H (  5)  1.093511  2.438395  1.772364  1.798644
 
 A cutoff of  1.0D-08 yielded   1081 shell pairs
 There are   9436 function pairs ( 12275 Cartesian)
Evaluating contribution to one-electron hamiltonian from nuclear
 Smallest overlap matrix eigenvalue = 4.38E-04
 Multipole matrices computed through 2nd order

  Scale SEOQF with 1.000000e-01/1.000000e-01/1.000000e-01

 Standard Electronic Orientation quadrupole field applied
 Nucleus-field energy     =    -0.0000000055 hartrees
 Guess from superposition of atomic densities
 Warning:  Energy on first SCF cycle will be non-variational
 An unrestricted hybrid HF-DFT SCF calculation will be
 performed using Pulay DIIS extrapolation
 Exchange:     1.0000 Hartree-Fock + 1.0000 BNL
 Correlation:  1.0000 LYP
 Using SG-1 standard quadrature grid
 SCF converges when DIIS error is below 1.0E-05
 ---------------------------------------
  Cycle       Energy         DIIS Error
 ---------------------------------------
    1    -435.9463185837      3.03E-02
    2    -435.8134342480      2.12E-03
    3    -435.8259310244      7.67E-04
    4    -435.8272863414      2.75E-04
    5    -435.8275500644      9.84E-05
    6    -435.8275980535      2.47E-05
    7    -435.8276098112      1.09E-05
    8    -435.8276157593      9.21E-06 Convergence criterion met
 ---------------------------------------
 One-Electron    Energy =  -698.0148921873
 Total Coulomb   Energy =   243.9089605443
 Alpha Exchange  Energy =    -2.5735872772
 Beta  Exchange  Energy =    -2.3856684242
 DFT   Exchange  Energy =   -23.9597989761
 DFT Correlation Energy =    -0.9253851704
 Nuclear Repu.   Energy =    48.1227557316
 Nuclear Attr.   Energy = -1132.8796975753
 Kinetic         Energy =   434.8648053880
 <S^2> = 0.7538
 SCF time:  CPU 43.22 s  wall 43.81 s
 Final Alpha MO Eigenvalues
            1           2           3           4           5           6
    1 -87.9082379 -10.0020664  -7.8518164  -5.9069319  -5.8993071  -5.8893027
            7           8           9          10          11          12
    1  -0.9195778  -0.7617250  -0.5638679  -0.5527616  -0.4819715  -0.3954735
           13          14          15          16          17          18
    1  -0.3540118   0.0302233   0.0621881   0.0642800   0.0702871   0.1144150
 Final Beta MO Eigenvalues
            1           2           3           4           5           6
    1 -87.9027761 -10.0022113  -7.8460470  -5.8953699  -5.8942787  -5.8845000
            7           8           9          10          11          12
    1  -0.9022461  -0.7323435  -0.5525766  -0.5451834  -0.4706330  -0.3406492
           13          14          15          16          17
    1  -0.0601529   0.0301979   0.0620037   0.0641852   0.0711960
 Analysis of SCF Wavefunction
 
 --------------------------------------------------------------
                    Orbital Energies (a.u.)
 --------------------------------------------------------------
 
 Alpha MOs
 -- Occupied --
-87.908 -10.002  -7.852  -5.907  -5.899  -5.889  -0.920  -0.762
 -0.564  -0.553  -0.482  -0.395  -0.354
 -- Virtual --
  0.030   0.062   0.064   0.070   0.114   0.120   0.124   0.138
  0.143   0.146   0.176   0.201   0.228   0.232   0.321   0.328
  0.336   0.362   0.375   0.426   0.447   0.480   0.497   0.504
  0.520   0.629   0.634   0.661   0.717   0.784   0.791   0.809
  0.913   0.955   0.961   0.969   0.998   1.005   1.014   1.028
  1.092   1.097   1.125   1.188   1.197   1.264   1.315   1.325
  1.351   1.369   1.384   1.482   1.491   1.510   1.547   1.557
  1.671   1.910   1.943   2.115   2.544   2.550   2.648   3.020
  3.023   3.088   3.098   3.218   3.258   3.277   3.311   3.337
  3.556   3.567   3.588   3.609   3.612   3.618   3.650   3.693
  3.716   3.879   3.947   3.955   4.046   4.232   4.233   4.414
  4.421   4.425   4.511   4.614   4.614   4.822   4.855   5.100
  5.370   5.695   5.708   8.334  17.074  17.093  17.338  23.457
 23.570  23.619  23.633  23.650  24.252  27.903  28.101  28.125
 30.943  30.945  30.951  30.952  30.954  30.967  30.978  40.911
 40.940  41.226  41.251  41.304 189.419
 
 Beta MOs
 -- Occupied --
-87.903 -10.002  -7.846  -5.895  -5.894  -5.884  -0.902  -0.732
 -0.553  -0.545  -0.471  -0.341
 -- Virtual --
 -0.060   0.030   0.062   0.064   0.071   0.115   0.124   0.124
  0.138   0.144   0.150   0.176   0.207   0.231   0.233   0.333
  0.345   0.352   0.385   0.388   0.430   0.450   0.498   0.501
  0.509   0.523   0.631   0.635   0.666   0.719   0.790   0.796
  0.813   0.919   0.966   0.974   0.977   1.013   1.018   1.024
  1.040   1.119   1.120   1.134   1.192   1.200   1.268   1.325
  1.331   1.360   1.377   1.389   1.487   1.495   1.515   1.551
  1.558   1.673   1.939   1.953   2.122   2.549   2.552   2.652
  3.023   3.025   3.093   3.100   3.224   3.260   3.278   3.316
  3.341   3.590   3.599   3.606   3.619   3.635   3.641   3.654
  3.716   3.723   3.885   3.950   3.958   4.052   4.237   4.238
  4.419   4.426   4.428   4.514   4.630   4.631   4.836   4.862
  5.104   5.380   5.699   5.711   8.346  17.091  17.101  17.342
 23.468  23.581  23.630  23.636  23.655  24.252  27.903  28.101
 28.125  30.948  30.950  30.956  30.956  30.959  30.968  30.980
 40.911  40.940  41.226  41.251  41.304 189.425
 --------------------------------------------------------------
 
          Ground-State Mulliken Net Atomic Charges

     Atom                 Charge (a.u.)    Spin (a.u.)
  --------------------------------------------------------
      1 C                    -0.239125      -0.032418
      2 S                    -0.156714       0.976550
      3 H                     0.135494       0.020799
      4 H                     0.128643       0.003878
      5 H                     0.131703       0.031191
  --------------------------------------------------------
  Sum of atomic charges =     0.000000
  Sum of spin   charges =     1.000000

 -----------------------------------------------------------------
                    Cartesian Multipole Moments
 -----------------------------------------------------------------
    Charge (ESU x 10^10)
                 0.0000
    Dipole Moment (Debye)
         X       0.0508      Y      -0.0450      Z      -1.7700
       Tot       1.7713
    Quadrupole Moments (Debye-Ang)
        XX     -20.7929     XY       1.2823     YY     -20.8788
        XZ       0.0554     YZ       0.0844     ZZ     -23.6895
    Octapole Moments (Debye-Ang^2)
       XXX       0.7340    XXY      -0.0120    XYY      -0.9139
       YYY      -0.0252    XXZ     -24.8401    XYZ       2.3272
       YYZ     -25.3462    XZZ      -0.1232    YZZ      -0.0605
       ZZZ     -73.0707
    Hexadecapole Moments (Debye-Ang^3)
      XXXX     -34.2869   XXXY       1.7960   XXYY     -11.6589
      XYYY       1.8242   YYYY     -34.9757   XXXZ      -0.3797
      XXYZ       0.0599   XYYZ       0.3267   YYYZ       0.1967
      XXZZ     -57.4133   XYZZ       5.1195   YYZZ     -58.0485
      XZZZ       0.0674   YZZZ      -0.0562   ZZZZ    -292.3967
 -----------------------------------------------------------------
 Total job time:  43.96s(wall), 43.37s(cpu) 
 Mon Jun  3 17:06:29 2013

        *************************************************************
        *                                                           *
        *  Thank you very much for using Q-Chem.  Have a nice day.  *
        *                                                           *
        *************************************************************


0 sent ACK to 0 
now end server 0 ... 
 
**********************************************************************
Job 3 of 3 
**********************************************************************
 
Process 0 of 1 is on cl070.stfx.acenet.ca - thread support 1
initial socket setup ...start
initial socket setup ...done 
now start server 0 ... 

cmd = /usr/bin/ssh clhead /usr/local/qchem/bin/get_hostid 448692528 > /scratch/tmp/6027817.1.short.q/qchem14688/lic.dat
                  Welcome to Q-Chem
     A Quantum Leap Into The Future Of Chemistry

 Y. Shao, L. Fusti-Molnar, Y. Jung, J. Kussmann, C. Ochsenfeld,
 S. T. Brown, A. T. B. Gilbert, L. V. Slipchenko,S. V. Levchenko,
 D. P. O'Neill, R. A. DiStasio Jr., R. C. Lochan, T. Wang,
 G. J. O. Beran, N. A. Besley, J. M. Herbert, C. Y. Lin,
 T. Van Voorhis, S. H. Chien, A. Sodt, R. P. Steele, 
 V. A. Rassolov, P. E. Maslen, P. P. Korambath, R. D. Adamson,
 B. Austin, J. Baker, E. F. C. Byrd, H. Dachsel, R. J. Doerksen,
 A. Dreuw, B. D. Dunietz, A. D. Dutoi, T. R. Furlani,
 S. R. Gwaltney, A. Heyden, S. Hirata, C.-P. Hsu, G. Kedziora,
 R. Z. Khaliullin, P. Klunzinger, A. M. Lee, M. S. Lee, W. Liang,
 I. Lotan, N. Nair, B. Peters, E. I. Proynov, P. A. Pieniazek, 
 Y. M. Rhee, J. Ritchie, E. Rosta, C. D. Sherrill, 
 A. C. Simmonett, J. E. Subotnik, H. L. Woodcock III,
 W. Zhang, A. T. Bell, A. K. Chakraborty, D. M. Chipman,
 F. J. Keil, A. Warshel, W. J. Hehre, H. F. Schaefer III,
 J. Kong, A. I. Krylov, P. M. W. Gill, M. Head-Gordon,
 Q-Chem, Version 3.1, Q-Chem, Inc., Pittsburgh, PA (2007).

 Additional authors for Version 3.1: 
 Z. Gan, Y. Zhao, N. E. Schultz, D. Truhlar, E. Epifanovsky and M. Oana.

 Additional authors for Version 3.2: 
 R. Baer, B. R. Brooks, D. Casanova, J.-D. Chai, C.-L. Cheng, 
 C. Cramer, D. Crittenden, A. Ghysels, G. Hawkins, E. G. Hohenstein, 
 C. Kelley, W. Kurlancheek, D. Liotard, E. Livshits, P. Manohar, 
 A. Marenich, D. Neuhauser, R. Olson, M. A. Rohrdanz, K. S. Thanthiriwatte, 
 A. J. W. Thom, V. Vanovschi, C. F. Williams, Q. Wu and Z.-Q. You. 


 Intel X86 Linux Version

 Q-chem begins on Mon Jun  3 17:06:32 2013  

 Parallel job on  1  processors
Processing $rem in /usr/local/qchem/config/preferences.

theFileMan(): MAXOPENFILES=974 MAX_SUB_FILE_NUM=16
Maximum size of a physical file is 2.0 GB, maximum size of a tmp-file is 32.0 GB


--------------------------------------------------------------
User input:
--------------------------------------------------------------

$molecule
1,3
C
S,1,R
H,1,ch1,2,hcs
X,1,1.,2,alpha,3,180.,0
H,1,ch,4,hch2,3,90.,0
H,1,ch,4,hch2,3,-90.,0

R=1.81256567
ch=1.09351119
hcs=106.82996657
ch1=1.09887196
hch2=55.32746965
alpha=130.50070297

$end

$comment
positive
$end

$xc_functional
   X HF 1.0
   X BNL 1.0
   C LYP 1.0
$end

$rem
SYMMETRY_DECOMPOSITION	0
exchange 		general
BASIS                   g3large
omega			390
separate_jk		true
mem_static              760
max_scf_cycles          200
scf_final_print         1
sym_ignore              true
$end

--------------------------------------------------------------
 Writing REM_CC_EA            5
 ----------------------------------------------------
       Standard Nuclear Orientation (Angstroms)
    I     Atom         X            Y            Z
 ----------------------------------------------------
    1      C       0.000000     0.000000     0.000000
    2      S       0.000000     0.000000     1.812566
    3      H       1.051805     0.000000    -0.318159
    4      H      -0.473030     0.899322    -0.404016
    5      H      -0.473030    -0.899322    -0.404016
 ----------------------------------------------------
 Nuclear Repulsion Energy =    48.1227557371 hartrees
 There are       13 alpha and       11 beta electrons
 Requested basis set is G3large
 There are 47 shells and 138 basis functions

Total QAlloc Memory Limit   2000 MB
Mega-Array Size       743 MB
MEM_STATIC part       760 MB

                       Distance Matrix (Angstroms)
             C (  1)   S (  2)   H (  3)   H (  4)
   S (  2)  1.812566
   H (  3)  1.098872  2.376191
   H (  4)  1.093511  2.438395  1.772364
   H (  5)  1.093511  2.438395  1.772364  1.798644
 
 A cutoff of  1.0D-08 yielded   1081 shell pairs
 There are   9436 function pairs ( 12275 Cartesian)
Evaluating contribution to one-electron hamiltonian from nuclear
 Smallest overlap matrix eigenvalue = 4.38E-04
 Multipole matrices computed through 2nd order

  Scale SEOQF with 1.000000e-01/1.000000e-01/1.000000e-01

 Standard Electronic Orientation quadrupole field applied
 Nucleus-field energy     =    -0.0000000055 hartrees
 Guess from superposition of atomic densities
 Warning:  Energy on first SCF cycle will be non-variational
 An unrestricted hybrid HF-DFT SCF calculation will be
 performed using Pulay DIIS extrapolation
 Exchange:     1.0000 Hartree-Fock + 1.0000 BNL
 Correlation:  1.0000 LYP
 Using SG-1 standard quadrature grid
 SCF converges when DIIS error is below 1.0E-05
 Warning!  Inaccurate integrated density:
   Number of electrons =    24
   Numerical integral  =    25.000026025866
   Relative error      =     4.1667751078 %
 ---------------------------------------
  Cycle       Energy         DIIS Error
 ---------------------------------------
    1    -435.9463185837      3.03E-02
    2    -435.4305353784      3.25E-03
    3    -435.4744144069      1.66E-03
    4    -435.4817946517      3.90E-04
    5    -435.4842889207      1.73E-04
    6    -435.4849554925      1.10E-04
    7    -435.4851498669      3.07E-05
    8    -435.4851735407      7.54E-06 Convergence criterion met
 ---------------------------------------
 One-Electron    Energy =  -690.2072379515
 Total Coulomb   Energy =   236.1419343483
 Alpha Exchange  Energy =    -2.5915946032
 Beta  Exchange  Energy =    -2.2060766631
 DFT   Exchange  Energy =   -23.8562148819
 DFT Correlation Energy =    -0.8887395209
 Nuclear Repu.   Energy =    48.1227557316
 Nuclear Attr.   Energy = -1124.7142519472
 Kinetic         Energy =   434.5070139957
 <S^2> = 2.0058
 SCF time:  CPU 44.69 s  wall 45.01 s
 Final Alpha MO Eigenvalues
            1           2           3           4           5           6
    1 -88.2823218 -10.2563689  -8.2195946  -6.2710026  -6.2708389  -6.2618341
            7           8           9          10          11          12
    1  -1.2283080  -1.0465765  -0.8219314  -0.8192219  -0.7767123  -0.7010242
           13          14          15          16          17          18
    1  -0.6975874  -0.1514692  -0.1200915  -0.0806829  -0.0805146  -0.0623150
 Final Beta MO Eigenvalues
            1           2           3           4           5           6
    1 -88.2703745 -10.2560578  -8.2070561  -6.2532278  -6.2520160  -6.2519035
            7           8           9          10          11          12
    1  -1.1780860  -0.9969990  -0.7901871  -0.7851342  -0.7539655  -0.3473515
           13          14          15          16
    1  -0.3458111  -0.1362850  -0.1185426  -0.0802928
 Analysis of SCF Wavefunction
 
 --------------------------------------------------------------
                    Orbital Energies (a.u.)
 --------------------------------------------------------------
 
 Alpha MOs
 -- Occupied --
-88.282 -10.256  -8.220  -6.271  -6.271  -6.262  -1.228  -1.047
 -0.822  -0.819  -0.777  -0.701  -0.698
 -- Virtual --
 -0.151  -0.120  -0.081  -0.081  -0.062  -0.046  -0.042  -0.041
 -0.029  -0.029   0.019   0.032   0.041   0.042   0.049   0.052
  0.110   0.116   0.157   0.209   0.221   0.252   0.253   0.299
  0.312   0.422   0.423   0.424   0.517   0.541   0.546   0.562
  0.659   0.681   0.685   0.690   0.712   0.712   0.734   0.767
  0.768   0.775   0.857   0.958   0.967   1.025   1.054   1.063
  1.088   1.119   1.132   1.243   1.246   1.256   1.320   1.323
  1.447   1.606   1.616   1.818   2.301   2.304   2.407   2.749
  2.778   2.825   2.832   2.941   3.012   3.029   3.046   3.074
  3.188   3.200   3.264   3.271   3.326   3.360   3.373   3.399
  3.399   3.594   3.694   3.697   3.774   3.979   3.980   4.164
  4.167   4.168   4.247   4.254   4.269   4.491   4.522   4.839
  5.055   5.451   5.461   7.978  16.712  16.714  16.978  23.082
 23.196  23.259  23.260  23.287  23.997  27.647  27.847  27.871
 30.572  30.573  30.586  30.586  30.596  30.596  30.614  40.656
 40.686  40.972  40.996  41.049 189.046
 
 Beta MOs
 -- Occupied --
-88.270 -10.256  -8.207  -6.253  -6.252  -6.252  -1.178  -0.997
 -0.790  -0.785  -0.754
 -- Virtual --
 -0.347  -0.346  -0.136  -0.119  -0.080  -0.080  -0.058  -0.040
 -0.038  -0.033  -0.027  -0.027   0.018   0.033   0.050   0.051
  0.090   0.094   0.141   0.146   0.160   0.218   0.226   0.270
  0.271   0.303   0.317   0.427   0.427   0.433   0.521   0.551
  0.556   0.572   0.678   0.704   0.707   0.710   0.739   0.742
  0.755   0.789   0.816   0.818   0.872   0.966   0.974   1.036
  1.069   1.078   1.102   1.132   1.145   1.250   1.255   1.267
  1.325   1.328   1.453   1.645   1.654   1.833   2.311   2.313
  2.417   2.757   2.785   2.833   2.840   2.952   3.019   3.036
  3.061   3.087   3.273   3.284   3.317   3.326   3.341   3.367
  3.392   3.422   3.425   3.610   3.700   3.705   3.787   3.992
  3.993   4.177   4.178   4.181   4.271   4.288   4.291   4.513
  4.543   4.852   5.074   5.460   5.471   8.003  16.738  16.740
 16.988  23.107  23.220  23.275  23.276  23.300  23.998  27.647
 27.848  27.872  30.583  30.584  30.594  30.595  30.603  30.603
 30.620  40.656  40.687  40.972  40.996  41.050 189.059
 --------------------------------------------------------------
 
          Ground-State Mulliken Net Atomic Charges

     Atom                 Charge (a.u.)    Spin (a.u.)
  --------------------------------------------------------
      1 C                    -0.158497      -0.031179
      2 S                     0.576162       1.887381
      3 H                     0.195240       0.050933
      4 H                     0.193588       0.046787
      5 H                     0.193507       0.046078
  --------------------------------------------------------
  Sum of atomic charges =     1.000000
  Sum of spin   charges =     2.000000

 -----------------------------------------------------------------
                    Cartesian Multipole Moments
 -----------------------------------------------------------------
    Charge (ESU x 10^10)
                 4.8032
    Dipole Moment (Debye)
         X       0.0683      Y       0.0003      Z       4.5307
       Tot       4.5312
    Quadrupole Moments (Debye-Ang)
        XX     -16.1050     XY       0.0001     YY     -15.9598
        XZ       0.0218     YZ       0.0002     ZZ      -6.8267
    Octapole Moments (Debye-Ang^2)
       XXX       1.1521    XXY       0.0001    XYY      -1.2344
       YYY       0.0004    XXZ     -18.7189    XYZ       0.0009
       YYZ     -18.8820    XZZ      -0.2360    YZZ       0.0007
       ZZZ     -36.1592
    Hexadecapole Moments (Debye-Ang^3)
      XXXX     -22.2871   XXXY       0.0002   XXYY      -7.5997
      XYYY       0.0002   YYYY     -22.3737   XXXZ      -0.7490
      XXYZ       0.0000   XYYZ       0.6130   YYYZ       0.0001
      XXZZ     -40.9478   XYZZ       0.0010   YYZZ     -40.7202
      XZZZ      -0.2155   YZZZ       0.0013   ZZZZ    -191.0339
 -----------------------------------------------------------------
 Total job time:  45.17s(wall), 44.84s(cpu) 
 Mon Jun  3 17:07:17 2013

        *************************************************************
        *                                                           *
        *  Thank you very much for using Q-Chem.  Have a nice day.  *
        *                                                           *
        *************************************************************


0 sent ACK to 0 
now end server 0 ... 
