Process 3 of 8 is on cfa007 - thread support 0
Process 5 of 8 is on cfa007 - thread support 0
Process 2 of 8 is on cfa007 - thread support 0
Process 0 of 8 is on cfa007 - thread support 0
Process 7 of 8 is on cfa007 - thread support 0
initial socket setup ...start
initial socket setup ...done 
now start server 0 ... 
                  Welcome to Q-Chem
     A Quantum Leap Into The Future Of Chemistry

 Y. Shao, L. Fusti-Molnar, Y. Jung, J. Kussmann, C. Ochsenfeld,
 S. T. Brown, A. T. B. Gilbert, L. V. Slipchenko,S. V. Levchenko,
 D. P. O'Neill, R. A. DiStasio Jr., R. C. Lochan, T. Wang,
 G. J. O. Beran, N. A. Besley, J. M. Herbert, C. Y. Lin,
 T. Van Voorhis, S. H. Chien, A. Sodt, R. P. Steele, 
 V. A. Rassolov, P. E. Maslen, P. P. Korambath, R. D. Adamson,
 B. Austin, J. Baker, E. F. C. Byrd, H. Dachsel, R. J. Doerksen,
 A. Dreuw, B. D. Dunietz, A. D. Dutoi, T. R. Furlani,
 S. R. Gwaltney, A. Heyden, S. Hirata, C.-P. Hsu, G. Kedziora,
 R. Z. Khaliullin, P. Klunzinger, A. M. Lee, M. S. Lee, W. Liang,
 I. Lotan, N. Nair, B. Peters, E. I. Proynov, P. A. Pieniazek, 
 Y. M. Rhee, J. Ritchie, E. Rosta, C. D. Sherrill, 
 A. C. Simmonett, J. E. Subotnik, H. L. Woodcock III,
 W. Zhang, A. T. Bell, A. K. Chakraborty, D. M. Chipman,
 F. J. Keil, A. Warshel, W. J. Hehre, H. F. Schaefer III,
 J. Kong, A. I. Krylov, P. M. W. Gill, M. Head-Gordon,

 Additional authors for Version 3.1: 
 Z. Gan, Y. Zhao, N. E. Schultz, D. Truhlar, E. Epifanovsky and M. Oana.

 Additional authors for Version 3.2: 
 R. Baer, B. R. Brooks, D. Casanova, J.-D. Chai, C.-L. Cheng, 
 C. Cramer, D. Crittenden, A. Ghysels, G. Hawkins, E. G. Hohenstein, 
 C. Kelley, W. Kurlancheek, D. Liotard, E. Livshits, P. Manohar, 
 A. Marenich, D. Neuhauser, R. Olson, M. A. Rohrdanz, K. S. Thanthiriwatte, 
 A. J. W. Thom, V. Vanovschi, C. F. Williams, Q. Wu and Z.-Q. You. 

 Additional authors for Version 4.0: 
 A. Aspuru-Guzik, C. Chang, R. G. Edgar, E. Sundstrom, J. Parkhill, K. Lawler,
 M. Gordon, M. Schmidt, N. Shenvi, D. Lambrecht, M. Goldey, R. Olivares-Amaya,
 Y. Bernard, L. Vogt, M. Watson, J. Liu, S. Yeganeh, B. Kaduk, O. Vydrov, X. Xu, 
 I. Kaliman, K. Khistyaev, N. Russ, I.Y. Zhang, W.A. Goddard III, F. Liu, R. King ,
 A. Landau, M. Wormit, A. Dreuw, M. Diedenhofen, A. Klamt, A.W. Lange, D. Ghosh,
 D. Kosenkov, T. Kus, A. Landau, D. Zuev, J. Deng, S.P. Mao, Y.C. Su, D. Small
 
 Q-Chem, Version 4.0, Q-Chem, Inc., Pittsburgh, PA (2007).


 Intel X86 Linux Version 4.0.0.1 Beta

 Q-chem begins on Thu Jun 20 08:29:15 2013  

Host: cfa007
0
 Parallel job on  8  processors
Processing $rem in /home/sivanr/apps/QChem/config/preferences.
MEM_TOTAL    2500

theFileMan(): MAXOPENFILES=16334 MAX_SUB_FILE_NUM=16
Maximum size of a physical file is 2.0 GB, maximum size of a tmp-file is 32.0 GB

Finally everything over in PARseQInput

--------------------------------------------------------------
User input:
--------------------------------------------------------------

$molecule
0,2
C
O,1,CO
H,2,OH,1,HOC
H,1,CH1,2,H1CO,3,PH1,0
H,1,CH2,2,H2CO,3,PH2,0

CO=1.3699812
OH=0.96902921
CH1=1.08886057
CH2=1.08380624
HOC=108.90801576
H1CO=118.50457427
H2CO=112.62604267
PH1=29.28000601
PH2=176.01181272

$end

$comment
neutral
$end

$xc_functional
C PBE   1.00
X wPBE  1.00
$end


$rem
SYMMETRY_DECOMPOSITION	0
LRC_DFT                 true
exchange 		general
BASIS                   g3large
omega			435 
JOBTYPE                 opt
mem_static              760
max_scf_cycles          200
scf_final_print         1
sym_ignore              true
$end


--------------------------------------------------------------
 ----------------------------------------------------
       Standard Nuclear Orientation (Angstroms)
    I     Atom         X            Y            Z
 ----------------------------------------------------
    1      C       0.000000     0.000000     0.000000
    2      O       0.000000     0.000000     1.369981
    3      H       0.916740     0.000000     1.683995
    4      H       0.834618    -0.467983    -0.519636
    5      H      -0.997969    -0.069578    -0.416956
 ----------------------------------------------------
 Nuclear Repulsion Energy =    35.1794459982 hartrees
 There are        9 alpha and        8 beta electrons
 Requested basis set is G3large
 There are 38 shells and 114 basis functions

Total QAlloc Memory Limit   2500 MB
Mega-Array Size       743 MB
MEM_STATIC part       760 MB
 A cutoff of  1.0D-11 yielded    737 shell pairs
 There are      6665 function pairs (      8172 Cartesian)
 Smallest overlap matrix eigenvalue = 1.31E-03

  Scale SEOQF with 1.000000e-01/1.000000e-01/1.000000e-01

 Standard Electronic Orientation quadrupole field applied
 Nucleus-field energy     =    -0.0000000019 hartrees
 Guess from superposition of atomic densities
 Warning:  Energy on first SCF cycle will be non-variational
 Long-range K will be added via erf
 Coulomb attenuation parameter = 0.435 bohr**(-1)
 An unrestricted Kohn-Sham SCF calculation will be
 performed using Pulay DIIS extrapolation
 Exchange:  wPBE + LR-HF      Correlation:  PBE
 Using SG-1 standard quadrature grid
 SCF converges when DIIS error is below 1.0E-08
 Requested basis set is G3large
 There are 38 shells and 114 basis functions
 A cutoff of  1.0D-11 yielded    737 shell pairs
 There are      6665 function pairs (      8172 Cartesian)
 ---------------------------------------
  Cycle       Energy         DIIS Error
 ---------------------------------------
    1    -115.1538671453      3.89E-02
    2    -114.9946419877      4.55E-03
    3    -115.0131133683      3.84E-03
    4    -115.0294386235      7.27E-04
    5    -115.0310289337      1.88E-04
    6    -115.0315025947      8.34E-05
    7    -115.0316128774      3.59E-05
    8    -115.0316350853      1.07E-05
    9    -115.0316371490      2.45E-06
   10    -115.0316372852      6.67E-07
   11    -115.0316372894      1.86E-07
   12    -115.0316372904      5.74E-08
   13    -115.0316372898      1.98E-08
   14    -115.0316372894      5.37E-09 Convergence criterion met
 ---------------------------------------
 One-Electron    Energy =  -225.9697902566
 Total Coulomb   Energy =    90.7889535436
 Alpha Exchange  Energy =    -1.9362268190
 Beta  Exchange  Energy =    -1.7265944167
 DFT   Exchange  Energy =   -10.8229436937
 DFT Correlation Energy =    -0.5444816432
 Nuclear Repu.   Energy =    35.1794459963
 Nuclear Attr.   Energy =  -340.5596697068
 Kinetic         Energy =   114.5898794502
 <S^2> = 0.7542
 SCF time:  CPU 6.15 s  wall 14.27 s
 Final Alpha MO Eigenvalues
            1           2           3           4           5           6
    1 -19.0144147 -10.1710196  -1.2099468  -0.8299899  -0.6702928  -0.5886809
            7           8           9          10          11          12
    1  -0.5464768  -0.4862486  -0.3150905   0.0381984   0.0592523   0.0731968
           13          14
    1   0.1166153   0.1269926
 Final Beta MO Eigenvalues
            1           2           3           4           5           6
    1 -19.0102631 -10.1581848  -1.1996960  -0.7978909  -0.6593166  -0.5795830
            7           8           9          10          11          12
    1  -0.5015208  -0.4739380   0.0388566   0.0580138   0.0607251   0.0739842
           13
    1   0.1261085
 SCF   energy in the final basis set = -115.0316372894
 Total energy in the final basis set = -115.0316372894
 Analysis of SCF Wavefunction
 
 --------------------------------------------------------------
                    Orbital Energies (a.u.)
 --------------------------------------------------------------
 
 Alpha MOs
 -- Occupied --
-19.014 -10.171  -1.210  -0.830  -0.670  -0.589  -0.546  -0.486
 -0.315
 -- Virtual --
  0.038   0.059   0.073   0.117   0.127   0.154   0.175   0.226
  0.245   0.271   0.283   0.288   0.315   0.354   0.419   0.556
  0.559   0.592   0.630   0.660   0.678   0.698   0.794   0.811
  0.835   0.897   1.003   1.066   1.076   1.112   1.156   1.200
  1.260   1.319   1.372   1.449   1.497   1.547   1.582   1.643
  1.934   1.963   2.156   2.319   2.345   2.525   2.576   2.787
  2.819   3.023   3.090   3.121   3.168   3.253   3.313   3.328
  3.360   3.450   3.492   3.657   3.774   3.791   3.892   3.972
  4.100   4.210   4.218   4.320   4.372   4.620   5.033   5.205
  5.213   5.301   5.375   5.569   5.635   5.718   5.871   6.114
  6.573   7.013   7.199   7.216   7.264   7.561   7.683  24.261
 27.266  28.049  28.106  40.903  41.017  41.127  41.145  41.241
 43.796  43.813  43.839  43.909  43.973  45.616  45.961  46.397
 49.831
 
 Beta MOs
 -- Occupied --
-19.010 -10.158  -1.200  -0.798  -0.659  -0.580  -0.502  -0.474
 -- Virtual --
  0.039   0.058   0.061   0.074   0.126   0.147   0.156   0.181
  0.230   0.251   0.275   0.288   0.293   0.317   0.366   0.424
  0.564   0.575   0.600   0.672   0.676   0.693   0.715   0.812
  0.832   0.859   0.905   1.008   1.082   1.087   1.121   1.169
  1.208   1.273   1.332   1.380   1.458   1.504   1.555   1.592
  1.653   1.945   1.981   2.162   2.326   2.355   2.537   2.593
  2.799   2.891   3.057   3.117   3.145   3.202   3.293   3.340
  3.365   3.391   3.496   3.543   3.692   3.779   3.803   3.904
  3.981   4.103   4.214   4.229   4.331   4.381   4.623   5.053
  5.214   5.224   5.311   5.387   5.577   5.642   5.728   5.888
  6.117   6.581   7.031   7.206   7.229   7.279   7.569   7.687
 24.275  27.302  28.058  28.115  40.934  41.025  41.150  41.169
 41.247  43.807  43.826  43.850  43.910  43.974  45.629  45.964
 46.399  49.835
 --------------------------------------------------------------
 
          Ground-State Mulliken Net Atomic Charges

     Atom                 Charge (a.u.)    Spin (a.u.)
  --------------------------------------------------------
      1 C                    -0.201477       0.974248
      2 O                    -0.237989       0.090912
      3 H                     0.258094      -0.002760
      4 H                     0.086770      -0.028348
      5 H                     0.094603      -0.034052
  --------------------------------------------------------
  Sum of atomic charges =     0.000000
  Sum of spin   charges =     1.000000

 -----------------------------------------------------------------
                    Cartesian Multipole Moments
 -----------------------------------------------------------------
    Charge (ESU x 10^10)
                 0.0000
    Dipole Moment (Debye)
         X       1.4523      Y      -0.5061      Z      -0.2399
       Tot       1.5566
    Quadrupole Moments (Debye-Ang)
        XX     -10.4259     XY      -0.3545     YY     -14.2176
        XZ       3.1747     YZ       0.3222     ZZ     -12.7652
    Octapole Moments (Debye-Ang^2)
       XXX       0.1382    XXY      -0.1147    XYY      -0.2016
       YYY       0.6616    XXZ      -5.2594    XYZ       0.2263
       YYZ      -7.9585    XZZ       5.3527    YZZ       0.1030
       ZZZ     -21.6897
    Hexadecapole Moments (Debye-Ang^3)
      XXXX     -18.4537   XXXY       0.1695   XXYY      -6.3655
      XYYY       0.3896   YYYY     -16.6980   XXXZ       1.4451
      XXYZ       0.1276   XYYZ      -0.6576   YYYZ      -0.3308
      XXZZ     -12.6661   XYZZ       0.0879   YYZZ     -18.0249
      XZZZ       8.3227   YZZZ      -0.3017   ZZZZ     -81.1053
 -----------------------------------------------------------------
 Calculating analytic gradient of the SCF energy
 Gradient of AOints
            1           2           3           4           5
    1  -0.1024878   2.8769201  -3.2921607  -2.3177470   2.8354753
    2  -1.2180078  -0.1947770   0.0308212   1.2003252   0.1816383
    3   5.0782445  -6.7364254  -1.7611222   1.8879073   1.5313958
VDW warning: invalid dnorm for atom pair (0,1) 
VDW warning: invalid dnorm for atom pair (0,2) 
VDW warning: invalid dnorm for atom pair (0,3) 
VDW warning: invalid dnorm for atom pair (0,4) 
VDW warning: invalid dnorm for atom pair (1,2) 
VDW warning: invalid dnorm for atom pair (1,3) 
VDW warning: invalid dnorm for atom pair (1,4) 
VDW warning: invalid dnorm for atom pair (2,3) 
VDW warning: invalid dnorm for atom pair (2,4) 
VDW warning: invalid dnorm for atom pair (3,4) 

   VDWBR =  0.0000000000 h [*C6:  0.00000  HO:  0.00000  TT:  0.00000 kcal/mol]
   Evdw(C6) =  0.0000000000 Hartree  =   0.0000000000 KCal/mol

 Gradient of SCF Energy
            1           2           3           4           5
    1   0.0034931  -0.0140040   0.0117190   0.0019234  -0.0031315
    2   0.0058078  -0.0011889   0.0003361  -0.0032379  -0.0017170
    3  -0.0088442   0.0093388   0.0028314  -0.0027646  -0.0005615
 Max gradient component =       1.400E-02
 RMS gradient           =       6.268E-03
 Gradient time:  CPU 1.39 s  wall 4.88 s
 Geometry Optimization Parameters
   NAtoms,    NIC,     NZ,  NCons,   NDum,   NFix, NCnnct, MaxDiis
        5      20       5       0       0       0       0       0


** GEOMETRY OPTIMIZATION IN DELOCALIZED INTERNAL COORDINATES **
   Searching for a Minimum

   Optimization Cycle:   1

                       Coordinates (Angstroms)
     ATOM              X           Y           Z
      1  C         0.000000    0.000000    0.000000
      2  O         0.000000    0.000000    1.369981
      3  H         0.916740    0.000000    1.683995
      4  H         0.834618   -0.467983   -0.519636
      5  H        -0.997969   -0.069578   -0.416956
   Point Group: c1    Number of degrees of freedom:     9


   Energy is   -115.031637289


 Attempting to Generate Delocalized Internal Coordinates

  9 Hessian modes will be used to form the next step
  Hessian Eigenvalues:
     0.019616    0.045194    0.160000    0.160000    0.160000    0.349446
     0.355383    0.509802    0.535758

 Minimum Search - Taking Simple RFO Step
 Searching for Lamda that Minimizes Along All modes
 Value Taken    Lamda =  -0.00103784
 Step Taken.  Stepsize is  0.096207

                             Maximum     Tolerance    Cnvgd?
         Gradient           0.010915      0.000300      NO
         Displacement       0.054000      0.001200      NO
         Energy change     *********      0.000001      NO


 New Cartesian Coordinates Obtained by Inverse Iteration

 Displacement from previous Coordinates is:  0.073562
 ----------------------------------------------------
       Standard Nuclear Orientation (Angstroms)
    I     Atom         X            Y            Z
 ----------------------------------------------------
    1      C      -0.008184    -0.029388     0.009129
    2      O       0.007909     0.004013     1.365995
    3      H       0.913137     0.001781     1.677096
    4      H       0.837868    -0.456879    -0.513693
    5      H      -0.997340    -0.057088    -0.421143
 ----------------------------------------------------
 Nuclear Repulsion Energy =    35.4553731100 hartrees
 There are        9 alpha and        8 beta electrons
 Applying Cartesian multipole field
    Component          Value
    ---------          -----
     (2,0,0)        1.00000E-11
     (0,2,0)        2.00000E-11
     (0,0,2)       -3.00000E-11
 Nucleus-field energy     =    -0.0000000018 hartrees
 Requested basis set is G3large
 There are 38 shells and 114 basis functions
 A cutoff of  1.0D-11 yielded    737 shell pairs
 There are      6665 function pairs (      8172 Cartesian)
 Smallest overlap matrix eigenvalue = 1.27E-03
 Guess MOs from SCF MO coefficient file
Reading MOs from coefficient file
Reading MOs from coefficient file
 Long-range K will be added via erf
 Coulomb attenuation parameter = 0.435 bohr**(-1)
 An unrestricted Kohn-Sham SCF calculation will be
 performed using Pulay DIIS extrapolation
 Exchange:  wPBE + LR-HF      Correlation:  PBE
 Using SG-1 standard quadrature grid
 SCF converges when DIIS error is below 1.0E-08
Geometry optimization detected.  Setting ReadMinima to 0
Setting SaveMinima to 0
 Requested basis set is G3large
 There are 38 shells and 114 basis functions
 A cutoff of  1.0D-11 yielded    737 shell pairs
 There are      6665 function pairs (      8172 Cartesian)
 ---------------------------------------
  Cycle       Energy         DIIS Error
 ---------------------------------------
    1    -115.0432130952      1.12E-03
    2    -115.0321549064      1.58E-04
    3    -115.0322336277      8.26E-05
    4    -115.0322489636      4.28E-05
    5    -115.0322553518      1.34E-05
    6    -115.0322574822      4.29E-06
    7    -115.0322578350      9.99E-07
    8    -115.0322578605      2.00E-07
    9    -115.0322578619      6.90E-08
   10    -115.0322578626      1.99E-08
   11    -115.0322578621      7.76E-09 Convergence criterion met
 ---------------------------------------
 One-Electron    Energy =  -226.4912832210
 Total Coulomb   Energy =    91.0493498610
 Alpha Exchange  Energy =    -1.9370418691
 Beta  Exchange  Energy =    -1.7279146870
 DFT   Exchange  Energy =   -10.8352625631
 DFT Correlation Energy =    -0.5454784909
 Nuclear Repu.   Energy =    35.4553731081
 Nuclear Attr.   Energy =  -341.1348181097
 Kinetic         Energy =   114.6435348886
 <S^2> = 0.7543
 SCF time:  CPU 4.63 s  wall 8.82 s
 Final Alpha MO Eigenvalues
            1           2           3           4           5           6
    1 -19.0137755 -10.1674738  -1.2157671  -0.8319713  -0.6745407  -0.5927594
            7           8           9          10          11          12
    1  -0.5487590  -0.4868619  -0.3088756   0.0383720   0.0593920   0.0730768
           13          14
    1   0.1172805   0.1269230
 Final Beta MO Eigenvalues
            1           2           3           4           5           6
    1 -19.0095661 -10.1546977  -1.2054087  -0.7999980  -0.6630866  -0.5838237
            7           8           9          10          11          12
    1  -0.5029170  -0.4756762   0.0390712   0.0599392   0.0621621   0.0738335
           13
    1   0.1264073
 SCF   energy in the final basis set = -115.0322578621
 Total energy in the final basis set = -115.0322578621
 Analysis of SCF Wavefunction
 
 --------------------------------------------------------------
                    Orbital Energies (a.u.)
 --------------------------------------------------------------
 
 Alpha MOs
 -- Occupied --
-19.014 -10.167  -1.216  -0.832  -0.675  -0.593  -0.549  -0.487
 -0.309
 -- Virtual --
  0.038   0.059   0.073   0.117   0.127   0.155   0.174   0.227
  0.246   0.273   0.283   0.294   0.319   0.358   0.419   0.554
  0.565   0.597   0.631   0.661   0.679   0.699   0.801   0.814
  0.841   0.899   1.002   1.071   1.080   1.113   1.154   1.199
  1.261   1.307   1.374   1.456   1.506   1.553   1.586   1.662
  1.940   1.957   2.176   2.316   2.362   2.524   2.601   2.801
  2.804   3.019   3.085   3.129   3.168   3.265   3.297   3.332
  3.372   3.466   3.487   3.655   3.776   3.805   3.897   3.984
  4.112   4.217   4.241   4.313   4.378   4.667   5.035   5.211
  5.226   5.313   5.383   5.588   5.682   5.745   5.894   6.174
  6.604   7.015   7.207   7.268   7.278   7.579   7.684  24.308
 27.258  28.068  28.126  40.910  41.027  41.132  41.148  41.251
 43.798  43.816  43.841  43.915  43.978  45.621  45.974  46.443
 49.850
 
 Beta MOs
 -- Occupied --
-19.010 -10.155  -1.205  -0.800  -0.663  -0.584  -0.503  -0.476
 -- Virtual --
  0.039   0.060   0.062   0.074   0.126   0.148   0.157   0.180
  0.232   0.252   0.277   0.289   0.299   0.321   0.369   0.425
  0.569   0.575   0.605   0.675   0.677   0.694   0.715   0.817
  0.833   0.867   0.907   1.006   1.082   1.094   1.124   1.167
  1.206   1.275   1.320   1.381   1.464   1.513   1.560   1.597
  1.671   1.951   1.976   2.181   2.322   2.374   2.536   2.619
  2.812   2.877   3.052   3.118   3.152   3.207   3.299   3.323
  3.381   3.395   3.512   3.536   3.689   3.780   3.818   3.908
  3.991   4.114   4.220   4.251   4.325   4.384   4.670   5.055
  5.221   5.236   5.323   5.394   5.596   5.689   5.754   5.910
  6.178   6.612   7.033   7.224   7.273   7.293   7.586   7.687
 24.322  27.293  28.077  28.135  40.941  41.036  41.155  41.172
 41.257  43.809  43.829  43.852  43.916  43.979  45.633  45.977
 46.446  49.854
 --------------------------------------------------------------
 
          Ground-State Mulliken Net Atomic Charges

     Atom                 Charge (a.u.)    Spin (a.u.)
  --------------------------------------------------------
      1 C                    -0.213825       0.981747
      2 O                    -0.228244       0.090591
      3 H                     0.255522      -0.002261
      4 H                     0.089896      -0.033017
      5 H                     0.096651      -0.037061
  --------------------------------------------------------
  Sum of atomic charges =     0.000000
  Sum of spin   charges =     1.000000

 -----------------------------------------------------------------
                    Cartesian Multipole Moments
 -----------------------------------------------------------------
    Charge (ESU x 10^10)
                 0.0000
    Dipole Moment (Debye)
         X       1.4564      Y      -0.4477      Z      -0.2149
       Tot       1.5387
    Quadrupole Moments (Debye-Ang)
        XX     -10.3780     XY      -0.3648     YY     -14.2225
        XZ       3.1563     YZ       0.2813     ZZ     -12.7151
    Octapole Moments (Debye-Ang^2)
       XXX       0.2005    XXY       0.0754    XYY      -0.1750
       YYY       1.1859    XXZ      -5.2821    XYZ       0.2352
       YYZ      -7.9142    XZZ       5.2982    YZZ       0.2393
       ZZZ     -21.7095
    Hexadecapole Moments (Debye-Ang^3)
      XXXX     -18.3351   XXXY       0.1267   XXYY      -6.3764
      XYYY       0.3932   YYYY     -16.7753   XXXZ       1.2777
      XXYZ       0.0858   XYYZ      -0.7013   YYYZ      -0.4556
      XXZZ     -12.5402   XYZZ       0.0987   YYZZ     -17.8833
      XZZZ       8.0904   YZZZ      -0.3370   ZZZZ     -80.5103
 -----------------------------------------------------------------
 Calculating analytic gradient of the SCF energy
 Gradient of AOints
            1           2           3           4           5
    1   0.0934774   2.7696192  -3.3251809  -2.3970969   2.8591811
    2  -0.8124378  -0.3773292   0.0229369   1.1061692   0.0606608
    3   5.0537947  -6.7464125  -1.8267142   1.9125209   1.6068111
VDW warning: invalid dnorm for atom pair (0,1) 
VDW warning: invalid dnorm for atom pair (0,2) 
VDW warning: invalid dnorm for atom pair (0,3) 
VDW warning: invalid dnorm for atom pair (0,4) 
VDW warning: invalid dnorm for atom pair (1,2) 
VDW warning: invalid dnorm for atom pair (1,3) 
VDW warning: invalid dnorm for atom pair (1,4) 
VDW warning: invalid dnorm for atom pair (2,3) 
VDW warning: invalid dnorm for atom pair (2,4) 
VDW warning: invalid dnorm for atom pair (3,4) 

   VDWBR =  0.0000000000 h [*C6:  0.00000  HO:  0.00000  TT:  0.00000 kcal/mol]
   Evdw(C6) =  0.0000000000 Hartree  =   0.0000000000 KCal/mol

 Gradient of SCF Energy
            1           2           3           4           5
    1   0.0009704  -0.0009648   0.0005321  -0.0000044  -0.0005332
    2   0.0015612  -0.0007227   0.0004428  -0.0009050  -0.0003763
    3  -0.0018592   0.0036690  -0.0004850  -0.0006163  -0.0007086
 Max gradient component =       3.669E-03
 RMS gradient           =       1.280E-03
 Gradient time:  CPU 1.12 s  wall 1.33 s
 Geometry Optimization Parameters
   NAtoms,    NIC,     NZ,  NCons,   NDum,   NFix, NCnnct, MaxDiis
        5      20       5       0       0       0       0       0

 Cartesian Hessian Update
 Hessian Updated using BFGS Update


** GEOMETRY OPTIMIZATION IN DELOCALIZED INTERNAL COORDINATES **
   Searching for a Minimum

   Optimization Cycle:   2

                       Coordinates (Angstroms)
     ATOM              X           Y           Z
      1  C        -0.008184   -0.029388    0.009129
      2  O         0.007909    0.004013    1.365995
      3  H         0.913137    0.001781    1.677096
      4  H         0.837868   -0.456879   -0.513693
      5  H        -0.997340   -0.057088   -0.421143
   Point Group: c1    Number of degrees of freedom:     9


   Energy is   -115.032257862

 Hessian Updated using BFGS Update

  8 Hessian modes will be used to form the next step
  Hessian Eigenvalues:
     0.019020    0.040130    0.154923    0.163010    0.345281    0.353385
     0.465921    0.563697

 Minimum Search - Taking Simple RFO Step
 Searching for Lamda that Minimizes Along All modes
 Value Taken    Lamda =  -0.00010289
 Step Taken.  Stepsize is  0.050907

                             Maximum     Tolerance    Cnvgd?
         Gradient           0.002481      0.000300      NO
         Displacement       0.043346      0.001200      NO
         Energy change     -0.000621      0.000001      NO


 New Cartesian Coordinates Obtained by Inverse Iteration

 Displacement from previous Coordinates is:  0.032619
 ----------------------------------------------------
       Standard Nuclear Orientation (Angstroms)
    I     Atom         X            Y            Z
 ----------------------------------------------------
    1      C      -0.010840    -0.039710     0.010108
    2      O       0.009958     0.012964     1.361595
    3      H       0.912061    -0.003663     1.678358
    4      H       0.840910    -0.451220    -0.513136
    5      H      -0.998699    -0.055931    -0.419542
 ----------------------------------------------------
 Nuclear Repulsion Energy =    35.5386958362 hartrees
 There are        9 alpha and        8 beta electrons
 Applying Cartesian multipole field
    Component          Value
    ---------          -----
     (2,0,0)        1.00000E-11
     (0,2,0)        2.00000E-11
     (0,0,2)       -3.00000E-11
 Nucleus-field energy     =    -0.0000000018 hartrees
 Requested basis set is G3large
 There are 38 shells and 114 basis functions
 A cutoff of  1.0D-11 yielded    737 shell pairs
 There are      6665 function pairs (      8172 Cartesian)
 Smallest overlap matrix eigenvalue = 1.25E-03
 Guess MOs from SCF MO coefficient file
Reading MOs from coefficient file
Reading MOs from coefficient file
 Long-range K will be added via erf
 Coulomb attenuation parameter = 0.435 bohr**(-1)
 An unrestricted Kohn-Sham SCF calculation will be
 performed using Pulay DIIS extrapolation
 Exchange:  wPBE + LR-HF      Correlation:  PBE
 Using SG-1 standard quadrature grid
 SCF converges when DIIS error is below 1.0E-08
Geometry optimization detected.  Setting ReadMinima to 0
Setting SaveMinima to 0
 Requested basis set is G3large
 There are 38 shells and 114 basis functions
 A cutoff of  1.0D-11 yielded    737 shell pairs
 There are      6665 function pairs (      8172 Cartesian)
 ---------------------------------------
  Cycle       Energy         DIIS Error
 ---------------------------------------
    1    -115.0340001672      5.27E-04
    2    -115.0322988358      6.61E-05
    3    -115.0323164034      2.07E-05
    4    -115.0323195766      9.96E-06
    5    -115.0323202872      6.27E-06
    6    -115.0323205140      1.71E-06
    7    -115.0323205265      4.07E-07
    8    -115.0323205325      8.20E-08
    9    -115.0323205325      3.33E-08
   10    -115.0323205327      1.18E-08
   11    -115.0323205324      4.36E-09 Convergence criterion met
 ---------------------------------------
 One-Electron    Energy =  -226.6520165160
 Total Coulomb   Energy =    91.1303955990
 Alpha Exchange  Energy =    -1.9371984991
 Beta  Exchange  Energy =    -1.7282181091
 DFT   Exchange  Energy =   -10.8382099439
 DFT Correlation Energy =    -0.5457688976
 Nuclear Repu.   Energy =    35.5386958344
 Nuclear Attr.   Energy =  -341.3085415297
 Kinetic         Energy =   114.6565250137
 <S^2> = 0.7544
 SCF time:  CPU 4.71 s  wall 8.27 s
 Final Alpha MO Eigenvalues
            1           2           3           4           5           6
    1 -19.0136886 -10.1661367  -1.2171587  -0.8324066  -0.6757802  -0.5939518
            7           8           9          10          11          12
    1  -0.5488440  -0.4873347  -0.3063312   0.0383067   0.0594573   0.0729869
           13          14
    1   0.1177098   0.1267202
 Final Beta MO Eigenvalues
            1           2           3           4           5           6
    1 -19.0094359 -10.1533891  -1.2067237  -0.8005402  -0.6641335  -0.5850193
            7           8           9          10          11          12
    1  -0.5020974  -0.4770424   0.0390215   0.0602301   0.0632509   0.0737154
           13
    1   0.1265570
 SCF   energy in the final basis set = -115.0323205324
 Total energy in the final basis set = -115.0323205324
 Analysis of SCF Wavefunction
 
 --------------------------------------------------------------
                    Orbital Energies (a.u.)
 --------------------------------------------------------------
 
 Alpha MOs
 -- Occupied --
-19.014 -10.166  -1.217  -0.832  -0.676  -0.594  -0.549  -0.487
 -0.306
 -- Virtual --
  0.038   0.059   0.073   0.118   0.127   0.155   0.174   0.226
  0.246   0.273   0.283   0.296   0.323   0.359   0.420   0.553
  0.567   0.598   0.631   0.659   0.678   0.700   0.804   0.814
  0.845   0.900   1.000   1.070   1.083   1.113   1.156   1.199
  1.261   1.302   1.375   1.457   1.507   1.555   1.588   1.670
  1.939   1.955   2.182   2.316   2.369   2.524   2.611   2.798
  2.805   3.017   3.083   3.132   3.167   3.268   3.293   3.334
  3.379   3.469   3.486   3.653   3.777   3.811   3.898   3.985
  4.116   4.217   4.249   4.309   4.378   4.685   5.035   5.212
  5.234   5.311   5.384   5.596   5.687   5.751   5.900   6.198
  6.616   7.014   7.208   7.271   7.284   7.587   7.684  24.324
 27.255  28.075  28.132  40.913  41.031  41.135  41.148  41.255
 43.796  43.818  43.841  43.917  43.981  45.622  45.975  46.455
 49.855
 
 Beta MOs
 -- Occupied --
-19.009 -10.153  -1.207  -0.801  -0.664  -0.585  -0.502  -0.477
 -- Virtual --
  0.039   0.060   0.063   0.074   0.127   0.149   0.157   0.180
  0.232   0.252   0.277   0.289   0.300   0.325   0.370   0.425
  0.570   0.575   0.606   0.675   0.677   0.694   0.715   0.819
  0.833   0.872   0.908   1.004   1.081   1.096   1.124   1.169
  1.206   1.275   1.316   1.381   1.465   1.514   1.562   1.598
  1.679   1.950   1.973   2.187   2.322   2.381   2.536   2.629
  2.814   2.872   3.048   3.117   3.155   3.208   3.296   3.324
  3.384   3.400   3.516   3.532   3.687   3.780   3.823   3.909
  3.992   4.118   4.220   4.260   4.321   4.384   4.687   5.056
  5.223   5.245   5.321   5.395   5.604   5.694   5.761   5.917
  6.202   6.624   7.032   7.225   7.278   7.297   7.594   7.687
 24.339  27.291  28.084  28.141  40.944  41.040  41.157  41.173
 41.260  43.807  43.830  43.853  43.918  43.981  45.635  45.977
 46.458  49.859
 --------------------------------------------------------------
 
          Ground-State Mulliken Net Atomic Charges

     Atom                 Charge (a.u.)    Spin (a.u.)
  --------------------------------------------------------
      1 C                    -0.219325       0.983894
      2 O                    -0.224637       0.091007
      3 H                     0.254979      -0.002088
      4 H                     0.091375      -0.034839
      5 H                     0.097607      -0.037974
  --------------------------------------------------------
  Sum of atomic charges =     0.000000
  Sum of spin   charges =     1.000000

 -----------------------------------------------------------------
                    Cartesian Multipole Moments
 -----------------------------------------------------------------
    Charge (ESU x 10^10)
                 0.0000
    Dipole Moment (Debye)
         X       1.4636      Y      -0.4492      Z      -0.1901
       Tot       1.5427
    Quadrupole Moments (Debye-Ang)
        XX     -10.3589     XY      -0.3824     YY     -14.2329
        XZ       3.1532     YZ       0.2227     ZZ     -12.6655
    Octapole Moments (Debye-Ang^2)
       XXX       0.2266    XXY       0.0917    XYY      -0.1628
       YYY       1.2691    XXZ      -5.2638    XYZ       0.2075
       YYZ      -7.8731    XZZ       5.3138    YZZ       0.1669
       ZZZ     -21.5362
    Hexadecapole Moments (Debye-Ang^3)
      XXXX     -18.3206   XXXY       0.0945   XXYY      -6.3949
      XYYY       0.3876   YYYY     -16.8459   XXXZ       1.2311
      XXYZ      -0.0010   XYYZ      -0.7116   YYYZ      -0.6741
      XXZZ     -12.4571   XYZZ       0.0535   YYZZ     -17.8046
      XZZZ       8.0834   YZZZ      -0.6314   ZZZZ     -79.8765
 -----------------------------------------------------------------
 Calculating analytic gradient of the SCF energy
 Gradient of AOints
            1           2           3           4           5
    1   0.1491259   2.7219028  -3.3183226  -2.4315236   2.8788176
    2  -0.6468320  -0.5218791   0.0645217   1.0722876   0.0319018
    3   5.0729094  -6.7269575  -1.8697417   1.9156059   1.6081838
VDW warning: invalid dnorm for atom pair (0,1) 
VDW warning: invalid dnorm for atom pair (0,2) 
VDW warning: invalid dnorm for atom pair (0,3) 
VDW warning: invalid dnorm for atom pair (0,4) 
VDW warning: invalid dnorm for atom pair (1,2) 
VDW warning: invalid dnorm for atom pair (1,3) 
VDW warning: invalid dnorm for atom pair (1,4) 
VDW warning: invalid dnorm for atom pair (2,3) 
VDW warning: invalid dnorm for atom pair (2,4) 
VDW warning: invalid dnorm for atom pair (3,4) 

   VDWBR =  0.0000000000 h [*C6:  0.00000  HO:  0.00000  TT:  0.00000 kcal/mol]
   Evdw(C6) =  0.0000000000 Hartree  =   0.0000000000 KCal/mol

 Gradient of SCF Energy
            1           2           3           4           5
    1   0.0000154   0.0004174  -0.0004086  -0.0002029   0.0001787
    2   0.0005775  -0.0005396   0.0003177  -0.0003102  -0.0000454
    3   0.0005625  -0.0002616  -0.0001793  -0.0000227  -0.0000989
 Max gradient component =       5.775E-04
 RMS gradient           =       3.332E-04
 Gradient time:  CPU 1.14 s  wall 1.32 s
 Geometry Optimization Parameters
   NAtoms,    NIC,     NZ,  NCons,   NDum,   NFix, NCnnct, MaxDiis
        5      20       5       0       0       0       0       0

 Cartesian Hessian Update
 Hessian Updated using BFGS Update


** GEOMETRY OPTIMIZATION IN DELOCALIZED INTERNAL COORDINATES **
   Searching for a Minimum

   Optimization Cycle:   3

                       Coordinates (Angstroms)
     ATOM              X           Y           Z
      1  C        -0.010840   -0.039710    0.010108
      2  O         0.009958    0.012964    1.361595
      3  H         0.912061   -0.003663    1.678358
      4  H         0.840910   -0.451220   -0.513136
      5  H        -0.998699   -0.055931   -0.419542
   Point Group: c1    Number of degrees of freedom:     9


   Energy is   -115.032320532

 Hessian Updated using BFGS Update

  9 Hessian modes will be used to form the next step
  Hessian Eigenvalues:
     0.013540    0.036287    0.158070    0.160782    0.161936    0.349396
     0.356796    0.529682    0.572085

 Minimum Search - Taking Simple RFO Step
 Searching for Lamda that Minimizes Along All modes
 Value Taken    Lamda =  -0.00001996
 Step Taken.  Stepsize is  0.036157

                             Maximum     Tolerance    Cnvgd?
         Gradient           0.000519      0.000300      NO
         Displacement       0.031477      0.001200      NO
         Energy change     -0.000063      0.000001      NO


 New Cartesian Coordinates Obtained by Inverse Iteration

 Displacement from previous Coordinates is:  0.022795
 ----------------------------------------------------
       Standard Nuclear Orientation (Angstroms)
    I     Atom         X            Y            Z
 ----------------------------------------------------
    1      C      -0.012319    -0.045133     0.010327
    2      O       0.010574     0.020843     1.360835
    3      H       0.912058    -0.009051     1.678951
    4      H       0.843162    -0.447506    -0.513320
    5      H      -1.000084    -0.056714    -0.419410
 ----------------------------------------------------
 Nuclear Repulsion Energy =    35.5411624905 hartrees
 There are        9 alpha and        8 beta electrons
 Applying Cartesian multipole field
    Component          Value
    ---------          -----
     (2,0,0)        1.00000E-11
     (0,2,0)        2.00000E-11
     (0,0,2)       -3.00000E-11
 Nucleus-field energy     =    -0.0000000018 hartrees
 Requested basis set is G3large
 There are 38 shells and 114 basis functions
 A cutoff of  1.0D-11 yielded    737 shell pairs
 There are      6665 function pairs (      8172 Cartesian)
 Smallest overlap matrix eigenvalue = 1.24E-03
 Guess MOs from SCF MO coefficient file
Reading MOs from coefficient file
Reading MOs from coefficient file
 Long-range K will be added via erf
 Coulomb attenuation parameter = 0.435 bohr**(-1)
 An unrestricted Kohn-Sham SCF calculation will be
 performed using Pulay DIIS extrapolation
 Exchange:  wPBE + LR-HF      Correlation:  PBE
 Using SG-1 standard quadrature grid
 SCF converges when DIIS error is below 1.0E-08
Geometry optimization detected.  Setting ReadMinima to 0
Setting SaveMinima to 0
 Requested basis set is G3large
 There are 38 shells and 114 basis functions
 A cutoff of  1.0D-11 yielded    737 shell pairs
 There are      6665 function pairs (      8172 Cartesian)
 ---------------------------------------
  Cycle       Energy         DIIS Error
 ---------------------------------------
    1    -115.0321041566      3.28E-04
    2    -115.0323248256      4.42E-05
    3    -115.0323323725      1.54E-05
    4    -115.0323335971      1.14E-05
    5    -115.0323339789      3.15E-06
    6    -115.0323340773      1.25E-06
    7    -115.0323340913      4.46E-07
    8    -115.0323341016      9.18E-08
    9    -115.0323341035      3.02E-08
   10    -115.0323341037      7.83E-09 Convergence criterion met
 ---------------------------------------
 One-Electron    Energy =  -226.6576548170
 Total Coulomb   Energy =    91.1335353881
 Alpha Exchange  Energy =    -1.9371583440
 Beta  Exchange  Energy =    -1.7282350295
 DFT   Exchange  Energy =   -10.8381812963
 DFT Correlation Energy =    -0.5458024936
 Nuclear Repu.   Energy =    35.5411624887
 Nuclear Attr.   Energy =  -341.3136770209
 Kinetic         Energy =   114.6560222039
 <S^2> = 0.7544
 SCF time:  CPU 4.30 s  wall 9.45 s
 Final Alpha MO Eigenvalues
            1           2           3           4           5           6
    1 -19.0137124 -10.1658581  -1.2171474  -0.8323237  -0.6760823  -0.5940857
            7           8           9          10          11          12
    1  -0.5482348  -0.4880262  -0.3053796   0.0382513   0.0594673   0.0729193
           13          14
    1   0.1179735   0.1265325
 Final Beta MO Eigenvalues
            1           2           3           4           5           6
    1 -19.0094465 -10.1531088  -1.2066916  -0.8003712  -0.6644393  -0.5851606
            7           8           9          10          11          12
    1  -0.5010015  -0.4782633   0.0389746   0.0602982   0.0636715   0.0736226
           13
    1   0.1266055
 SCF   energy in the final basis set = -115.0323341037
 Total energy in the final basis set = -115.0323341037
 Analysis of SCF Wavefunction
 
 --------------------------------------------------------------
                    Orbital Energies (a.u.)
 --------------------------------------------------------------
 
 Alpha MOs
 -- Occupied --
-19.014 -10.166  -1.217  -0.832  -0.676  -0.594  -0.548  -0.488
 -0.305
 -- Virtual --
  0.038   0.059   0.073   0.118   0.127   0.155   0.173   0.226
  0.246   0.274   0.283   0.297   0.326   0.360   0.420   0.552
  0.568   0.598   0.631   0.657   0.678   0.700   0.805   0.814
  0.847   0.901   0.998   1.069   1.084   1.113   1.158   1.198
  1.260   1.299   1.375   1.458   1.507   1.555   1.589   1.673
  1.936   1.953   2.185   2.317   2.372   2.524   2.617   2.796
  2.805   3.014   3.080   3.134   3.166   3.267   3.293   3.334
  3.381   3.467   3.486   3.651   3.777   3.811   3.898   3.984
  4.116   4.215   4.253   4.305   4.376   4.692   5.034   5.213
  5.240   5.307   5.382   5.601   5.687   5.750   5.898   6.205
  6.617   7.012   7.208   7.272   7.284   7.589   7.684  24.326
 27.253  28.079  28.134  40.914  41.031  41.136  41.148  41.255
 43.794  43.819  43.841  43.918  43.981  45.621  45.975  46.457
 49.855
 
 Beta MOs
 -- Occupied --
-19.009 -10.153  -1.207  -0.800  -0.664  -0.585  -0.501  -0.478
 -- Virtual --
  0.039   0.060   0.064   0.074   0.127   0.149   0.157   0.180
  0.232   0.252   0.277   0.289   0.300   0.328   0.371   0.425
  0.570   0.575   0.606   0.673   0.677   0.694   0.714   0.820
  0.833   0.874   0.909   1.002   1.079   1.098   1.124   1.171
  1.205   1.274   1.313   1.380   1.466   1.514   1.562   1.599
  1.682   1.948   1.972   2.190   2.322   2.384   2.536   2.636
  2.814   2.869   3.045   3.115   3.156   3.208   3.292   3.327
  3.384   3.403   3.515   3.531   3.686   3.780   3.824   3.908
  3.990   4.118   4.218   4.264   4.318   4.382   4.694   5.055
  5.223   5.250   5.317   5.394   5.608   5.694   5.760   5.916
  6.208   6.625   7.031   7.225   7.278   7.297   7.596   7.687
 24.341  27.288  28.087  28.143  40.944  41.040  41.158  41.173
 41.260  43.805  43.832  43.853  43.919  43.982  45.634  45.977
 46.459  49.860
 --------------------------------------------------------------
 
          Ground-State Mulliken Net Atomic Charges

     Atom                 Charge (a.u.)    Spin (a.u.)
  --------------------------------------------------------
      1 C                    -0.221215       0.985499
      2 O                    -0.223837       0.090916
      3 H                     0.254636      -0.002037
      4 H                     0.092316      -0.035924
      5 H                     0.098100      -0.038454
  --------------------------------------------------------
  Sum of atomic charges =     0.000000
  Sum of spin   charges =     1.000000

 -----------------------------------------------------------------
                    Cartesian Multipole Moments
 -----------------------------------------------------------------
    Charge (ESU x 10^10)
                 0.0000
    Dipole Moment (Debye)
         X       1.4684      Y      -0.4593      Z      -0.1870
       Tot       1.5499
    Quadrupole Moments (Debye-Ang)
        XX     -10.3474     XY      -0.3973     YY     -14.2434
        XZ       3.1497     YZ       0.1736     ZZ     -12.6548
    Octapole Moments (Debye-Ang^2)
       XXX       0.2497    XXY       0.0792    XYY      -0.1533
       YYY       1.2703    XXZ      -5.2670    XYZ       0.1797
       YYZ      -7.8667    XZZ       5.3231    YZZ       0.0798
       ZZZ     -21.5030
    Hexadecapole Moments (Debye-Ang^3)
      XXXX     -18.3215   XXXY       0.0713   XXYY      -6.4094
      XYYY       0.3824   YYYY     -16.8939   XXXZ       1.2131
      XXYZ      -0.0768   XYYZ      -0.7163   YYYZ      -0.8635
      XXZZ     -12.4414   XYZZ       0.0095   YYZZ     -17.7977
      XZZZ       8.0773   YZZZ      -0.9044   ZZZZ     -79.7694
 -----------------------------------------------------------------
 Calculating analytic gradient of the SCF energy
 Gradient of AOints
            1           2           3           4           5
    1   0.1723330   2.7030331  -3.3144891  -2.4485839   2.8877069
    2  -0.5507661  -0.6312996   0.1051447   1.0538923   0.0230287
    3   5.0691273  -6.7174265  -1.8795904   1.9178742   1.6100154
VDW warning: invalid dnorm for atom pair (0,1) 
VDW warning: invalid dnorm for atom pair (0,2) 
VDW warning: invalid dnorm for atom pair (0,3) 
VDW warning: invalid dnorm for atom pair (0,4) 
VDW warning: invalid dnorm for atom pair (1,2) 
VDW warning: invalid dnorm for atom pair (1,3) 
VDW warning: invalid dnorm for atom pair (1,4) 
VDW warning: invalid dnorm for atom pair (2,3) 
VDW warning: invalid dnorm for atom pair (2,4) 
VDW warning: invalid dnorm for atom pair (3,4) 

   VDWBR =  0.0000000000 h [*C6:  0.00000  HO:  0.00000  TT:  0.00000 kcal/mol]
   Evdw(C6) =  0.0000000000 Hartree  =   0.0000000000 KCal/mol

 Gradient of SCF Energy
            1           2           3           4           5
    1  -0.0000490   0.0002738  -0.0002109  -0.0000706   0.0000567
    2   0.0001862  -0.0002814   0.0001765  -0.0001336   0.0000524
    3   0.0006943  -0.0006474   0.0000477  -0.0000498  -0.0000448
 Max gradient component =       6.943E-04
 RMS gradient           =       2.833E-04
 Gradient time:  CPU 1.07 s  wall 1.36 s
 Geometry Optimization Parameters
   NAtoms,    NIC,     NZ,  NCons,   NDum,   NFix, NCnnct, MaxDiis
        5      20       5       0       0       0       0       0

 Cartesian Hessian Update
 Hessian Updated using BFGS Update


** GEOMETRY OPTIMIZATION IN DELOCALIZED INTERNAL COORDINATES **
   Searching for a Minimum

   Optimization Cycle:   4

                       Coordinates (Angstroms)
     ATOM              X           Y           Z
      1  C        -0.012319   -0.045133    0.010327
      2  O         0.010574    0.020843    1.360835
      3  H         0.912058   -0.009051    1.678951
      4  H         0.843162   -0.447506   -0.513320
      5  H        -1.000084   -0.056714   -0.419410
   Point Group: c1    Number of degrees of freedom:     9


   Energy is   -115.032334104

 Hessian Updated using BFGS Update

  9 Hessian modes will be used to form the next step
  Hessian Eigenvalues:
     0.007960    0.038617    0.158060    0.160676    0.166493    0.349544
     0.356900    0.523816    0.563808

 Minimum Search - Taking Simple RFO Step
 Searching for Lamda that Minimizes Along All modes
 Value Taken    Lamda =  -0.00000724
 Step Taken.  Stepsize is  0.027737

                             Maximum     Tolerance    Cnvgd?
         Gradient           0.000448      0.000300      NO
         Displacement       0.023000      0.001200      NO
         Energy change     -0.000014      0.000001      NO


 New Cartesian Coordinates Obtained by Inverse Iteration

 Displacement from previous Coordinates is:  0.017970
 ----------------------------------------------------
       Standard Nuclear Orientation (Angstroms)
    I     Atom         X            Y            Z
 ----------------------------------------------------
    1      C      -0.013270    -0.047479     0.010288
    2      O       0.010736     0.027403     1.360758
    3      H       0.912157    -0.014189     1.678199
    4      H       0.844722    -0.444843    -0.512507
    5      H      -1.000956    -0.058454    -0.419353
 ----------------------------------------------------
 Nuclear Repulsion Energy =    35.5342659253 hartrees
 There are        9 alpha and        8 beta electrons
 Applying Cartesian multipole field
    Component          Value
    ---------          -----
     (2,0,0)        1.00000E-11
     (0,2,0)        2.00000E-11
     (0,0,2)       -3.00000E-11
 Nucleus-field energy     =    -0.0000000018 hartrees
 Requested basis set is G3large
 There are 38 shells and 114 basis functions
 A cutoff of  1.0D-11 yielded    737 shell pairs
 There are      6665 function pairs (      8172 Cartesian)
 Smallest overlap matrix eigenvalue = 1.24E-03
 Guess MOs from SCF MO coefficient file
Reading MOs from coefficient file
Reading MOs from coefficient file
 Long-range K will be added via erf
 Coulomb attenuation parameter = 0.435 bohr**(-1)
 An unrestricted Kohn-Sham SCF calculation will be
 performed using Pulay DIIS extrapolation
 Exchange:  wPBE + LR-HF      Correlation:  PBE
 Using SG-1 standard quadrature grid
 SCF converges when DIIS error is below 1.0E-08
Geometry optimization detected.  Setting ReadMinima to 0
Setting SaveMinima to 0
 Requested basis set is G3large
 There are 38 shells and 114 basis functions
 A cutoff of  1.0D-11 yielded    737 shell pairs
 There are      6665 function pairs (      8172 Cartesian)
 ---------------------------------------
  Cycle       Energy         DIIS Error
 ---------------------------------------
    1    -115.0321303355      2.27E-04
    2    -115.0323340171      3.27E-05
    3    -115.0323376601      1.02E-05
    4    -115.0323381794      7.27E-06
    5    -115.0323383595      2.22E-06
    6    -115.0323384003      7.84E-07
    7    -115.0323384035      2.99E-07
    8    -115.0323384137      7.42E-08
    9    -115.0323384131      2.46E-08
   10    -115.0323384133      5.85E-09 Convergence criterion met
 ---------------------------------------
 One-Electron    Energy =  -226.6446924370
 Total Coulomb   Energy =    91.1271875504
 Alpha Exchange  Energy =    -1.9371291559
 Beta  Exchange  Energy =    -1.7282215095
 DFT   Exchange  Energy =   -10.8379498209
 DFT Correlation Energy =    -0.5457989639
 Nuclear Repu.   Energy =    35.5342659235
 Nuclear Attr.   Energy =  -341.2995770925
 Kinetic         Energy =   114.6548846555
 <S^2> = 0.7545
 SCF time:  CPU 4.21 s  wall 10.01 s
 Final Alpha MO Eigenvalues
            1           2           3           4           5           6
    1 -19.0137432 -10.1657843  -1.2169951  -0.8321896  -0.6762138  -0.5940555
            7           8           9          10          11          12
    1  -0.5476562  -0.4887024  -0.3050091   0.0382052   0.0594758   0.0728776
           13          14
    1   0.1181373   0.1263855
 Final Beta MO Eigenvalues
            1           2           3           4           5           6
    1 -19.0094705 -10.1530310  -1.2065330  -0.8001403  -0.6646247  -0.5851252
            7           8           9          10          11          12
    1  -0.5000583  -0.4793228   0.0389332   0.0603287   0.0638320   0.0735617
           13
    1   0.1266266
 SCF   energy in the final basis set = -115.0323384133
 Total energy in the final basis set = -115.0323384133
 Analysis of SCF Wavefunction
 
 --------------------------------------------------------------
                    Orbital Energies (a.u.)
 --------------------------------------------------------------
 
 Alpha MOs
 -- Occupied --
-19.014 -10.166  -1.217  -0.832  -0.676  -0.594  -0.548  -0.489
 -0.305
 -- Virtual --
  0.038   0.059   0.073   0.118   0.126   0.155   0.173   0.225
  0.246   0.274   0.283   0.297   0.328   0.360   0.420   0.551
  0.569   0.598   0.630   0.656   0.677   0.700   0.806   0.814
  0.848   0.902   0.997   1.068   1.085   1.112   1.160   1.197
  1.259   1.297   1.374   1.458   1.507   1.556   1.589   1.675
  1.934   1.953   2.187   2.317   2.373   2.524   2.620   2.794
  2.806   3.012   3.078   3.135   3.166   3.266   3.294   3.334
  3.383   3.466   3.486   3.651   3.776   3.811   3.898   3.983
  4.115   4.215   4.256   4.303   4.374   4.696   5.033   5.213
  5.245   5.303   5.381   5.605   5.688   5.749   5.896   6.206
  6.617   7.012   7.208   7.273   7.284   7.589   7.684  24.326
 27.251  28.080  28.134  40.914  41.031  41.136  41.147  41.255
 43.792  43.821  43.841  43.918  43.981  45.621  45.975  46.456
 49.855
 
 Beta MOs
 -- Occupied --
-19.009 -10.153  -1.207  -0.800  -0.665  -0.585  -0.500  -0.479
 -- Virtual --
  0.039   0.060   0.064   0.074   0.127   0.150   0.157   0.180
  0.231   0.252   0.277   0.289   0.301   0.331   0.371   0.425
  0.569   0.575   0.606   0.672   0.677   0.694   0.713   0.821
  0.834   0.875   0.910   1.001   1.079   1.098   1.123   1.173
  1.204   1.273   1.312   1.380   1.466   1.514   1.562   1.600
  1.684   1.946   1.971   2.192   2.322   2.384   2.536   2.639
  2.815   2.868   3.043   3.114   3.157   3.209   3.290   3.329
  3.384   3.405   3.513   3.531   3.685   3.780   3.824   3.908
  3.989   4.118   4.217   4.266   4.316   4.379   4.698   5.055
  5.224   5.256   5.313   5.393   5.612   5.694   5.758   5.913
  6.209   6.624   7.030   7.225   7.278   7.298   7.596   7.688
 24.341  27.287  28.089  28.143  40.945  41.040  41.158  41.172
 41.260  43.804  43.833  43.853  43.919  43.982  45.634  45.978
 46.459  49.859
 --------------------------------------------------------------
 
          Ground-State Mulliken Net Atomic Charges

     Atom                 Charge (a.u.)    Spin (a.u.)
  --------------------------------------------------------
      1 C                    -0.221944       0.986293
      2 O                    -0.223589       0.090872
      3 H                     0.254335      -0.002034
      4 H                     0.092817      -0.036509
      5 H                     0.098381      -0.038622
  --------------------------------------------------------
  Sum of atomic charges =     0.000000
  Sum of spin   charges =     1.000000

 -----------------------------------------------------------------
                    Cartesian Multipole Moments
 -----------------------------------------------------------------
    Charge (ESU x 10^10)
                 0.0000
    Dipole Moment (Debye)
         X       1.4709      Y      -0.4737      Z      -0.1891
       Tot       1.5568
    Quadrupole Moments (Debye-Ang)
        XX     -10.3392     XY      -0.4097     YY     -14.2498
        XZ       3.1449     YZ       0.1327     ZZ     -12.6605
    Octapole Moments (Debye-Ang^2)
       XXX       0.2674    XXY       0.0520    XYY      -0.1470
       YYY       1.2258    XXZ      -5.2730    XYZ       0.1528
       YYZ      -7.8668    XZZ       5.3201    YZZ      -0.0085
       ZZZ     -21.5156
    Hexadecapole Moments (Debye-Ang^3)
      XXXX     -18.3186   XXXY       0.0536   XXYY      -6.4173
      XYYY       0.3774   YYYY     -16.9219   XXXZ       1.2034
      XXYZ      -0.1406   XYYZ      -0.7179   YYYZ      -1.0166
      XXZZ     -12.4445   XYZZ      -0.0309   YYZZ     -17.7987
      XZZZ       8.0542   YZZZ      -1.1408   ZZZZ     -79.7915
 -----------------------------------------------------------------
 Calculating analytic gradient of the SCF energy
 Gradient of AOints
            1           2           3           4           5
    1   0.1850325   2.6958100  -3.3138575  -2.4594282   2.8924431
    2  -0.4998257  -0.7132462   0.1428278   1.0451316   0.0251125
    3   5.0653113  -6.7147315  -1.8769222   1.9157344   1.6106080
VDW warning: invalid dnorm for atom pair (0,1) 
VDW warning: invalid dnorm for atom pair (0,2) 
VDW warning: invalid dnorm for atom pair (0,3) 
VDW warning: invalid dnorm for atom pair (0,4) 
VDW warning: invalid dnorm for atom pair (1,2) 
VDW warning: invalid dnorm for atom pair (1,3) 
VDW warning: invalid dnorm for atom pair (1,4) 
VDW warning: invalid dnorm for atom pair (2,3) 
VDW warning: invalid dnorm for atom pair (2,4) 
VDW warning: invalid dnorm for atom pair (3,4) 

   VDWBR =  0.0000000000 h [*C6:  0.00000  HO:  0.00000  TT:  0.00000 kcal/mol]
   Evdw(C6) =  0.0000000000 Hartree  =   0.0000000000 KCal/mol

 Gradient of SCF Energy
            1           2           3           4           5
    1   0.0000195   0.0000267  -0.0000323  -0.0000340   0.0000200
    2  -0.0000248  -0.0000605   0.0000340  -0.0000154   0.0000667
    3   0.0002322  -0.0002775   0.0000220   0.0000011   0.0000223
 Max gradient component =       2.775E-04
 RMS gradient           =       9.857E-05
 Gradient time:  CPU 1.11 s  wall 1.24 s
 Geometry Optimization Parameters
   NAtoms,    NIC,     NZ,  NCons,   NDum,   NFix, NCnnct, MaxDiis
        5      20       5       0       0       0       0       0

 Cartesian Hessian Update
 Hessian Updated using BFGS Update


** GEOMETRY OPTIMIZATION IN DELOCALIZED INTERNAL COORDINATES **
   Searching for a Minimum

   Optimization Cycle:   5

                       Coordinates (Angstroms)
     ATOM              X           Y           Z
      1  C        -0.013270   -0.047479    0.010288
      2  O         0.010736    0.027403    1.360758
      3  H         0.912157   -0.014189    1.678199
      4  H         0.844722   -0.444843   -0.512507
      5  H        -1.000956   -0.058454   -0.419353
   Point Group: c1    Number of degrees of freedom:     9


   Energy is   -115.032338413

 Hessian Updated using BFGS Update

  9 Hessian modes will be used to form the next step
  Hessian Eigenvalues:
     0.006760    0.039258    0.158134    0.161360    0.163979    0.349764
     0.356802    0.493243    0.564309

 Minimum Search - Taking Simple RFO Step
 Searching for Lamda that Minimizes Along All modes
 Value Taken    Lamda =   0.00000000
 Step Taken.  Stepsize is  0.006948

                             Maximum     Tolerance    Cnvgd?
         Gradient           0.000191      0.000300     YES
         Displacement       0.004969      0.001200      NO
         Energy change     -0.000004      0.000001      NO


 New Cartesian Coordinates Obtained by Inverse Iteration

 Displacement from previous Coordinates is:  0.004873
 ----------------------------------------------------
       Standard Nuclear Orientation (Angstroms)
    I     Atom         X            Y            Z
 ----------------------------------------------------
    1      C      -0.013475    -0.047377     0.010169
    2      O       0.010827     0.029129     1.360847
    3      H       0.912228    -0.015714     1.677993
    4      H       0.844986    -0.444313    -0.512172
    5      H      -1.001176    -0.059286    -0.419453
 ----------------------------------------------------
 Nuclear Repulsion Energy =    35.5293607178 hartrees
 There are        9 alpha and        8 beta electrons
 Applying Cartesian multipole field
    Component          Value
    ---------          -----
     (2,0,0)        1.00000E-11
     (0,2,0)        2.00000E-11
     (0,0,2)       -3.00000E-11
 Nucleus-field energy     =    -0.0000000018 hartrees
 Requested basis set is G3large
 There are 38 shells and 114 basis functions
 A cutoff of  1.0D-11 yielded    737 shell pairs
 There are      6665 function pairs (      8172 Cartesian)
 Smallest overlap matrix eigenvalue = 1.23E-03
 Guess MOs from SCF MO coefficient file
Reading MOs from coefficient file
Reading MOs from coefficient file
 Long-range K will be added via erf
 Coulomb attenuation parameter = 0.435 bohr**(-1)
 An unrestricted Kohn-Sham SCF calculation will be
 performed using Pulay DIIS extrapolation
 Exchange:  wPBE + LR-HF      Correlation:  PBE
 Using SG-1 standard quadrature grid
 SCF converges when DIIS error is below 1.0E-08
Geometry optimization detected.  Setting ReadMinima to 0
Setting SaveMinima to 0
 Requested basis set is G3large
 There are 38 shells and 114 basis functions
 A cutoff of  1.0D-11 yielded    737 shell pairs
 There are      6665 function pairs (      8172 Cartesian)
 ---------------------------------------
  Cycle       Energy         DIIS Error
 ---------------------------------------
    1    -115.0322433317      4.92E-05
    2    -115.0323384968      7.99E-06
    3    -115.0323386789      2.61E-06
    4    -115.0323386975      1.75E-06
    5    -115.0323387197      5.42E-07
    6    -115.0323387293      1.58E-07
    7    -115.0323387281      5.93E-08
    8    -115.0323387299      1.93E-08
    9    -115.0323387299      5.18E-09 Convergence criterion met
 ---------------------------------------
 One-Electron    Energy =  -226.6352858703
 Total Coulomb   Energy =    91.1224938473
 Alpha Exchange  Energy =    -1.9371192691
 Beta  Exchange  Energy =    -1.7282072259
 DFT   Exchange  Energy =   -10.8377946412
 DFT Correlation Energy =    -0.5457862867
 Nuclear Repu.   Energy =    35.5293607159
 Nuclear Attr.   Energy =  -341.2894330581
 Kinetic         Energy =   114.6541471878
 <S^2> = 0.7545
 SCF time:  CPU 3.79 s  wall 8.70 s
 Final Alpha MO Eigenvalues
            1           2           3           4           5           6
    1 -19.0137466 -10.1658229  -1.2169008  -0.8321546  -0.6762026  -0.5940230
            7           8           9          10          11          12
    1  -0.5474745  -0.4888614  -0.3050242   0.0381943   0.0594744   0.0728737
           13          14
    1   0.1181672   0.1263491
 Final Beta MO Eigenvalues
            1           2           3           4           5           6
    1 -19.0094734 -10.1530675  -1.2064399  -0.8000798  -0.6646357  -0.5850884
            7           8           9          10          11          12
    1  -0.4997837  -0.4795761   0.0389230   0.0603283   0.0638245   0.0735534
           13
    1   0.1266287
 SCF   energy in the final basis set = -115.0323387299
 Total energy in the final basis set = -115.0323387299
 Analysis of SCF Wavefunction
 
 --------------------------------------------------------------
                    Orbital Energies (a.u.)
 --------------------------------------------------------------
 
 Alpha MOs
 -- Occupied --
-19.014 -10.166  -1.217  -0.832  -0.676  -0.594  -0.547  -0.489
 -0.305
 -- Virtual --
  0.038   0.059   0.073   0.118   0.126   0.155   0.173   0.225
  0.246   0.274   0.283   0.297   0.329   0.359   0.419   0.551
  0.569   0.598   0.630   0.655   0.677   0.700   0.806   0.814
  0.848   0.902   0.997   1.068   1.085   1.112   1.160   1.197
  1.259   1.297   1.374   1.458   1.507   1.556   1.589   1.675
  1.934   1.953   2.187   2.317   2.372   2.524   2.621   2.794
  2.806   3.012   3.077   3.135   3.166   3.266   3.294   3.334
  3.383   3.465   3.486   3.650   3.776   3.811   3.898   3.982
  4.115   4.215   4.256   4.303   4.373   4.696   5.033   5.213
  5.247   5.302   5.381   5.605   5.687   5.748   5.895   6.205
  6.616   7.011   7.207   7.273   7.284   7.589   7.684  24.325
 27.251  28.080  28.134  40.914  41.031  41.136  41.147  41.255
 43.792  43.821  43.841  43.918  43.981  45.621  45.975  46.455
 49.855
 
 Beta MOs
 -- Occupied --
-19.009 -10.153  -1.206  -0.800  -0.665  -0.585  -0.500  -0.480
 -- Virtual --
  0.039   0.060   0.064   0.074   0.127   0.150   0.157   0.180
  0.231   0.252   0.277   0.289   0.300   0.331   0.370   0.425
  0.569   0.575   0.606   0.671   0.677   0.695   0.713   0.821
  0.834   0.875   0.910   1.001   1.078   1.099   1.123   1.174
  1.204   1.273   1.312   1.379   1.466   1.514   1.563   1.600
  1.684   1.946   1.971   2.192   2.323   2.384   2.535   2.639
  2.815   2.868   3.043   3.114   3.157   3.209   3.289   3.329
  3.384   3.405   3.513   3.531   3.685   3.780   3.823   3.908
  3.988   4.118   4.217   4.267   4.315   4.379   4.698   5.055
  5.224   5.257   5.312   5.392   5.613   5.694   5.757   5.912
  6.209   6.623   7.030   7.225   7.278   7.298   7.596   7.688
 24.340  27.287  28.089  28.143  40.944  41.040  41.158  41.172
 41.260  43.803  43.834  43.853  43.919  43.982  45.634  45.978
 46.458  49.859
 --------------------------------------------------------------
 
          Ground-State Mulliken Net Atomic Charges

     Atom                 Charge (a.u.)    Spin (a.u.)
  --------------------------------------------------------
      1 C                    -0.221857       0.986366
      2 O                    -0.223665       0.090855
      3 H                     0.254266      -0.002037
      4 H                     0.092845      -0.036580
      5 H                     0.098411      -0.038605
  --------------------------------------------------------
  Sum of atomic charges =     0.000000
  Sum of spin   charges =     1.000000

 -----------------------------------------------------------------
                    Cartesian Multipole Moments
 -----------------------------------------------------------------
    Charge (ESU x 10^10)
                 0.0000
    Dipole Moment (Debye)
         X       1.4709      Y      -0.4795      Z      -0.1903
       Tot       1.5587
    Quadrupole Moments (Debye-Ang)
        XX     -10.3378     XY      -0.4129     YY     -14.2509
        XZ       3.1440     YZ       0.1222     ZZ     -12.6636
    Octapole Moments (Debye-Ang^2)
       XXX       0.2698    XXY       0.0395    XYY      -0.1463
       YYY       1.1989    XXZ      -5.2744    XYZ       0.1447
       YYZ      -7.8675    XZZ       5.3182    YZZ      -0.0368
       ZZZ     -21.5219
    Hexadecapole Moments (Debye-Ang^3)
      XXXX     -18.3184   XXXY       0.0496   XXYY      -6.4183
      XYYY       0.3760   YYYY     -16.9250   XXXZ       1.2001
      XXYZ      -0.1575   XYYZ      -0.7189   YYYZ      -1.0558
      XXZZ     -12.4473   XYZZ      -0.0426   YYZZ     -17.8009
      XZZZ       8.0468   YZZZ      -1.2060   ZZZZ     -79.8132
 -----------------------------------------------------------------
 Calculating analytic gradient of the SCF energy
 Gradient of AOints
            1           2           3           4           5
    1   0.1881516   2.6935486  -3.3135501  -2.4609211   2.8927710
    2  -0.4958692  -0.7316822   0.1538552   1.0448641   0.0288320
    3   5.0644606  -6.7140906  -1.8754809   1.9141359   1.6109749
VDW warning: invalid dnorm for atom pair (0,1) 
VDW warning: invalid dnorm for atom pair (0,2) 
VDW warning: invalid dnorm for atom pair (0,3) 
VDW warning: invalid dnorm for atom pair (0,4) 
VDW warning: invalid dnorm for atom pair (1,2) 
VDW warning: invalid dnorm for atom pair (1,3) 
VDW warning: invalid dnorm for atom pair (1,4) 
VDW warning: invalid dnorm for atom pair (2,3) 
VDW warning: invalid dnorm for atom pair (2,4) 
VDW warning: invalid dnorm for atom pair (3,4) 

   VDWBR =  0.0000000000 h [*C6:  0.00000  HO:  0.00000  TT:  0.00000 kcal/mol]
   Evdw(C6) =  0.0000000000 Hartree  =   0.0000000000 KCal/mol

 Gradient of SCF Energy
            1           2           3           4           5
    1  -0.0000036   0.0000044   0.0000036  -0.0000075   0.0000030
    2  -0.0000293  -0.0000020  -0.0000078  -0.0000095   0.0000487
    3  -0.0000037  -0.0000225   0.0000130   0.0000095   0.0000037
 Max gradient component =       4.872E-05
 RMS gradient           =       1.692E-05
 Gradient time:  CPU 1.14 s  wall 1.16 s
 Geometry Optimization Parameters
   NAtoms,    NIC,     NZ,  NCons,   NDum,   NFix, NCnnct, MaxDiis
        5      20       5       0       0       0       0       0

 Cartesian Hessian Update
 Hessian Updated using BFGS Update


** GEOMETRY OPTIMIZATION IN DELOCALIZED INTERNAL COORDINATES **
   Searching for a Minimum

   Optimization Cycle:   6

                       Coordinates (Angstroms)
     ATOM              X           Y           Z
      1  C        -0.013475   -0.047377    0.010169
      2  O         0.010827    0.029129    1.360847
      3  H         0.912228   -0.015714    1.677993
      4  H         0.844986   -0.444313   -0.512172
      5  H        -1.001176   -0.059286   -0.419453
   Point Group: c1    Number of degrees of freedom:     9


   Energy is   -115.032338730

 Hessian Updated using BFGS Update

  9 Hessian modes will be used to form the next step
  Hessian Eigenvalues:
     0.006603    0.034318    0.158049    0.159815    0.162907    0.349340
     0.356753    0.503959    0.564548

 Minimum Search - Taking Simple RFO Step
 Searching for Lamda that Minimizes Along All modes
 Value Taken    Lamda =   0.00000000
 Step Taken.  Stepsize is  0.001372

                             Maximum     Tolerance    Cnvgd?
         Gradient           0.000037      0.000300     YES
         Displacement       0.001050      0.001200     YES
         Energy change      0.000000      0.000001     YES


                       Distance Matrix (Angstroms)
             C (  1)   O (  2)   H (  3)   H (  4)
   O (  2)  1.353062
   H (  3)  1.907765  0.956618
   H (  4)  1.080441  2.104322  2.232721
   H (  5)  1.077159  2.049741  2.839418  1.888162
 
 Final energy is   -115.032338729923     


 ******************************
 **  OPTIMIZATION CONVERGED  **
 ******************************

Z-matrix Print:
$molecule
0,2
1 O 
2 H  1 0.956618
3 C  1 1.353062 2 110.195080
4 H  3 1.077159 1 114.534384 2 -176.720400 0
5 H  3 1.080441 1 119.281618 2 -18.898603 0
$end

 Analysis of SCF Wavefunction
 
 --------------------------------------------------------------
                    Orbital Energies (a.u.)
 --------------------------------------------------------------
 
 Alpha MOs
 -- Occupied --
-19.014 -10.166  -1.217  -0.832  -0.676  -0.594  -0.547  -0.489
 -0.305
 -- Virtual --
  0.038   0.059   0.073   0.118   0.126   0.155   0.173   0.225
  0.246   0.274   0.283   0.297   0.329   0.359   0.419   0.551
  0.569   0.598   0.630   0.655   0.677   0.700   0.806   0.814
  0.848   0.902   0.997   1.068   1.085   1.112   1.160   1.197
  1.259   1.297   1.374   1.458   1.507   1.556   1.589   1.675
  1.934   1.953   2.187   2.317   2.372   2.524   2.621   2.794
  2.806   3.012   3.077   3.135   3.166   3.266   3.294   3.334
  3.383   3.465   3.486   3.650   3.776   3.811   3.898   3.982
  4.115   4.215   4.256   4.303   4.373   4.696   5.033   5.213
  5.247   5.302   5.381   5.605   5.687   5.748   5.895   6.205
  6.616   7.011   7.207   7.273   7.284   7.589   7.684  24.325
 27.251  28.080  28.134  40.914  41.031  41.136  41.147  41.255
 43.792  43.821  43.841  43.918  43.981  45.621  45.975  46.455
 49.855
 
 Beta MOs
 -- Occupied --
-19.009 -10.153  -1.206  -0.800  -0.665  -0.585  -0.500  -0.480
 -- Virtual --
  0.039   0.060   0.064   0.074   0.127   0.150   0.157   0.180
  0.231   0.252   0.277   0.289   0.300   0.331   0.370   0.425
  0.569   0.575   0.606   0.671   0.677   0.695   0.713   0.821
  0.834   0.875   0.910   1.001   1.078   1.099   1.123   1.174
  1.204   1.273   1.312   1.379   1.466   1.514   1.563   1.600
  1.684   1.946   1.971   2.192   2.323   2.384   2.535   2.639
  2.815   2.868   3.043   3.114   3.157   3.209   3.289   3.329
  3.384   3.405   3.513   3.531   3.685   3.780   3.823   3.908
  3.988   4.118   4.217   4.267   4.315   4.379   4.698   5.055
  5.224   5.257   5.312   5.392   5.613   5.694   5.757   5.912
  6.209   6.623   7.030   7.225   7.278   7.298   7.596   7.688
 24.340  27.287  28.089  28.143  40.944  41.040  41.158  41.172
 41.260  43.803  43.834  43.853  43.919  43.982  45.634  45.978
 46.458  49.859
 --------------------------------------------------------------
 
          Ground-State Mulliken Net Atomic Charges

     Atom                 Charge (a.u.)    Spin (a.u.)
  --------------------------------------------------------
      1 C                    -0.221857       0.986366
      2 O                    -0.223665       0.090855
      3 H                     0.254266      -0.002037
      4 H                     0.092845      -0.036580
      5 H                     0.098411      -0.038605
  --------------------------------------------------------
  Sum of atomic charges =     0.000000
  Sum of spin   charges =     1.000000

 -----------------------------------------------------------------
                    Cartesian Multipole Moments
 -----------------------------------------------------------------
    Charge (ESU x 10^10)
                 0.0000
    Dipole Moment (Debye)
         X       1.4709      Y      -0.4795      Z      -0.1903
       Tot       1.5587
    Quadrupole Moments (Debye-Ang)
        XX     -10.3378     XY      -0.4129     YY     -14.2509
        XZ       3.1440     YZ       0.1222     ZZ     -12.6636
    Octapole Moments (Debye-Ang^2)
       XXX       0.2698    XXY       0.0395    XYY      -0.1463
       YYY       1.1989    XXZ      -5.2744    XYZ       0.1447
       YYZ      -7.8675    XZZ       5.3182    YZZ      -0.0368
       ZZZ     -21.5219
    Hexadecapole Moments (Debye-Ang^3)
      XXXX     -18.3184   XXXY       0.0496   XXYY      -6.4183
      XYYY       0.3760   YYYY     -16.9250   XXXZ       1.2001
      XXYZ      -0.1575   XYYZ      -0.7189   YYYZ      -1.0558
      XXZZ     -12.4473   XYZZ      -0.0426   YYZZ     -17.8009
      XZZZ       8.0468   YZZZ      -1.2060   ZZZZ     -79.8132
 -----------------------------------------------------------------
Archival summary:
1\1\cfa007\OPT\ProcedureUnspecified\BasisUnspecified\113(2)\sivanr\ThuJun2008:30:302013ThuJun2008:30:302013\0\\#,OPT,ProcedureUnspecified,BasisUnspecified,\\0,2\O\H,1,0.956618\C,1,1.35306,2,110.195\H,3,1.07716,1,114.534,2,-176.72,0\H,3,1.08044,1,119.282,2,-18.8986,0\\\@

 Total job time:  75.58s(wall), 35.17s(cpu) 
 Thu Jun 20 08:30:30 2013

        *************************************************************
        *                                                           *
        *  Thank you very much for using Q-Chem.  Have a nice day.  *
        *                                                           *
        *************************************************************


0 sent ACK to 0 
now end server 0 ... 
 
**********************************************************************
Job 2 of 2 
**********************************************************************
 
Process 0 of 8 is on cfa007 - thread support 0
Process 4 of 8 is on cfa007 - thread support 0
Process 1 of 8 is on cfa007 - thread support 0
Process 3 of 8 is on cfa007 - thread support 0
Process 7 of 8 is on cfa007 - thread support 0
Process 5 of 8 is on cfa007 - thread support 0
Process 6 of 8 is on cfa007 - thread support 0
Process 2 of 8 is on cfa007 - thread support 0
initial socket setup ...start
initial socket setup ...done 
now start server 0 ... 
                  Welcome to Q-Chem
     A Quantum Leap Into The Future Of Chemistry

 Y. Shao, L. Fusti-Molnar, Y. Jung, J. Kussmann, C. Ochsenfeld,
 S. T. Brown, A. T. B. Gilbert, L. V. Slipchenko,S. V. Levchenko,
 D. P. O'Neill, R. A. DiStasio Jr., R. C. Lochan, T. Wang,
 G. J. O. Beran, N. A. Besley, J. M. Herbert, C. Y. Lin,
 T. Van Voorhis, S. H. Chien, A. Sodt, R. P. Steele, 
 V. A. Rassolov, P. E. Maslen, P. P. Korambath, R. D. Adamson,
 B. Austin, J. Baker, E. F. C. Byrd, H. Dachsel, R. J. Doerksen,
 A. Dreuw, B. D. Dunietz, A. D. Dutoi, T. R. Furlani,
 S. R. Gwaltney, A. Heyden, S. Hirata, C.-P. Hsu, G. Kedziora,
 R. Z. Khaliullin, P. Klunzinger, A. M. Lee, M. S. Lee, W. Liang,
 I. Lotan, N. Nair, B. Peters, E. I. Proynov, P. A. Pieniazek, 
 Y. M. Rhee, J. Ritchie, E. Rosta, C. D. Sherrill, 
 A. C. Simmonett, J. E. Subotnik, H. L. Woodcock III,
 W. Zhang, A. T. Bell, A. K. Chakraborty, D. M. Chipman,
 F. J. Keil, A. Warshel, W. J. Hehre, H. F. Schaefer III,
 J. Kong, A. I. Krylov, P. M. W. Gill, M. Head-Gordon,

 Additional authors for Version 3.1: 
 Z. Gan, Y. Zhao, N. E. Schultz, D. Truhlar, E. Epifanovsky and M. Oana.

 Additional authors for Version 3.2: 
 R. Baer, B. R. Brooks, D. Casanova, J.-D. Chai, C.-L. Cheng, 
 C. Cramer, D. Crittenden, A. Ghysels, G. Hawkins, E. G. Hohenstein, 
 C. Kelley, W. Kurlancheek, D. Liotard, E. Livshits, P. Manohar, 
 A. Marenich, D. Neuhauser, R. Olson, M. A. Rohrdanz, K. S. Thanthiriwatte, 
 A. J. W. Thom, V. Vanovschi, C. F. Williams, Q. Wu and Z.-Q. You. 

 Additional authors for Version 4.0: 
 A. Aspuru-Guzik, C. Chang, R. G. Edgar, E. Sundstrom, J. Parkhill, K. Lawler,
 M. Gordon, M. Schmidt, N. Shenvi, D. Lambrecht, M. Goldey, R. Olivares-Amaya,
 Y. Bernard, L. Vogt, M. Watson, J. Liu, S. Yeganeh, B. Kaduk, O. Vydrov, X. Xu, 
 I. Kaliman, K. Khistyaev, N. Russ, I.Y. Zhang, W.A. Goddard III, F. Liu, R. King ,
 A. Landau, M. Wormit, A. Dreuw, M. Diedenhofen, A. Klamt, A.W. Lange, D. Ghosh,
 D. Kosenkov, T. Kus, A. Landau, D. Zuev, J. Deng, S.P. Mao, Y.C. Su, D. Small
 
 Q-Chem, Version 4.0, Q-Chem, Inc., Pittsburgh, PA (2007).


 Intel X86 Linux Version 4.0.0.1 Beta

 Q-chem begins on Thu Jun 20 08:30:40 2013  

Host: cfa007
0
 Parallel job on  8  processors
Processing $rem in /home/sivanr/apps/QChem/config/preferences.
MEM_TOTAL    2500

theFileMan(): MAXOPENFILES=16334 MAX_SUB_FILE_NUM=16
Maximum size of a physical file is 2.0 GB, maximum size of a tmp-file is 32.0 GB


 Q-Chem warning in module /dftman/home/distrib/qc40f_trunk2/0919/qchem_0919/libgen/rem.C, line 2106:

 !!Desired Analytical derivatives not available.

 2-order derivative to be evaluated numerically with 1-order analytical derivatives

 Q-Chem warning in module /dftman/home/distrib/qc40f_trunk2/0919/qchem_0919/libgen/rem.C, line 2113:

 !!Parallel diagonalization not available.

Finally everything over in PARseQInput

--------------------------------------------------------------
User input:
--------------------------------------------------------------

$molecule 
READ 
$end 

$xc_functional
C PBE   1.00
X wPBE  1.00
$end


$rem
SYMMETRY_DECOMPOSITION	0
LRC_DFT                 true
exchange 		general
BASIS                   g3large
omega			435
JOBTYPE                 freq
SCF_GUESS READ
mem_static              760
max_scf_cycles          200
scf_final_print         1
sym_ignore              true
$end

--------------------------------------------------------------
 ----------------------------------------------------
       Standard Nuclear Orientation (Angstroms)
    I     Atom         X            Y            Z
 ----------------------------------------------------
    1      C      -0.013475    -0.047377     0.010169
    2      O       0.010827     0.029129     1.360847
    3      H       0.912228    -0.015714     1.677993
    4      H       0.844986    -0.444313    -0.512172
    5      H      -1.001176    -0.059286    -0.419453
 ----------------------------------------------------
 Nuclear Repulsion Energy =    35.5293607178 hartrees
 There are        9 alpha and        8 beta electrons
 Requested basis set is G3large
 There are 38 shells and 114 basis functions

Total QAlloc Memory Limit   2500 MB
Mega-Array Size       759 MB
MEM_STATIC part       760 MB

                       Distance Matrix (Angstroms)
             C (  1)   O (  2)   H (  3)   H (  4)
   O (  2)  1.353062
   H (  3)  1.907765  0.956618
   H (  4)  1.080441  2.104322  2.232721
   H (  5)  1.077159  2.049741  2.839418  1.888162
 
 A cutoff of  1.0D-11 yielded    737 shell pairs
 There are      6665 function pairs (      8172 Cartesian)
 Smallest overlap matrix eigenvalue = 1.23E-03
 Guess MOs from SCF MO coefficient file
Reading MOs from coefficient file
Reading MOs from coefficient file
 Long-range K will be added via erf
 Coulomb attenuation parameter = 0.435 bohr**(-1)
 An unrestricted Kohn-Sham SCF calculation will be
 performed using Pulay DIIS extrapolation
 Exchange:  wPBE + LR-HF      Correlation:  PBE
 Using SG-1 standard quadrature grid
 SCF converges when DIIS error is below 1.0E-08
 ---------------------------------------
  Cycle       Energy         DIIS Error
 ---------------------------------------
    1    -115.0323387138      1.16E-09
    2    -115.0323387136      6.47E-10 Convergence criterion met
 ---------------------------------------
 One-Electron    Energy =  -226.6352856754
 Total Coulomb   Energy =    91.1224936325
 Alpha Exchange  Energy =    -1.9371192701
 Beta  Exchange  Energy =    -1.7282072222
 DFT   Exchange  Energy =   -10.8377946115
 DFT Correlation Energy =    -0.5457862847
 Nuclear Repu.   Energy =    35.5293607178
 Nuclear Attr.   Energy =  -341.2894327449
 Kinetic         Energy =   114.6541470695
 <S^2> = 0.7545
 SCF time:  CPU 0.91 s  wall 3.00 s
 Final Alpha MO Eigenvalues
            1           2           3           4           5           6
    1 -19.0137466 -10.1658228  -1.2169008  -0.8321546  -0.6762026  -0.5940230
            7           8           9          10          11          12
    1  -0.5474745  -0.4888614  -0.3050242   0.0381943   0.0594744   0.0728737
           13          14
    1   0.1181672   0.1263491
 Final Beta MO Eigenvalues
            1           2           3           4           5           6
    1 -19.0094734 -10.1530675  -1.2064399  -0.8000798  -0.6646357  -0.5850884
            7           8           9          10          11          12
    1  -0.4997837  -0.4795761   0.0389230   0.0603283   0.0638245   0.0735534
           13
    1   0.1266287
 SCF   energy in the final basis set = -115.0323387136
 Total energy in the final basis set = -115.0323387136
 Analysis of SCF Wavefunction
 
 --------------------------------------------------------------
                    Orbital Energies (a.u.)
 --------------------------------------------------------------
 
 Alpha MOs
 -- Occupied --
-19.014 -10.166  -1.217  -0.832  -0.676  -0.594  -0.547  -0.489
 -0.305
 -- Virtual --
  0.038   0.059   0.073   0.118   0.126   0.155   0.173   0.225
  0.246   0.274   0.283   0.297   0.329   0.359   0.419   0.551
  0.569   0.598   0.630   0.655   0.677   0.700   0.806   0.814
  0.848   0.902   0.997   1.068   1.085   1.112   1.160   1.197
  1.259   1.297   1.374   1.458   1.507   1.556   1.589   1.675
  1.934   1.953   2.187   2.317   2.372   2.524   2.621   2.794
[...]
 49.855
 
 Beta MOs
 -- Occupied --
-19.009 -10.153  -1.206  -0.800  -0.665  -0.585  -0.500  -0.480
 -- Virtual --
  0.039   0.060   0.064   0.074   0.127   0.150   0.157   0.180
  0.231   0.252   0.277   0.289   0.300   0.331   0.370   0.425
  0.569   0.575   0.606   0.671   0.677   0.694   0.713   0.821
  0.834   0.875   0.910   1.001   1.078   1.099   1.123   1.173
  1.204   1.273   1.311   1.379   1.466   1.514   1.562   1.600
  1.684   1.946   1.971   2.192   2.323   2.384   2.536   2.639
  2.815   2.867   3.043   3.113   3.157   3.209   3.289   3.329
  3.384   3.405   3.513   3.531   3.685   3.780   3.823   3.907
  3.988   4.117   4.216   4.266   4.315   4.378   4.697   5.055
  5.224   5.257   5.312   5.392   5.612   5.695   5.757   5.912
  6.208   6.623   7.030   7.225   7.278   7.298   7.596   7.688
 24.339  27.287  28.089  28.143  40.944  41.039  41.158  41.172
 41.260  43.803  43.834  43.853  43.919  43.982  45.634  45.978
 46.458  49.859
 --------------------------------------------------------------
 
          Ground-State Mulliken Net Atomic Charges

     Atom                 Charge (a.u.)    Spin (a.u.)
  --------------------------------------------------------
      1 C                    -0.221784       0.986444
      2 O                    -0.223666       0.090832
      3 H                     0.254296      -0.002035
      4 H                     0.092826      -0.036597
      5 H                     0.098328      -0.038643
  --------------------------------------------------------
  Sum of atomic charges =     0.000000
  Sum of spin   charges =     1.000000

 -----------------------------------------------------------------
                    Cartesian Multipole Moments
 -----------------------------------------------------------------
    Charge (ESU x 10^10)
                 0.0000
    Dipole Moment (Debye)
         X       1.4708      Y      -0.4794      Z      -0.1905
       Tot       1.5587
    Quadrupole Moments (Debye-Ang)
        XX     -10.3388     XY      -0.4128     YY     -14.2513
        XZ       3.1453     YZ       0.1221     ZZ     -12.6626
    Octapole Moments (Debye-Ang^2)
       XXX       0.2709    XXY       0.0397    XYY      -0.1460
       YYY       1.1993    XXZ      -5.2742    XYZ       0.1446
       YYZ      -7.8664    XZZ       5.3180    YZZ      -0.0368
       ZZZ     -21.5186
    Hexadecapole Moments (Debye-Ang^3)
      XXXX     -18.3228   XXXY       0.0496   XXYY      -6.4192
      XYYY       0.3759   YYYY     -16.9258   XXXZ       1.1999
      XXYZ      -0.1576   XYYZ      -0.7197   YYYZ      -1.0561
      XXZZ     -12.4466   XYZZ      -0.0425   YYZZ     -17.8016
      XZZZ       8.0463   YZZZ      -1.2062   ZZZZ     -79.8138
 -----------------------------------------------------------------
 Calculating analytic gradient of the SCF energy
 Gradient of AOints
            1           2           3           4           5
    1   0.1906318   2.6925145  -3.3134912  -2.4603847   2.8907295
    2  -0.4960177  -0.7316920   0.1538248   1.0448825   0.0290024
    3   5.0611474  -6.7142972  -1.8757440   1.9142021   1.6146916
VDW warning: invalid dnorm for atom pair (0,1) 
VDW warning: invalid dnorm for atom pair (0,2) 
VDW warning: invalid dnorm for atom pair (0,3) 
VDW warning: invalid dnorm for atom pair (0,4) 
VDW warning: invalid dnorm for atom pair (1,2) 
VDW warning: invalid dnorm for atom pair (1,3) 
VDW warning: invalid dnorm for atom pair (1,4) 
VDW warning: invalid dnorm for atom pair (2,3) 
VDW warning: invalid dnorm for atom pair (2,4) 
VDW warning: invalid dnorm for atom pair (3,4) 

   VDWBR =  0.0000000000 h [*C6:  0.00000  HO:  0.00000  TT:  0.00000 kcal/mol]
   Evdw(C6) =  0.0000000000 Hartree  =   0.0000000000 KCal/mol

 Gradient of SCF Energy
            1           2           3           4           5
    1   0.0001785   0.0000718   0.0000038  -0.0000306  -0.0002236
    2  -0.0000135  -0.0000019  -0.0000054  -0.0000114   0.0000322
    3   0.0001727   0.0000136   0.0000246  -0.0000077  -0.0002031
 Max gradient component =       2.236E-04
 RMS gradient           =       1.037E-04
 Gradient time:  CPU 1.13 s  wall 1.21 s
Dipole drv :
gprntSymmMtrx error report: 
 Final Hessian.
            1           2           3           4           5           6
    1   0.6867468  -0.1222104   0.0260798  -0.0997563   0.0163932   0.0178243
    2  -0.1222104   0.0699642   0.0862131   0.0148939  -0.0068602  -0.0283483
    3   0.0260798   0.0862131   0.6354040  -0.0297139  -0.0128792  -0.4032866
    4  -0.0997563   0.0148939  -0.0297139   0.5891397  -0.0384516   0.1640031
    5   0.0163932  -0.0068602  -0.0128792  -0.0384516   0.0144112   0.0246696
    6   0.0178243  -0.0283483  -0.4032866   0.1640031   0.0246696   0.5368598
    7  -0.0018166   0.0002449   0.0064812  -0.5048142   0.0248074  -0.1770768
    8  -0.0022386  -0.0017673  -0.0018564   0.0289141  -0.0071276   0.0077580
    9  -0.0468635   0.0034386  -0.0221970  -0.1238385   0.0030094  -0.0897372
   10  -0.2565385   0.0982126   0.1109545   0.0088156  -0.0014965  -0.0053904
   11   0.1118329  -0.0524182  -0.0613598  -0.0032231   0.0020253  -0.0015231
   12   0.0993362  -0.0529045  -0.1166209   0.0252434  -0.0146874  -0.0247457
   13  -0.3286366   0.0088394  -0.1137953   0.0066119  -0.0012484   0.0006327
   14  -0.0037783  -0.0089177  -0.0101195  -0.0021326  -0.0024342  -0.0025598
   15  -0.0963820  -0.0084063  -0.0932914  -0.0356921  -0.0000959  -0.0191017
            7           8           9          10          11          12
    1  -0.0018166  -0.0022386  -0.0468635  -0.2565385   0.1118329   0.0993362
    2   0.0002449  -0.0017673   0.0034386   0.0982126  -0.0524182  -0.0529045
    3   0.0064812  -0.0018564  -0.0221970   0.1109545  -0.0613598  -0.1166209
    4  -0.5048142   0.0289141  -0.1238385   0.0088156  -0.0032231   0.0252434
    5   0.0248074  -0.0071276   0.0030094  -0.0014965   0.0020253  -0.0146874
    6  -0.1770768   0.0077580  -0.0897372  -0.0053904  -0.0015231  -0.0247457
    7   0.5022445  -0.0254370   0.1681720   0.0023581  -0.0000052   0.0025456
    8  -0.0254370   0.0066374  -0.0051427  -0.0012828  -0.0006632   0.0005331
    9   0.1681720  -0.0051427   0.1159686   0.0008566  -0.0005897   0.0020872
   10   0.0023581  -0.0012828   0.0008566   0.2552396  -0.1047697  -0.1186326
   11  -0.0000052  -0.0006632  -0.0005897  -0.1047697   0.0500538   0.0624526
   12   0.0025456   0.0005331   0.0020872  -0.1186326   0.0624526   0.1301537
   13   0.0020330   0.0000434   0.0016742  -0.0098755  -0.0038291  -0.0084918
   14   0.0003937   0.0029194  -0.0007133   0.0093351   0.0009969   0.0046072
   15  -0.0001206  -0.0012941  -0.0061220   0.0122113   0.0010137   0.0091279
           13          14          15
    1  -0.3286366  -0.0037783  -0.0963820
    2   0.0088394  -0.0089177  -0.0084063
    3  -0.1137953  -0.0101195  -0.0932914
    4   0.0066119  -0.0021326  -0.0356921
    5  -0.0012484  -0.0024342  -0.0000959
    6   0.0006327  -0.0025598  -0.0191017
    7   0.0020330   0.0003937  -0.0001206
    8   0.0000434   0.0029194  -0.0012941
    9   0.0016742  -0.0007133  -0.0061220
   10  -0.0098755   0.0093351   0.0122113
   11  -0.0038291   0.0009969   0.0010137
   12  -0.0084918   0.0046072   0.0091279
   13   0.3298678  -0.0038073   0.1199823
   14  -0.0038073   0.0074273   0.0087847
   15   0.1199823   0.0087847   0.1093890
 ----------------------------------------------------
       Standard Nuclear Orientation (Angstroms)
    I     Atom         X            Y            Z
 ----------------------------------------------------
    1      C      -0.013475    -0.047377     0.010169
    2      O       0.010827     0.029129     1.360847
    3      H       0.912228    -0.015714     1.677993
    4      H       0.844986    -0.444313    -0.512172
    5      H      -1.001176    -0.059286    -0.419453
 ----------------------------------------------------
 Nuclear Repulsion Energy =    35.5293607178 hartrees
 There are        9 alpha and        8 beta electrons
 old dipole drv.
            1           2           3           4           5           6
    1   0.1537036  -0.1271867   0.0755177  -0.3152833   0.0263237  -0.1040418
    2  -0.1171900  -0.3357373   0.0954374   0.0171688  -0.3433788  -0.0271833
    3   0.0739112   0.1195251   0.8522397  -0.1143289  -0.0044202  -1.1915786
            7           8           9          10          11          12
    1   0.2202419   0.0075756   0.0359123  -0.0273730   0.0966127  -0.0157534
    2   0.0111644   0.3537623  -0.0020034   0.0778102   0.1510608  -0.0360240
    3   0.0478488  -0.0131304   0.3190296   0.0451818  -0.0613696  -0.0087670
           13          14          15
    1  -0.0312743  -0.0033715   0.0083767
    2   0.0112881   0.1743152  -0.0302158
    3  -0.0528107  -0.0407057   0.0286919
 New transposed dipole drv.
            1           2           3
    1   0.1537036  -0.1171900   0.0739112
    2  -0.1271867  -0.3357373   0.1195251
    3   0.0755177   0.0954374   0.8522397
    4  -0.3152833   0.0171688  -0.1143289
    5   0.0263237  -0.3433788  -0.0044202
    6  -0.1040418  -0.0271833  -1.1915786
    7   0.2202419   0.0111644   0.0478488
    8   0.0075756   0.3537623  -0.0131304
    9   0.0359123  -0.0020034   0.3190296
   10  -0.0273730   0.0778102   0.0451818
   11   0.0966127   0.1510608  -0.0613696
   12  -0.0157534  -0.0360240  -0.0087670
   13  -0.0312743   0.0112881  -0.0528107
   14  -0.0033715   0.1743152  -0.0407057
   15   0.0083767  -0.0302158   0.0286919
FINAL TENSOR RESULT:
Order 2, Length 15
    Atom      X          Y          Z
     1 Order 1, Length 15
    Atom      X          Y          Z
     1    0.6867468  -0.1222104   0.0260798
     2   -0.0997563   0.0163932   0.0178243
     3   -0.0018166  -0.0022386  -0.0468635
     4   -0.2565385   0.1118329   0.0993362
     5   -0.3286366  -0.0037783  -0.0963820

Order 1, Length 15
    Atom      X          Y          Z
     1   -0.1222104   0.0699642   0.0862131
     2    0.0148939  -0.0068602  -0.0283483
     3    0.0002449  -0.0017673   0.0034386
     4    0.0982126  -0.0524182  -0.0529045
     5    0.0088394  -0.0089177  -0.0084063

Order 1, Length 15
    Atom      X          Y          Z
     1    0.0260798   0.0862131   0.6354040
     2   -0.0297139  -0.0128792  -0.4032866
     3    0.0064812  -0.0018564  -0.0221970
     4    0.1109545  -0.0613598  -0.1166209
     5   -0.1137953  -0.0101195  -0.0932914


     2 Order 1, Length 15
    Atom      X          Y          Z
     1   -0.0997563   0.0148939  -0.0297139
     2    0.5891397  -0.0384516   0.1640031
     3   -0.5048142   0.0289141  -0.1238385
     4    0.0088156  -0.0032231   0.0252434
     5    0.0066119  -0.0021326  -0.0356921

Order 1, Length 15
    Atom      X          Y          Z
     1    0.0163932  -0.0068602  -0.0128792
     2   -0.0384516   0.0144112   0.0246696
     3    0.0248074  -0.0071276   0.0030094
     4   -0.0014965   0.0020253  -0.0146874
     5   -0.0012484  -0.0024342  -0.0000959

Order 1, Length 15
    Atom      X          Y          Z
     1    0.0178243  -0.0283483  -0.4032866
     2    0.1640031   0.0246696   0.5368598
     3   -0.1770768   0.0077580  -0.0897372
     4   -0.0053904  -0.0015231  -0.0247457
     5    0.0006327  -0.0025598  -0.0191017


     3 Order 1, Length 15
    Atom      X          Y          Z
     1   -0.0018166   0.0002449   0.0064812
     2   -0.5048142   0.0248074  -0.1770768
     3    0.5022445  -0.0254370   0.1681720
     4    0.0023581  -0.0000052   0.0025456
     5    0.0020330   0.0003937  -0.0001206

Order 1, Length 15
    Atom      X          Y          Z
     1   -0.0022386  -0.0017673  -0.0018564
     2    0.0289141  -0.0071276   0.0077580
     3   -0.0254370   0.0066374  -0.0051427
     4   -0.0012828  -0.0006632   0.0005331
     5    0.0000434   0.0029194  -0.0012941

Order 1, Length 15
    Atom      X          Y          Z
     1   -0.0468635   0.0034386  -0.0221970
     2   -0.1238385   0.0030094  -0.0897372
     3    0.1681720  -0.0051427   0.1159686
     4    0.0008566  -0.0005897   0.0020872
     5    0.0016742  -0.0007133  -0.0061220


     4 Order 1, Length 15
    Atom      X          Y          Z
     1   -0.2565385   0.0982126   0.1109545
     2    0.0088156  -0.0014965  -0.0053904
     3    0.0023581  -0.0012828   0.0008566
     4    0.2552396  -0.1047697  -0.1186326
     5   -0.0098755   0.0093351   0.0122113

Order 1, Length 15
    Atom      X          Y          Z
     1    0.1118329  -0.0524182  -0.0613598
     2   -0.0032231   0.0020253  -0.0015231
     3   -0.0000052  -0.0006632  -0.0005897
     4   -0.1047697   0.0500538   0.0624526
     5   -0.0038291   0.0009969   0.0010137

Order 1, Length 15
    Atom      X          Y          Z
     1    0.0993362  -0.0529045  -0.1166209
     2    0.0252434  -0.0146874  -0.0247457
     3    0.0025456   0.0005331   0.0020872
     4   -0.1186326   0.0624526   0.1301537
     5   -0.0084918   0.0046072   0.0091279


     5 Order 1, Length 15
    Atom      X          Y          Z
     1   -0.3286366   0.0088394  -0.1137953
     2    0.0066119  -0.0012484   0.0006327
     3    0.0020330   0.0000434   0.0016742
     4   -0.0098755  -0.0038291  -0.0084918
     5    0.3298678  -0.0038073   0.1199823

Order 1, Length 15
    Atom      X          Y          Z
     1   -0.0037783  -0.0089177  -0.0101195
     2   -0.0021326  -0.0024342  -0.0025598
     3    0.0003937   0.0029194  -0.0007133
     4    0.0093351   0.0009969   0.0046072
     5   -0.0038073   0.0074273   0.0087847

Order 1, Length 15
    Atom      X          Y          Z
     1   -0.0963820  -0.0084063  -0.0932914
     2   -0.0356921  -0.0000959  -0.0191017
     3   -0.0001206  -0.0012941  -0.0061220
     4    0.0122113   0.0010137   0.0091279
     5    0.1199823   0.0087847   0.1093890




 # Finishing finite difference calculation for IDERIV #
 ######################################################
 ######################################################
 Requested basis set is G3large
 There are 38 shells and 114 basis functions
 **********************************************************************
 **                                                                  **
 **                       VIBRATIONAL ANALYSIS                       **
 **                       --------------------                       **
 **                                                                  **
 **        VIBRATIONAL FREQUENCIES (CM**-1) AND NORMAL MODES         **
 **     FORCE CONSTANTS (mDYN/ANGSTROM) AND REDUCED MASSES (AMU)     **
 **                  INFRARED INTENSITIES (KM/MOL)                   **
 **                                                                  **
 **********************************************************************
 

 Mode:                 1                      2                      3
 Frequency:       399.72                 498.33                1064.20
 Force Cnst:      0.1127                 0.1693                 0.7181
 Red. Mass:       1.1971                 1.1574                 1.0761
 IR Active:          YES                    YES                    YES
 IR Intens:       12.621                156.777                 46.783
 Raman Active:       YES                    YES                    YES
               X      Y      Z        X      Y      Z        X      Y      Z
 C          0.030  0.094 -0.014   -0.015 -0.113  0.018    0.064 -0.019 -0.008
 O         -0.010 -0.073  0.002    0.000 -0.015  0.005   -0.010  0.006 -0.033
 H          0.042  0.702 -0.031    0.039  0.515 -0.032   -0.231  0.042  0.584
 H         -0.227 -0.650  0.098    0.074  0.299 -0.120   -0.197  0.055 -0.491
 H         -0.016 -0.017  0.072    0.058  0.766 -0.139   -0.174  0.028  0.533
 TransDip  -0.047  0.103  0.015    0.044  0.393 -0.067    0.016  0.005  0.218

 Mode:                 4                      5                      6
 Frequency:      1268.01                1363.33                1502.42
 Force Cnst:      3.9548                 1.4075                 1.6324
 Red. Mass:       4.1748                 1.2853                 1.2274
 IR Active:          YES                    YES                    YES
 IR Intens:      124.530                 26.773                 11.434
 Raman Active:       YES                    YES                    YES
               X      Y      Z        X      Y      Z        X      Y      Z
 C          0.033 -0.025 -0.355   -0.109  0.014 -0.055   -0.007 -0.011 -0.136
 O         -0.024  0.031  0.341    0.086 -0.011  0.000   -0.002 -0.005  0.030
 H          0.144 -0.016 -0.071   -0.205  0.072  0.790    0.014 -0.004 -0.012
 H         -0.183 -0.062 -0.733    0.082 -0.030  0.303    0.423  0.024  0.563
 H          0.026 -0.106 -0.377    0.053 -0.028 -0.450   -0.322  0.183  0.588
 TransDip  -0.005 -0.028 -0.356   -0.072  0.027  0.147   -0.013  0.016 -0.106

 Mode:                 7                      8                      9
 Frequency:      3201.84                3342.90                3970.20
 Force Cnst:      6.3238                 7.4115                 9.9045
 Red. Mass:       1.0470                 1.1257                 1.0665
 IR Active:          YES                    YES                    YES
 IR Intens:       14.939                  4.874                 84.705
 Raman Active:       YES                    YES                    YES
               X      Y      Z        X      Y      Z        X      Y      Z
 C         -0.008  0.022  0.055   -0.102  0.018 -0.004   -0.003  0.000  0.001
 O          0.000  0.001 -0.002    0.002  0.000  0.000   -0.058  0.003 -0.023
 H          0.000 -0.002 -0.001   -0.019 -0.001  0.002    0.936 -0.046  0.344
 H          0.645 -0.279 -0.382    0.466 -0.215 -0.279    0.009 -0.003  0.001
 H         -0.548  0.009 -0.235    0.738  0.007  0.320    0.012  0.001  0.004
 TransDip  -0.023  0.022  0.120   -0.068  0.018 -0.003    0.230 -0.007  0.184

 STANDARD THERMODYNAMIC QUANTITIES AT   298.18 K  AND     1.00 ATM

   This Molecule has  0 Imaginary Frequencies
   Zero point vibrational energy:       23.747 kcal/mol

   Atom    1 Element C  Has Mass   12.00000
   Atom    2 Element O  Has Mass   15.99491
   Atom    3 Element H  Has Mass    1.00783
   Atom    4 Element H  Has Mass    1.00783
   Atom    5 Element H  Has Mass    1.00783
   Molecular Mass:    31.018400 amu
   Principal axes and moments of inertia in atomic units:
                             1           2           3
    Eigenvalues --        9.21328    59.41438    68.21268
          X               0.08324     0.98299     0.16372
          Y               0.07823    -0.17023     0.98229
          Z               0.99345    -0.06896    -0.09107
   Rotational Symmetry Number is   1
   The Molecule is an Asymmetric Top
   Translational Enthalpy:        0.889 kcal/mol
   Rotational Enthalpy:           0.889 kcal/mol
   Vibrational Enthalpy:         24.117 kcal/mol
   gas constant (RT):             0.593 kcal/mol
   Translational Entropy:        36.229  cal/mol.K
   Rotational Entropy:           18.263  cal/mol.K
   Vibrational Entropy:           1.762  cal/mol.K

   Total Enthalpy:               26.487 kcal/mol
   Total Entropy:                56.255  cal/mol.K
Archival summary:
1\1\cfa007\FREQ\ProcedureUnspecified\BasisUnspecified\113(2)\sivanr\ThuJun2008:35:122013ThuJun2008:35:122013\0\\#,FREQ,ProcedureUnspecified,BasisUnspecified,\\0,2\O\H,1,0.956618\C,1,1.35306,2,110.195\H,3,1.07716,1,114.534,2,-176.72,0\H,3,1.08044,1,119.282,2,-18.8986,0\\\@

 Total job time:  272.29s(wall), 144.30s(cpu) 
 Thu Jun 20 08:35:12 2013

        *************************************************************
        *                                                           *
        *  Thank you very much for using Q-Chem.  Have a nice day.  *
        *                                                           *
        *************************************************************


0 sent ACK to 0 
now end server 0 ... 
