Process 0 of 1 is on cl206.stfx.acenet.ca - thread support 1
initial socket setup ...start
initial socket setup ...done 
now start server 0 ... 

cmd = /usr/bin/ssh clhead /usr/local/qchem/bin/get_hostid 359011302 > /scratch/tmp/5997803.1.medium.q/qchem7362/lic.dat
                  Welcome to Q-Chem
     A Quantum Leap Into The Future Of Chemistry

 Y. Shao, L. Fusti-Molnar, Y. Jung, J. Kussmann, C. Ochsenfeld,
 S. T. Brown, A. T. B. Gilbert, L. V. Slipchenko,S. V. Levchenko,
 D. P. O'Neill, R. A. DiStasio Jr., R. C. Lochan, T. Wang,
 G. J. O. Beran, N. A. Besley, J. M. Herbert, C. Y. Lin,
 T. Van Voorhis, S. H. Chien, A. Sodt, R. P. Steele, 
 V. A. Rassolov, P. E. Maslen, P. P. Korambath, R. D. Adamson,
 B. Austin, J. Baker, E. F. C. Byrd, H. Dachsel, R. J. Doerksen,
 A. Dreuw, B. D. Dunietz, A. D. Dutoi, T. R. Furlani,
 S. R. Gwaltney, A. Heyden, S. Hirata, C.-P. Hsu, G. Kedziora,
 R. Z. Khaliullin, P. Klunzinger, A. M. Lee, M. S. Lee, W. Liang,
 I. Lotan, N. Nair, B. Peters, E. I. Proynov, P. A. Pieniazek, 
 Y. M. Rhee, J. Ritchie, E. Rosta, C. D. Sherrill, 
 A. C. Simmonett, J. E. Subotnik, H. L. Woodcock III,
 W. Zhang, A. T. Bell, A. K. Chakraborty, D. M. Chipman,
 F. J. Keil, A. Warshel, W. J. Hehre, H. F. Schaefer III,
 J. Kong, A. I. Krylov, P. M. W. Gill, M. Head-Gordon,
 Q-Chem, Version 3.1, Q-Chem, Inc., Pittsburgh, PA (2007).

 Additional authors for Version 3.1: 
 Z. Gan, Y. Zhao, N. E. Schultz, D. Truhlar, E. Epifanovsky and M. Oana.

 Additional authors for Version 3.2: 
 R. Baer, B. R. Brooks, D. Casanova, J.-D. Chai, C.-L. Cheng, 
 C. Cramer, D. Crittenden, A. Ghysels, G. Hawkins, E. G. Hohenstein, 
 C. Kelley, W. Kurlancheek, D. Liotard, E. Livshits, P. Manohar, 
 A. Marenich, D. Neuhauser, R. Olson, M. A. Rohrdanz, K. S. Thanthiriwatte, 
 A. J. W. Thom, V. Vanovschi, C. F. Williams, Q. Wu and Z.-Q. You. 


 Intel X86 Linux Version

 Q-chem begins on Wed May 22 11:07:07 2013  

 Parallel job on  1  processors
Processing $rem in /usr/local/qchem/config/preferences.

theFileMan(): MAXOPENFILES=974 MAX_SUB_FILE_NUM=16
Maximum size of a physical file is 2.0 GB, maximum size of a tmp-file is 32.0 GB


--------------------------------------------------------------
User input:
--------------------------------------------------------------

$molecule
-1,2
C          0.00015        0.00000       -0.00006
Cl        -0.00020        0.00000        1.75444
Cl         1.65491        0.00000       -0.58494
Cl        -0.82743       -1.43231       -0.58472
Cl        -0.82743        1.43231       -0.58472
$end

$comment
negative
$end

$xc_functional
C PBE   1.00
X wPBE  1.00
$end

$rem
SYMMETRY_DECOMPOSITION	0
exchange 		general
LRC_DFT                 true
BASIS                   g3large
omega			1000
mem_static              760
max_scf_cycles          200
scf_final_print         1
sym_ignore              true
$end

--------------------------------------------------------------
 Writing REM_CC_EA            5
 ----------------------------------------------------
       Standard Nuclear Orientation (Angstroms)
    I     Atom         X            Y            Z
 ----------------------------------------------------
    1      C       0.000150     0.000000    -0.000060
    2      Cl     -0.000200     0.000000     1.754440
    3      Cl      1.654910     0.000000    -0.584940
    4      Cl     -0.827430    -1.432310    -0.584720
    5      Cl     -0.827430     1.432310    -0.584720
 ----------------------------------------------------
 Nuclear Repulsion Energy =   443.2894061578 hartrees
 There are       38 alpha and       37 beta electrons
 Requested basis set is G3large
 There are 86 shells and 306 basis functions

Total QAlloc Memory Limit   2000 MB
Mega-Array Size       743 MB
MEM_STATIC part       760 MB

                       Distance Matrix (Angstroms)
             C (  1)   Cl(  2)   Cl(  3)   Cl(  4)
   Cl(  2)  1.754500
   Cl(  3)  1.755083  2.865674
   Cl(  4)  1.754488  2.864872  2.865925
   Cl(  5)  1.754488  2.864872  2.865925  2.864620
 
 A cutoff of  1.0D-08 yielded   2931 shell pairs
 There are  38903 function pairs ( 54927 Cartesian)
Evaluating contribution to one-electron hamiltonian from nuclear
 Smallest overlap matrix eigenvalue = 3.52E-05

 Q-Chem warning in module mkSTV.C, line 194:

 Overlap eigenvalue is smaller than square root of threshold

 Multipole matrices computed through 2nd order

  Scale SEOQF with 1.000000e-01/1.000000e-01/1.000000e-01

 Standard Electronic Orientation quadrupole field applied
 Guess from superposition of atomic densities
 Warning:  Energy on first SCF cycle will be non-variational
 Long-range K will be added via erf
 Coulomb attenuation parameter = 1 bohr**(-1)
 An unrestricted Kohn-Sham SCF calculation will be
 performed using Pulay DIIS extrapolation
 Exchange:  wPBE + LR-HF      Correlation:  PBE
 Using SG-1 standard quadrature grid
 SCF converges when DIIS error is below 1.0E-05
 Requested basis set is G3large
 There are 86 shells and 306 basis functions
 A cutoff of  1.0D-08 yielded   2931 shell pairs
 There are  38903 function pairs ( 54927 Cartesian)
 Warning!  Inaccurate integrated density:
   Number of electrons =    75
   Numerical integral  =    74.000007602611
   Relative error      =    -1.3333231965 %
 ---------------------------------------
  Cycle       Energy         DIIS Error
 ---------------------------------------
    1   -1879.6896573455      1.99E-02
    2   -1878.4531360526      2.76E-03
    3   -1878.4976384081      2.49E-03
    4   -1878.5573368598      3.43E-04
    5   -1878.5597839742      1.28E-04
    6   -1878.5603830527      4.31E-05
    7   -1878.5605012182      1.41E-05
    8   -1878.5605232683      5.70E-06 Convergence criterion met
 ---------------------------------------
 One-Electron    Energy = -3491.5534138655
 Total Coulomb   Energy =  1288.0881487274
 Alpha Exchange  Energy =   -16.3617546336
 Beta  Exchange  Energy =   -16.0884084273
 DFT   Exchange  Energy =   -83.0114594794
 DFT Correlation Energy =    -2.9230417478
 Nuclear Repu.   Energy =   443.2894061578
 Nuclear Attr.   Energy = -5367.9197810330
 Kinetic         Energy =  1876.3663671675
 <S^2> = 0.7600
 SCF time:  CPU 439.10 s  wall 441.30 s
 Final Alpha MO Eigenvalues
            1           2           3           4           5           6
    1-101.0356837-101.0344028-101.0342404-101.0340862 -10.4366010  -9.5619608
            7           8           9          10          11          12
    1  -9.5607019  -9.5605116  -9.5603616  -7.3360626  -7.3347970  -7.3344005
           13          14          15          16          17          18
    1  -7.3343736  -7.3255582  -7.3254417  -7.3243057  -7.3241895  -7.3241711
           19          20          21          22          23          24
    1  -7.3241672  -7.3240075  -7.3239162  -1.1002198  -0.9368757  -0.9362205
           25          26          27          28          29          30
    1  -0.9360397  -0.6767383  -0.4968514  -0.4965760  -0.4965120  -0.3686023
           31          32          33          34          35          36
    1  -0.3685729  -0.3279731  -0.3279139  -0.3277855  -0.2918841  -0.2918270
           37          38          39          40          41          42
    1  -0.2914236   0.0010849   0.2038303   0.2102502   0.2103845   0.2104161
           43
    1   0.2450622
 Final Beta MO Eigenvalues
            1           2           3           4           5           6
    1-101.0349098-101.0336040-101.0334295-101.0332740 -10.4262805  -9.5610833
            7           8           9          10          11          12
    1  -9.5597942  -9.5595908  -9.5594384  -7.3337855  -7.3324577  -7.3319220
           13          14          15          16          17          18
    1  -7.3318998  -7.3249976  -7.3248261  -7.3237208  -7.3236139  -7.3236100
           19          20          21          22          23          24
    1  -7.3235485  -7.3234488  -7.3233047  -1.0790671  -0.9260687  -0.9251505
           25          26          27          28          29          30
    1  -0.9248875  -0.6381373  -0.4807543  -0.4804611  -0.4803941  -0.3629352
           31          32          33          34          35          36
    1  -0.3629096  -0.3170493  -0.3170332  -0.3170035  -0.2885796  -0.2885188
           37          38          39          40          41          42
    1  -0.2880347   0.1957301   0.2180704   0.2184446   0.2185264   0.2520319
 Analysis of SCF Wavefunction
 
 --------------------------------------------------------------
                    Orbital Energies (a.u.)
 --------------------------------------------------------------
 
 Alpha MOs
 -- Occupied --
*******-101.034-101.034-101.034 -10.437  -9.562  -9.561  -9.561
 -9.560  -7.336  -7.335  -7.334  -7.334  -7.326  -7.325  -7.324
 -7.324  -7.324  -7.324  -7.324  -7.324  -1.100  -0.937  -0.936
 -0.936  -0.677  -0.497  -0.497  -0.497  -0.369  -0.369  -0.328
 -0.328  -0.328  -0.292  -0.292  -0.291   0.001
 -- Virtual --
  0.204   0.210   0.210   0.210   0.245   0.245   0.245   0.275
  0.275   0.307   0.307   0.307   0.314   0.319   0.319   0.319
  0.339   0.339   0.340   0.391   0.391   0.392   0.491   0.520
  0.520   0.575   0.575   0.576   0.606   0.606   0.606   0.635
  0.635   0.636   0.647   0.647   0.657   0.693   0.694   0.694
  0.712   0.712   0.713   0.752   0.752   0.753   0.811   0.811
  0.820   0.861   0.861   0.861   0.976   0.976   0.976   1.065
  1.181   1.181   1.181   1.191   1.191   1.284   1.284   1.284
  1.367   1.367   1.367   1.376   1.401   1.401   1.401   1.467
  1.467   1.480   1.480   1.480   1.494   1.494   1.494   1.542
  1.545   1.545   1.545   1.549   1.549   1.550   1.565   1.565
  1.578   1.578   1.578   1.607   1.791   1.792   1.792   1.801
  1.801   1.801   1.833   1.839   1.839   1.963   1.963   1.963
  2.054   2.054   2.054   2.079   2.094   2.094   2.094   2.136
  2.136   2.305   2.305   2.306   2.593   2.593   2.593   2.694
  2.694   2.694   2.709   2.709   2.886   2.886   2.887   3.099
  3.511   3.512   3.512   3.723   3.723   3.723   3.732   3.842
  3.842   3.842   4.060   4.060   4.267   4.267   4.268   4.801
  4.801   4.801   4.804   4.805   4.805   4.809   4.840   4.840
  4.855   4.856   4.856   4.878   4.930   4.930   4.931   4.963
  4.963   5.041   5.041   5.041   5.089   5.089   5.089   5.099
  5.099   5.099   5.125   5.554   5.555   5.557   5.557   5.558
  5.568   5.569   5.570   5.690   5.690   5.691   5.817   5.818
  5.818   5.837   5.837   6.185   6.326   6.326   6.327  10.331
 10.384  10.385  10.385  21.076  21.076  21.076  21.103  21.103
 21.103  21.120  21.120  21.416  21.417  21.418  21.437  24.158
 27.576  27.584  27.593  27.599  27.606  27.613  27.625  27.656
 27.660  27.664  27.665  27.688  27.704  27.725  27.729  27.734
 27.746  27.747  27.760  27.816  28.419  28.427  28.433  37.294
 37.296  37.297  37.298  37.298  37.298  37.299  37.300  37.300
 37.304  37.306  37.306  37.308  37.311  37.312  37.313  37.315
 37.315  37.323  37.323  37.324  37.329  37.331  37.332  37.332
 37.338  37.340  37.340  41.267  41.276  41.484  41.493  41.509
216.334 216.363 216.364 216.364
 
 Beta MOs
 -- Occupied --
*******-101.034-101.033-101.033 -10.426  -9.561  -9.560  -9.560
 -9.559  -7.334  -7.332  -7.332  -7.332  -7.325  -7.325  -7.324
 -7.324  -7.324  -7.324  -7.323  -7.323  -1.079  -0.926  -0.925
 -0.925  -0.638  -0.481  -0.480  -0.480  -0.363  -0.363  -0.317
 -0.317  -0.317  -0.289  -0.289  -0.288
 -- Virtual --
  0.196   0.218   0.218   0.219   0.252   0.252   0.252   0.258
  0.276   0.276   0.308   0.308   0.308   0.329   0.329   0.329
  0.334   0.362   0.362   0.362   0.394   0.394   0.394   0.498
  0.525   0.525   0.583   0.583   0.583   0.613   0.613   0.613
  0.638   0.638   0.638   0.650   0.650   0.665   0.701   0.701
  0.701   0.718   0.718   0.719   0.755   0.755   0.755   0.813
  0.813   0.841   0.876   0.876   0.876   0.978   0.979   0.979
  1.086   1.185   1.185   1.185   1.194   1.194   1.292   1.292
  1.292   1.371   1.371   1.371   1.378   1.403   1.403   1.403
  1.472   1.472   1.483   1.483   1.484   1.498   1.498   1.498
  1.549   1.549   1.550   1.552   1.553   1.553   1.554   1.568
  1.569   1.583   1.583   1.583   1.608   1.794   1.795   1.795
  1.803   1.803   1.803   1.835   1.843   1.844   1.968   1.968
  1.968   2.058   2.058   2.058   2.095   2.101   2.101   2.101
  2.141   2.141   2.308   2.309   2.309   2.594   2.594   2.595
  2.698   2.698   2.698   2.711   2.711   2.892   2.893   2.893
  3.108   3.518   3.519   3.519   3.730   3.730   3.730   3.739
  3.849   3.849   3.849   4.076   4.076   4.282   4.282   4.283
  4.805   4.805   4.805   4.807   4.808   4.808   4.811   4.845
  4.845   4.857   4.858   4.858   4.880   4.935   4.935   4.935
  4.968   4.968   5.046   5.046   5.046   5.095   5.095   5.095
  5.104   5.104   5.104   5.131   5.555   5.555   5.558   5.558
  5.559   5.569   5.570   5.570   5.692   5.693   5.693   5.820
  5.820   5.821   5.839   5.840   6.189   6.329   6.329   6.330
 10.333  10.386  10.387  10.387  21.076  21.077  21.077  21.103
 21.104  21.104  21.120  21.121  21.418  21.420  21.420  21.440
 24.171  27.580  27.587  27.594  27.600  27.608  27.614  27.628
 27.657  27.661  27.665  27.665  27.690  27.706  27.727  27.731
 27.737  27.749  27.749  27.761  27.819  28.427  28.435  28.441
 37.295  37.296  37.297  37.298  37.298  37.298  37.299  37.300
 37.300  37.304  37.306  37.306  37.308  37.311  37.312  37.313
 37.316  37.316  37.324  37.324  37.324  37.330  37.332  37.333
 37.333  37.338  37.340  37.341  41.269  41.278  41.484  41.493
 41.509 216.335 216.364 216.365 216.365
 --------------------------------------------------------------
 
          Ground-State Mulliken Net Atomic Charges

     Atom                 Charge (a.u.)    Spin (a.u.)
  --------------------------------------------------------
      1 C                     1.963751      -0.256152
      2 Cl                   -0.743140       0.316960
      3 Cl                   -0.743544       0.317417
      4 Cl                   -0.741418       0.314476
      5 Cl                   -0.735649       0.307300
  --------------------------------------------------------
  Sum of atomic charges =    -1.000000
  Sum of spin   charges =     1.000000

 -----------------------------------------------------------------
                    Cartesian Multipole Moments
 -----------------------------------------------------------------
    Charge (ESU x 10^10)
                -4.8032
    Dipole Moment (Debye)
         X      -0.0444      Y       0.0416      Z      -0.0249
       Tot       0.0658
    Quadrupole Moments (Debye-Ang)
        XX     -67.6096     XY      -0.0747     YY     -67.4526
        XZ       0.0544     YZ      -0.0528     ZZ     -67.6224
    Octapole Moments (Debye-Ang^2)
       XXX      -7.1077    XXY       0.1127    XYY       6.6538
       YYY       0.3380    XXZ       4.8630    XYZ       0.0767
       YYZ       4.7017    XZZ      -0.0576    YZZ       0.0584
       ZZZ      -9.8689
    Hexadecapole Moments (Debye-Ang^3)
      XXXX    -441.4533   XXXY      -0.3998   XXYY    -146.6647
      XYYY      -0.5547   YYYY    -439.1509   XXXZ       4.7467
      XXYZ      -0.1307   XYYZ      -4.1866   YYYZ      -0.3919
      XXZZ    -143.9727   XYZZ      -0.1461   YYZZ    -143.6141
      XZZZ       0.2824   YZZZ      -0.2550   ZZZZ    -444.4142
 -----------------------------------------------------------------
 Total job time:  441.92s(wall), 439.68s(cpu) 
 Wed May 22 11:14:29 2013

        *************************************************************
        *                                                           *
        *  Thank you very much for using Q-Chem.  Have a nice day.  *
        *                                                           *
        *************************************************************


0 sent ACK to 0 
now end server 0 ... 
 
**********************************************************************
Job 2 of 3 
**********************************************************************
 
Process 0 of 1 is on cl206.stfx.acenet.ca - thread support 1
initial socket setup ...start
initial socket setup ...done 
now start server 0 ... 

cmd = /usr/bin/ssh clhead /usr/local/qchem/bin/get_hostid 1390147218 > /scratch/tmp/5997803.1.medium.q/qchem7362/lic.dat
                  Welcome to Q-Chem
     A Quantum Leap Into The Future Of Chemistry

 Y. Shao, L. Fusti-Molnar, Y. Jung, J. Kussmann, C. Ochsenfeld,
 S. T. Brown, A. T. B. Gilbert, L. V. Slipchenko,S. V. Levchenko,
 D. P. O'Neill, R. A. DiStasio Jr., R. C. Lochan, T. Wang,
 G. J. O. Beran, N. A. Besley, J. M. Herbert, C. Y. Lin,
 T. Van Voorhis, S. H. Chien, A. Sodt, R. P. Steele, 
 V. A. Rassolov, P. E. Maslen, P. P. Korambath, R. D. Adamson,
 B. Austin, J. Baker, E. F. C. Byrd, H. Dachsel, R. J. Doerksen,
 A. Dreuw, B. D. Dunietz, A. D. Dutoi, T. R. Furlani,
 S. R. Gwaltney, A. Heyden, S. Hirata, C.-P. Hsu, G. Kedziora,
 R. Z. Khaliullin, P. Klunzinger, A. M. Lee, M. S. Lee, W. Liang,
 I. Lotan, N. Nair, B. Peters, E. I. Proynov, P. A. Pieniazek, 
 Y. M. Rhee, J. Ritchie, E. Rosta, C. D. Sherrill, 
 A. C. Simmonett, J. E. Subotnik, H. L. Woodcock III,
 W. Zhang, A. T. Bell, A. K. Chakraborty, D. M. Chipman,
 F. J. Keil, A. Warshel, W. J. Hehre, H. F. Schaefer III,
 J. Kong, A. I. Krylov, P. M. W. Gill, M. Head-Gordon,
 Q-Chem, Version 3.1, Q-Chem, Inc., Pittsburgh, PA (2007).

 Additional authors for Version 3.1: 
 Z. Gan, Y. Zhao, N. E. Schultz, D. Truhlar, E. Epifanovsky and M. Oana.

 Additional authors for Version 3.2: 
 R. Baer, B. R. Brooks, D. Casanova, J.-D. Chai, C.-L. Cheng, 
 C. Cramer, D. Crittenden, A. Ghysels, G. Hawkins, E. G. Hohenstein, 
 C. Kelley, W. Kurlancheek, D. Liotard, E. Livshits, P. Manohar, 
 A. Marenich, D. Neuhauser, R. Olson, M. A. Rohrdanz, K. S. Thanthiriwatte, 
 A. J. W. Thom, V. Vanovschi, C. F. Williams, Q. Wu and Z.-Q. You. 


 Intel X86 Linux Version

 Q-chem begins on Wed May 22 11:14:32 2013  

 Parallel job on  1  processors
Processing $rem in /usr/local/qchem/config/preferences.

theFileMan(): MAXOPENFILES=974 MAX_SUB_FILE_NUM=16
Maximum size of a physical file is 2.0 GB, maximum size of a tmp-file is 32.0 GB


--------------------------------------------------------------
User input:
--------------------------------------------------------------

$molecule
0,1
C          0.00015        0.00000       -0.00006
Cl        -0.00020        0.00000        1.75444
Cl         1.65491        0.00000       -0.58494
Cl        -0.82743       -1.43231       -0.58472
Cl        -0.82743        1.43231       -0.58472
$end

$comment
neutral
$end

$xc_functional
C PBE   1.00
X wPBE  1.00
$end


$rem
SYMMETRY_DECOMPOSITION	0
LRC_DFT                 true
exchange 		general
BASIS                   g3large
omega			1000
mem_static              760
max_scf_cycles          200
scf_final_print         1
sym_ignore              true
$end

--------------------------------------------------------------
 Writing REM_CC_EA            5
 ----------------------------------------------------
       Standard Nuclear Orientation (Angstroms)
    I     Atom         X            Y            Z
 ----------------------------------------------------
    1      C       0.000150     0.000000    -0.000060
    2      Cl     -0.000200     0.000000     1.754440
    3      Cl      1.654910     0.000000    -0.584940
    4      Cl     -0.827430    -1.432310    -0.584720
    5      Cl     -0.827430     1.432310    -0.584720
 ----------------------------------------------------
 Nuclear Repulsion Energy =   443.2894061578 hartrees
 There are       37 alpha and       37 beta electrons
 Requested basis set is G3large
 There are 86 shells and 306 basis functions

Total QAlloc Memory Limit   2000 MB
Mega-Array Size       743 MB
MEM_STATIC part       760 MB

                       Distance Matrix (Angstroms)
             C (  1)   Cl(  2)   Cl(  3)   Cl(  4)
   Cl(  2)  1.754500
   Cl(  3)  1.755083  2.865674
   Cl(  4)  1.754488  2.864872  2.865925
   Cl(  5)  1.754488  2.864872  2.865925  2.864620
 
 A cutoff of  1.0D-08 yielded   2931 shell pairs
 There are  38903 function pairs ( 54927 Cartesian)
Evaluating contribution to one-electron hamiltonian from nuclear
 Smallest overlap matrix eigenvalue = 3.52E-05

 Q-Chem warning in module mkSTV.C, line 194:

 Overlap eigenvalue is smaller than square root of threshold

 Multipole matrices computed through 2nd order

  Scale SEOQF with 1.000000e-01/1.000000e-01/1.000000e-01

 Standard Electronic Orientation quadrupole field applied
 Guess from superposition of atomic densities
 Warning:  Energy on first SCF cycle will be non-variational
 Long-range K will be added via erf
 Coulomb attenuation parameter = 1 bohr**(-1)
 A restricted Kohn-Sham SCF calculation will be
 performed using Pulay DIIS extrapolation
 Exchange:  wPBE + LR-HF      Correlation:  PBE
 Using SG-1 standard quadrature grid
 SCF converges when DIIS error is below 1.0E-05
 Requested basis set is G3large
 There are 86 shells and 306 basis functions
 A cutoff of  1.0D-08 yielded   2931 shell pairs
 There are  38903 function pairs ( 54927 Cartesian)
 ---------------------------------------
  Cycle       Energy         DIIS Error
 ---------------------------------------
    1   -1879.6896573455      1.99E-02
    2   -1878.3920693446      3.87E-03
    3   -1878.4281627520      4.16E-03
    4   -1878.5854087417      3.37E-04
    5   -1878.5881382260      1.10E-04
    6   -1878.5885317979      3.30E-05
    7   -1878.5885669497      1.05E-05
    8   -1878.5885689229      3.03E-06 Convergence criterion met
 ---------------------------------------
 One-Electron    Energy = -3476.2179695519
 Total Coulomb   Energy =  1272.4452714164
 Alpha Exchange  Energy =   -16.1323766658
 Beta  Exchange  Energy =   -16.1323766658
 DFT   Exchange  Energy =   -82.9488702680
 DFT Correlation Energy =    -2.8916533457
 Nuclear Repu.   Energy =   443.2894061578
 Nuclear Attr.   Energy = -5351.8040954460
 Kinetic         Energy =  1875.5861258942
 SCF time:  CPU 360.51 s  wall 362.43 s
 Final Alpha MO Eigenvalues
            1           2           3           4           5           6
    1-101.2451467-101.2451341-101.2451219-101.2450767 -10.6919885  -9.7709195
            7           8           9          10          11          12
    1  -9.7709036  -9.7708861  -9.7708429  -7.5462758  -7.5462348  -7.5461004
           13          14          15          16          17          18
    1  -7.5459211  -7.5338120  -7.5338110  -7.5337798  -7.5336918  -7.5336479
           19          20          21          22          23          24
    1  -7.5336232  -7.5335012  -7.5334569  -1.2982254  -1.1371613  -1.1371223
           25          26          27          28          29          30
    1  -1.1371063  -0.8543224  -0.6954659  -0.6954417  -0.6954397  -0.5659497
           31          32          33          34          35          36
    1  -0.5659274  -0.5213473  -0.5213117  -0.5213030  -0.4914305  -0.4914251
           37          38          39          40          41          42
    1  -0.4913653   0.0490822   0.0785623   0.0831940   0.0832226   0.0832386
 Analysis of SCF Wavefunction
 
 --------------------------------------------------------------
                    Orbital Energies (a.u.)
 --------------------------------------------------------------
 
 Alpha MOs
 -- Occupied --
*******-101.245-101.245-101.245 -10.692  -9.771  -9.771  -9.771
 -9.771  -7.546  -7.546  -7.546  -7.546  -7.534  -7.534  -7.534
 -7.534  -7.534  -7.534  -7.534  -7.533  -1.298  -1.137  -1.137
 -1.137  -0.854  -0.695  -0.695  -0.695  -0.566  -0.566  -0.521
 -0.521  -0.521  -0.491  -0.491  -0.491
 -- Virtual --
  0.049   0.079   0.083   0.083   0.083   0.105   0.105   0.105
  0.142   0.142   0.162   0.162   0.162   0.180   0.180   0.180
  0.187   0.199   0.199   0.199   0.241   0.241   0.241   0.333
  0.333   0.341   0.404   0.404   0.404   0.433   0.433   0.433
  0.452   0.452   0.452   0.467   0.467   0.504   0.536   0.536
  0.536   0.539   0.539   0.539   0.583   0.583   0.583   0.635
  0.635   0.654   0.679   0.679   0.680   0.795   0.795   0.795
  0.885   0.990   0.990   0.991   0.998   0.998   1.093   1.094
  1.094   1.177   1.177   1.177   1.188   1.210   1.210   1.210
  1.276   1.276   1.288   1.288   1.288   1.300   1.300   1.301
  1.351   1.352   1.352   1.352   1.358   1.358   1.358   1.367
  1.367   1.388   1.388   1.388   1.419   1.604   1.604   1.604
  1.607   1.607   1.607   1.642   1.642   1.648   1.769   1.769
  1.769   1.863   1.863   1.863   1.887   1.894   1.894   1.894
  1.942   1.943   2.108   2.109   2.109   2.397   2.397   2.397
  2.496   2.496   2.496   2.512   2.512   2.684   2.684   2.685
  2.900   3.298   3.298   3.298   3.512   3.512   3.512   3.520
  3.627   3.627   3.627   3.846   3.847   4.054   4.054   4.054
  4.596   4.596   4.596   4.602   4.602   4.602   4.607   4.635
  4.635   4.653   4.653   4.653   4.676   4.726   4.726   4.726
  4.758   4.758   4.835   4.836   4.836   4.882   4.883   4.883
  4.893   4.894   4.894   4.917   5.349   5.350   5.352   5.353
  5.353   5.363   5.364   5.365   5.481   5.482   5.482   5.611
  5.611   5.611   5.628   5.628   5.976   6.116   6.116   6.117
 10.124  10.177  10.178  10.178  20.867  20.867  20.868  20.894
 20.894  20.894  20.911  20.912  21.206  21.207  21.207  21.226
 23.906  27.357  27.368  27.383  27.390  27.393  27.403  27.411
 27.448  27.451  27.455  27.456  27.478  27.491  27.514  27.519
 27.521  27.534  27.536  27.549  27.605  28.182  28.191  28.198
 37.085  37.086  37.087  37.088  37.088  37.088  37.089  37.090
 37.090  37.095  37.097  37.097  37.099  37.101  37.102  37.103
 37.104  37.104  37.112  37.112  37.113  37.118  37.120  37.121
 37.121  37.127  37.129  37.129  41.014  41.023  41.229  41.238
 41.255 216.124 216.154 216.154 216.154
 --------------------------------------------------------------
 
          Ground-State Mulliken Net Atomic Charges

     Atom                 Charge (a.u.)
  ----------------------------------------
      1 C                     1.562390
      2 Cl                   -0.390621
      3 Cl                   -0.390547
      4 Cl                   -0.390383
      5 Cl                   -0.390839
  ----------------------------------------
  Sum of atomic charges =     0.000000

 -----------------------------------------------------------------
                    Cartesian Multipole Moments
 -----------------------------------------------------------------
    Charge (ESU x 10^10)
                 0.0000
    Dipole Moment (Debye)
         X      -0.0006      Y      -0.0009      Z       0.0012
       Tot       0.0016
    Quadrupole Moments (Debye-Ang)
        XX     -54.0695     XY       0.0000     YY     -54.0720
        XZ       0.0000     YZ       0.0004     ZZ     -54.0685
    Octapole Moments (Debye-Ang^2)
       XXX       4.8022    XXY      -0.0015    XYY      -4.8060
       YYY      -0.0044    XXZ      -3.3959    XYZ       0.0003
       YYZ      -3.3946    XZZ      -0.0028    YZZ      -0.0017
       ZZZ       6.7988
    Hexadecapole Moments (Debye-Ang^3)
      XXXX    -341.4074   XXXY      -0.0054   XXYY    -113.7413
      XYYY       0.0022   YYYY    -341.0914   XXXZ      -6.3660
      XXYZ       0.0013   XYYZ       6.4041   YYYZ       0.0039
      XXZZ    -118.2810   XYZZ      -0.0006   YYZZ    -118.2249
      XZZZ       0.0204   YZZZ      -0.0016   ZZZZ    -336.6036
 -----------------------------------------------------------------
 Total job time:  362.98s(wall), 361.05s(cpu) 
 Wed May 22 11:20:35 2013

        *************************************************************
        *                                                           *
        *  Thank you very much for using Q-Chem.  Have a nice day.  *
        *                                                           *
        *************************************************************


0 sent ACK to 0 
now end server 0 ... 
 
**********************************************************************
Job 3 of 3 
**********************************************************************
 
Process 0 of 1 is on cl206.stfx.acenet.ca - thread support 1
initial socket setup ...start
initial socket setup ...done 
now start server 0 ... 

cmd = /usr/bin/ssh clhead /usr/local/qchem/bin/get_hostid 669941581 > /scratch/tmp/5997803.1.medium.q/qchem7362/lic.dat
                  Welcome to Q-Chem
     A Quantum Leap Into The Future Of Chemistry

 Y. Shao, L. Fusti-Molnar, Y. Jung, J. Kussmann, C. Ochsenfeld,
 S. T. Brown, A. T. B. Gilbert, L. V. Slipchenko,S. V. Levchenko,
 D. P. O'Neill, R. A. DiStasio Jr., R. C. Lochan, T. Wang,
 G. J. O. Beran, N. A. Besley, J. M. Herbert, C. Y. Lin,
 T. Van Voorhis, S. H. Chien, A. Sodt, R. P. Steele, 
 V. A. Rassolov, P. E. Maslen, P. P. Korambath, R. D. Adamson,
 B. Austin, J. Baker, E. F. C. Byrd, H. Dachsel, R. J. Doerksen,
 A. Dreuw, B. D. Dunietz, A. D. Dutoi, T. R. Furlani,
 S. R. Gwaltney, A. Heyden, S. Hirata, C.-P. Hsu, G. Kedziora,
 R. Z. Khaliullin, P. Klunzinger, A. M. Lee, M. S. Lee, W. Liang,
 I. Lotan, N. Nair, B. Peters, E. I. Proynov, P. A. Pieniazek, 
 Y. M. Rhee, J. Ritchie, E. Rosta, C. D. Sherrill, 
 A. C. Simmonett, J. E. Subotnik, H. L. Woodcock III,
 W. Zhang, A. T. Bell, A. K. Chakraborty, D. M. Chipman,
 F. J. Keil, A. Warshel, W. J. Hehre, H. F. Schaefer III,
 J. Kong, A. I. Krylov, P. M. W. Gill, M. Head-Gordon,
 Q-Chem, Version 3.1, Q-Chem, Inc., Pittsburgh, PA (2007).

 Additional authors for Version 3.1: 
 Z. Gan, Y. Zhao, N. E. Schultz, D. Truhlar, E. Epifanovsky and M. Oana.

 Additional authors for Version 3.2: 
 R. Baer, B. R. Brooks, D. Casanova, J.-D. Chai, C.-L. Cheng, 
 C. Cramer, D. Crittenden, A. Ghysels, G. Hawkins, E. G. Hohenstein, 
 C. Kelley, W. Kurlancheek, D. Liotard, E. Livshits, P. Manohar, 
 A. Marenich, D. Neuhauser, R. Olson, M. A. Rohrdanz, K. S. Thanthiriwatte, 
 A. J. W. Thom, V. Vanovschi, C. F. Williams, Q. Wu and Z.-Q. You. 


 Intel X86 Linux Version

 Q-chem begins on Wed May 22 11:20:38 2013  

 Parallel job on  1  processors
Processing $rem in /usr/local/qchem/config/preferences.

theFileMan(): MAXOPENFILES=974 MAX_SUB_FILE_NUM=16
Maximum size of a physical file is 2.0 GB, maximum size of a tmp-file is 32.0 GB


--------------------------------------------------------------
User input:
--------------------------------------------------------------

$molecule
1,2
C          0.00015        0.00000       -0.00006
Cl        -0.00020        0.00000        1.75444
Cl         1.65491        0.00000       -0.58494
Cl        -0.82743       -1.43231       -0.58472
Cl        -0.82743        1.43231       -0.58472
$end

$comment
positive
$end

$xc_functional
C PBE   1.00
X wPBE  1.00
$end

$rem
SYMMETRY_DECOMPOSITION	0
LRC_DFT                 true
exchange 		general
BASIS                   g3large
omega			1000
mem_static              760
max_scf_cycles          200
scf_final_print         1
sym_ignore              true
$end

--------------------------------------------------------------
 Writing REM_CC_EA            5
 ----------------------------------------------------
       Standard Nuclear Orientation (Angstroms)
    I     Atom         X            Y            Z
 ----------------------------------------------------
    1      C       0.000150     0.000000    -0.000060
    2      Cl     -0.000200     0.000000     1.754440
    3      Cl      1.654910     0.000000    -0.584940
    4      Cl     -0.827430    -1.432310    -0.584720
    5      Cl     -0.827430     1.432310    -0.584720
 ----------------------------------------------------
 Nuclear Repulsion Energy =   443.2894061578 hartrees
 There are       37 alpha and       36 beta electrons
 Requested basis set is G3large
 There are 86 shells and 306 basis functions

Total QAlloc Memory Limit   2000 MB
Mega-Array Size       743 MB
MEM_STATIC part       760 MB

                       Distance Matrix (Angstroms)
             C (  1)   Cl(  2)   Cl(  3)   Cl(  4)
   Cl(  2)  1.754500
   Cl(  3)  1.755083  2.865674
   Cl(  4)  1.754488  2.864872  2.865925
   Cl(  5)  1.754488  2.864872  2.865925  2.864620
 
 A cutoff of  1.0D-08 yielded   2931 shell pairs
 There are  38903 function pairs ( 54927 Cartesian)
Evaluating contribution to one-electron hamiltonian from nuclear
 Smallest overlap matrix eigenvalue = 3.52E-05

 Q-Chem warning in module mkSTV.C, line 194:

 Overlap eigenvalue is smaller than square root of threshold

 Multipole matrices computed through 2nd order

  Scale SEOQF with 1.000000e-01/1.000000e-01/1.000000e-01

 Standard Electronic Orientation quadrupole field applied
 Guess from superposition of atomic densities
 Warning:  Energy on first SCF cycle will be non-variational
 Long-range K will be added via erf
 Coulomb attenuation parameter = 1 bohr**(-1)
 An unrestricted Kohn-Sham SCF calculation will be
 performed using Pulay DIIS extrapolation
 Exchange:  wPBE + LR-HF      Correlation:  PBE
 Using SG-1 standard quadrature grid
 SCF converges when DIIS error is below 1.0E-05
 Requested basis set is G3large
 There are 86 shells and 306 basis functions
 A cutoff of  1.0D-08 yielded   2931 shell pairs
 There are  38903 function pairs ( 54927 Cartesian)
 Warning!  Inaccurate integrated density:
   Number of electrons =    73
   Numerical integral  =    74.000007602611
   Relative error      =     1.3698734282 %
 ---------------------------------------
  Cycle       Energy         DIIS Error
 ---------------------------------------
    1   -1879.6896573455      1.99E-02
    2   -1877.8335296995      4.54E-03
    3   -1877.9057167171      4.86E-03
    4   -1878.1269201933      4.11E-04
    5   -1878.1323895922      1.88E-04
    6   -1878.1342916216      8.70E-05
    7   -1878.1353416199      5.40E-05
    8   -1878.1359068293      3.22E-05
    9   -1878.1362842456      1.74E-05
   10   -1878.1363974727      8.58E-06 Convergence criterion met
 ---------------------------------------
 One-Electron    Energy = -3458.9277789801
 Total Coulomb   Energy =  1255.2342734153
 Alpha Exchange  Energy =   -16.1892213902
 Beta  Exchange  Energy =   -15.8027639705
 DFT   Exchange  Energy =   -82.8911162363
 DFT Correlation Energy =    -2.8491964687
 Nuclear Repu.   Energy =   443.2894061578
 Nuclear Attr.   Energy = -5334.0632135983
 Kinetic         Energy =  1875.1354346182
 <S^2> = 0.7627
 SCF time:  CPU 567.18 s  wall 568.45 s
 Final Alpha MO Eigenvalues
            1           2           3           4           5           6
    1-101.6144190-101.4623256-101.4406497-101.4400558 -10.9090928 -10.1343729
            7           8           9          10          11          12
    1  -9.9858878  -9.9651064  -9.9645634  -7.9151482  -7.9026954  -7.8916593
           13          14          15          16          17          18
    1  -7.7624402  -7.7499178  -7.7473112  -7.7413958  -7.7406479  -7.7280688
           19          20          21          22          23          24
    1  -7.7275237  -7.7271063  -7.7267361  -1.5579228  -1.4247422  -1.3426750
           25          26          27          28          29          30
    1  -1.3301301  -1.0891308  -0.9550298  -0.9399471  -0.9174920  -0.8535226
           31          32          33          34          35          36
    1  -0.8229791  -0.7485559  -0.7374915  -0.7321414  -0.7000230  -0.6945739
           37          38          39          40          41          42
    1  -0.6805554  -0.1755505  -0.1045289  -0.0983631  -0.0928154  -0.0779896
 Final Beta MO Eigenvalues
            1           2           3           4           5           6
    1-101.6083199-101.4614182-101.4405144-101.4399406 -10.9095966 -10.1281634
            7           8           9          10          11          12
    1  -9.9849678  -9.9649693  -9.9644474  -7.8984385  -7.8971108  -7.8876040
           13          14          15          16          17          18
    1  -7.7609602  -7.7480023  -7.7467853  -7.7412030  -7.7404815  -7.7277366
           19          20          21          22          23          24
    1  -7.7272385  -7.7270454  -7.7266877  -1.5230575  -1.3766390  -1.3341850
           25          26          27          28          29          30
    1  -1.3286321  -1.0750472  -0.9335840  -0.9111849  -0.8872811  -0.8131033
           31          32          33          34          35          36
    1  -0.7393047  -0.7328812  -0.7209885  -0.6997421  -0.6917584  -0.6800065
           37          38          39          40          41
    1  -0.3984251  -0.1631862  -0.1019003  -0.0924797  -0.0912590
 Analysis of SCF Wavefunction
 
 --------------------------------------------------------------
                    Orbital Energies (a.u.)
 --------------------------------------------------------------
 
 Alpha MOs
 -- Occupied --
*******-101.462-101.441-101.440 -10.909 -10.134  -9.986  -9.965
 -9.965  -7.915  -7.903  -7.892  -7.762  -7.750  -7.747  -7.741
 -7.741  -7.728  -7.728  -7.727  -7.727  -1.558  -1.425  -1.343
 -1.330  -1.089  -0.955  -0.940  -0.917  -0.854  -0.823  -0.749
 -0.737  -0.732  -0.700  -0.695  -0.681
 -- Virtual --
 -0.176  -0.105  -0.098  -0.093  -0.078  -0.044  -0.039  -0.038
 -0.005  -0.004  -0.001   0.000   0.007   0.034   0.039   0.042
  0.047   0.050   0.054   0.055   0.068   0.074   0.076   0.121
  0.124   0.177   0.179   0.183   0.226   0.240   0.244   0.245
  0.246   0.248   0.268   0.281   0.287   0.317   0.328   0.341
  0.365   0.371   0.378   0.384   0.384   0.394   0.412   0.435
  0.450   0.450   0.481   0.488   0.492   0.582   0.594   0.617
  0.674   0.773   0.778   0.788   0.792   0.793   0.861   0.887
  0.893   0.944   0.948   0.959   0.965   0.972   0.996   0.998
  1.015   1.015   1.066   1.073   1.091   1.100   1.100   1.101
  1.115   1.133   1.142   1.143   1.149   1.155   1.159   1.160
  1.172   1.172   1.198   1.205   1.215   1.347   1.370   1.371
  1.404   1.416   1.423   1.436   1.441   1.456   1.534   1.565
  1.570   1.637   1.641   1.652   1.677   1.683   1.686   1.690
  1.737   1.739   1.876   1.887   1.920   2.111   2.145   2.210
  2.264   2.278   2.280   2.313   2.316   2.438   2.476   2.483
  2.685   3.075   3.078   3.080   3.285   3.290   3.293   3.304
  3.385   3.419   3.425   3.627   3.629   3.832   3.834   3.836
  4.255   4.270   4.294   4.296   4.370   4.387   4.400   4.414
  4.417   4.419   4.442   4.447   4.462   4.486   4.487   4.521
  4.540   4.548   4.552   4.599   4.607   4.651   4.655   4.665
  4.680   4.684   4.700   4.708   4.997   4.998   5.142   5.145
  5.156   5.163   5.167   5.169   5.194   5.212   5.275   5.364
  5.365   5.414   5.416   5.425   5.721   5.850   5.908   5.917
  9.807   9.941   9.975   9.986  20.509  20.534  20.665  20.669
 20.685  20.686  20.706  20.710  20.871  20.993  21.010  21.024
 23.689  27.030  27.071  27.082  27.119  27.125  27.182  27.188
 27.192  27.193  27.210  27.236  27.262  27.264  27.275  27.303
 27.314  27.328  27.341  27.352  27.371  27.946  27.974  27.979
 36.726  36.727  36.731  36.733  36.744  36.761  36.763  36.876
 36.880  36.881  36.882  36.888  36.890  36.896  36.899  36.900
 36.901  36.904  36.904  36.907  36.908  36.909  36.914  36.919
 36.922  36.924  36.924  36.932  40.796  40.807  41.012  41.022
 41.036 215.778 215.925 215.950 215.959
 
 Beta MOs
 -- Occupied --
*******-101.461-101.441-101.440 -10.910 -10.128  -9.985  -9.965
 -9.964  -7.898  -7.897  -7.888  -7.761  -7.748  -7.747  -7.741
 -7.740  -7.728  -7.727  -7.727  -7.727  -1.523  -1.377  -1.334
 -1.329  -1.075  -0.934  -0.911  -0.887  -0.813  -0.739  -0.733
 -0.721  -0.700  -0.692  -0.680
 -- Virtual --
 -0.398  -0.163  -0.102  -0.092  -0.091  -0.076  -0.038  -0.038
 -0.037   0.000   0.001   0.001   0.002   0.008   0.036   0.041
  0.043   0.052   0.052   0.055   0.055   0.076   0.078   0.081
  0.130   0.135   0.177   0.207   0.209   0.230   0.247   0.247
  0.252   0.253   0.255   0.271   0.285   0.288   0.320   0.344
  0.349   0.365   0.371   0.381   0.384   0.396   0.401   0.414
  0.443   0.451   0.455   0.484   0.491   0.492   0.596   0.596
  0.617   0.677   0.779   0.781   0.793   0.794   0.795   0.869
  0.891   0.894   0.961   0.963   0.970   0.973   0.979   1.014
  1.017   1.024   1.026   1.077   1.078   1.095   1.102   1.103
  1.105   1.122   1.143   1.145   1.147   1.154   1.157   1.162
  1.163   1.173   1.174   1.200   1.205   1.218   1.360   1.379
  1.380   1.407   1.419   1.423   1.439   1.442   1.458   1.539
  1.569   1.572   1.643   1.650   1.653   1.679   1.685   1.686
  1.691   1.739   1.740   1.884   1.890   1.921   2.151   2.152
  2.211   2.273   2.279   2.284   2.314   2.318   2.443   2.479
  2.484   2.687   3.075   3.079   3.080   3.286   3.290   3.296
  3.303   3.387   3.419   3.424   3.626   3.628   3.832   3.835
  3.835   4.299   4.314   4.321   4.323   4.390   4.390   4.402
  4.415   4.420   4.424   4.446   4.450   4.466   4.492   4.493
  4.523   4.546   4.553   4.560   4.608   4.610   4.656   4.659
  4.667   4.683   4.685   4.701   4.710   5.014   5.015   5.144
  5.147   5.158   5.164   5.167   5.170   5.206   5.214   5.276
  5.366   5.368   5.415   5.418   5.426   5.727   5.854   5.909
  5.918   9.818   9.942   9.976   9.986  20.529  20.539  20.665
 20.671  20.685  20.687  20.706  20.711  20.876  20.994  21.010
 21.024  23.688  27.045  27.080  27.097  27.125  27.129  27.183
 27.189  27.194  27.195  27.211  27.238  27.262  27.265  27.277
 27.304  27.315  27.329  27.341  27.352  27.373  27.947  27.973
 27.979  36.731  36.733  36.735  36.737  36.748  36.762  36.764
 36.877  36.880  36.882  36.883  36.888  36.890  36.896  36.900
 36.901  36.901  36.904  36.904  36.907  36.908  36.909  36.914
 36.919  36.922  36.924  36.924  36.932  40.795  40.806  41.011
 41.022  41.036 215.785 215.926 215.950 215.959
 --------------------------------------------------------------
 
          Ground-State Mulliken Net Atomic Charges

     Atom                 Charge (a.u.)    Spin (a.u.)
  --------------------------------------------------------
      1 C                     1.571796      -0.053949
      2 Cl                   -0.281159       0.022002
      3 Cl                   -0.280411       0.023458
      4 Cl                    0.234637       0.910676
      5 Cl                   -0.244863       0.097812
  --------------------------------------------------------
  Sum of atomic charges =     1.000000
  Sum of spin   charges =     1.000000

 -----------------------------------------------------------------
                    Cartesian Multipole Moments
 -----------------------------------------------------------------
    Charge (ESU x 10^10)
                 4.8032
    Dipole Moment (Debye)
         X      -1.8926      Y      -2.7280      Z      -1.3418
       Tot       3.5811
    Quadrupole Moments (Debye-Ang)
        XX     -45.0497     XY       2.4011     YY     -40.5387
        XZ       1.7211     YZ       1.7023     ZZ     -46.3126
    Octapole Moments (Debye-Ang^2)
       XXX       4.5772    XXY      -2.4718    XYY     -11.9255
       YYY      -9.0589    XXZ      -8.2624    XYZ      -1.5011
       YYZ      -8.4579    XZZ      -1.7594    YZZ      -1.4007
       ZZZ      10.2566
    Hexadecapole Moments (Debye-Ang^3)
      XXXX    -298.6854   XXXY       7.2823   XXYY     -98.5621
      XYYY       3.7497   YYYY    -272.8982   XXXZ      -4.7864
      XXYZ       2.2359   XYYZ      10.0400   YYYZ       2.7307
      XXZZ    -106.8294   XYZZ       2.5844   YYZZ    -105.6453
      XZZZ       4.0689   YZZZ       4.6795   ZZZZ    -298.1271
 -----------------------------------------------------------------
 Total job time:  569.01s(wall), 567.73s(cpu) 
 Wed May 22 11:30:07 2013

        *************************************************************
        *                                                           *
        *  Thank you very much for using Q-Chem.  Have a nice day.  *
        *                                                           *
        *************************************************************


0 sent ACK to 0 
now end server 0 ... 
