Process 0 of 1 is on cl135 - thread support 1
initial socket setup ...start
initial socket setup ...done 
now start server 0 ... 

cmd = /usr/bin/ssh clhead /usr/local/qchem/bin/get_hostid 287328442 > /tmp/1602195.1.medium.q/qchem29085/lic.dat

cmd = /usr/bin/ssh clhead /usr/local/qchem/bin/get_hostid 287328442 > /tmp/1602195.1.medium.q/qchem29085/lic.dat

cmd = /usr/bin/ssh clhead /usr/local/qchem/bin/get_hostid 287328442 > /tmp/1602195.1.medium.q/qchem29085/lic.dat

cmd = /usr/bin/ssh clhead /usr/local/qchem/bin/get_hostid 287328442 > /tmp/1602195.1.medium.q/qchem29085/lic.dat

cmd = /usr/bin/ssh clhead /usr/local/qchem/bin/get_hostid 287328442 > /tmp/1602195.1.medium.q/qchem29085/lic.dat
                  Welcome to Q-Chem
     A Quantum Leap Into The Future Of Chemistry

 Y. Shao, L. Fusti-Molnar, Y. Jung, J. Kussmann, C. Ochsenfeld,
 S. T. Brown, A. T. B. Gilbert, L. V. Slipchenko,S. V. Levchenko,
 D. P. O'Neill, R. A. DiStasio Jr., R. C. Lochan, T. Wang,
 G. J. O. Beran, N. A. Besley, J. M. Herbert, C. Y. Lin,
 T. Van Voorhis, S. H. Chien, A. Sodt, R. P. Steele, 
 V. A. Rassolov, P. E. Maslen, P. P. Korambath, R. D. Adamson,
 B. Austin, J. Baker, E. F. C. Byrd, H. Dachsel, R. J. Doerksen,
 A. Dreuw, B. D. Dunietz, A. D. Dutoi, T. R. Furlani,
 S. R. Gwaltney, A. Heyden, S. Hirata, C.-P. Hsu, G. Kedziora,
 R. Z. Khaliullin, P. Klunzinger, A. M. Lee, M. S. Lee, W. Liang,
 I. Lotan, N. Nair, B. Peters, E. I. Proynov, P. A. Pieniazek, 
 Y. M. Rhee, J. Ritchie, E. Rosta, C. D. Sherrill, 
 A. C. Simmonett, J. E. Subotnik, H. L. Woodcock III,
 W. Zhang, A. T. Bell, A. K. Chakraborty, D. M. Chipman,
 F. J. Keil, A. Warshel, W. J. Hehre, H. F. Schaefer III,
 J. Kong, A. I. Krylov, P. M. W. Gill, M. Head-Gordon,
 Q-Chem, Version 3.1, Q-Chem, Inc., Pittsburgh, PA (2007).

 Additional authors for Version 3.1: 
 Z. Gan, Y. Zhao, N. E. Schultz, D. Truhlar, E. Epifanovsky and M. Oana.

 Additional authors for Version 3.2: 
 R. Baer, B. R. Brooks, D. Casanova, J.-D. Chai, C.-L. Cheng, 
 C. Cramer, D. Crittenden, A. Ghysels, G. Hawkins, E. G. Hohenstein, 
 C. Kelley, W. Kurlancheek, D. Liotard, E. Livshits, P. Manohar, 
 A. Marenich, D. Neuhauser, R. Olson, M. A. Rohrdanz, K. S. Thanthiriwatte, 
 A. J. W. Thom, V. Vanovschi, C. F. Williams, Q. Wu and Z.-Q. You. 


 Intel X86 Linux Version

 Q-chem begins on Fri Mar 21 15:28:24 2014  

 Parallel job on  1  processors
Processing $rem in /usr/local/qchem/config/preferences.

theFileMan(): MAXOPENFILES=974 MAX_SUB_FILE_NUM=16
Maximum size of a physical file is 2.0 GB, maximum size of a tmp-file is 32.0 GB


--------------------------------------------------------------
User input:
--------------------------------------------------------------

$molecule
-1,2
Li         0.00000        0.00000        0.01317
H          0.00000        0.00000        1.60790
$end

$comment
negative
$end

$xc_functional
C PBE   1.00
X wPBE  1.00
$end

$rem
SYMMETRY_DECOMPOSITION	0
exchange 		general
LRC_DFT                 true
BASIS                   g3large
omega			2000
mem_static              760
max_scf_cycles          200
scf_final_print         1
sym_ignore              true
$end

--------------------------------------------------------------
 Writing REM_CC_EA            2
 ----------------------------------------------------
       Standard Nuclear Orientation (Angstroms)
    I     Atom         X            Y            Z
 ----------------------------------------------------
    1      Li      0.000000     0.000000     0.013170
    2      H       0.000000     0.000000     1.607900
 ----------------------------------------------------
 Nuclear Repulsion Energy =     0.9954861528 hartrees
 There are        3 alpha and        2 beta electrons
 Requested basis set is G3large
 There are 16 shells and 52 basis functions

Total QAlloc Memory Limit   2000 MB
Mega-Array Size       743 MB
MEM_STATIC part       760 MB

                       Distance Matrix (Angstroms)
             Li(  1)
   H (  2)  1.594730
 
 A cutoff of  1.0D-08 yielded    136 shell pairs
 There are   1462 function pairs (  1834 Cartesian)
Evaluating contribution to one-electron hamiltonian from nuclear
 Smallest overlap matrix eigenvalue = 3.55E-03
 Multipole matrices computed through 2nd order

  Scale SEOQF with 1.000000e-02/1.000000e-02/1.000000e-02

 Standard Electronic Orientation quadrupole field applied
 Guess from superposition of atomic densities
 Warning:  Energy on first SCF cycle will be non-variational
 Long-range K will be added via erf
 Coulomb attenuation parameter = 2 bohr**(-1)
 An unrestricted Kohn-Sham SCF calculation will be
 performed using Pulay DIIS extrapolation
 Exchange:  wPBE + LR-HF      Correlation:  PBE
 Using SG-1 standard quadrature grid
 SCF converges when DIIS error is below 1.0E-05
 Requested basis set is G3large
 There are 16 shells and 52 basis functions
 A cutoff of  1.0D-08 yielded    136 shell pairs
 There are   1462 function pairs (  1834 Cartesian)
 Warning!  Inaccurate integrated density:
   Number of electrons =     5
   Numerical integral  =     4.012701451678
   Relative error      =   -19.7459709664 %
 ---------------------------------------
  Cycle       Energy         DIIS Error
 ---------------------------------------
    1      -7.7737911412      6.48E-03
    2      -8.0206103804      5.08E-03
    3      -8.0533036758      2.00E-03
 Warning!  Inaccurate integrated density:
   Number of electrons =     5
   Numerical integral  =     4.994738000145
   Relative error      =    -0.1052399971 %
    4      -8.0680115623      5.40E-04
 Warning!  Inaccurate integrated density:
   Number of electrons =     5
   Numerical integral  =     4.990974466802
   Relative error      =    -0.1805106640 %
    5      -8.0734705807      3.82E-04
 Warning!  Inaccurate integrated density:
   Number of electrons =     5
   Numerical integral  =     4.987464201682
   Relative error      =    -0.2507159664 %
    6      -8.0786265627      2.70E-04
 Warning!  Inaccurate integrated density:
   Number of electrons =     5
   Numerical integral  =     4.988557570955
   Relative error      =    -0.2288485809 %
    7      -8.0813750848      3.20E-04
 Warning!  Inaccurate integrated density:
   Number of electrons =     5
   Numerical integral  =     4.985953958346
   Relative error      =    -0.2809208331 %
    8      -8.0766632660      1.84E-04
 Warning!  Inaccurate integrated density:
   Number of electrons =     5
   Numerical integral  =     4.984450977489
   Relative error      =    -0.3109804502 %
    9      -8.0759783367      9.76E-05
 Warning!  Inaccurate integrated density:
   Number of electrons =     5
   Numerical integral  =     4.983040738529
   Relative error      =    -0.3391852294 %
   10      -8.0760251727      2.37E-05
 Warning!  Inaccurate integrated density:
   Number of electrons =     5
   Numerical integral  =     4.982852482405
   Relative error      =    -0.3429503519 %
   11      -8.0760330857      8.95E-06 Convergence criterion met
 ---------------------------------------
 One-Electron    Energy =   -12.8204365736
 Total Coulomb   Energy =     6.0462724370
 Alpha Exchange  Energy =    -0.9241689749
 Beta  Exchange  Energy =    -0.8883639386
 DFT   Exchange  Energy =    -0.3949015911
 DFT Correlation Energy =    -0.0899205973
 Nuclear Repu.   Energy =     0.9954861527
 Nuclear Attr.   Energy =   -20.8399816850
 Kinetic         Energy =     8.0195451114
 <S^2> = 0.7502
 SCF time:  CPU 6.53 s  wall 7.40 s
 Final Alpha MO Eigenvalues
            1           2           3           4           5           6
    1  -2.3449902  -0.2384410   0.0087546   0.0542561   0.0729262   0.0803414
            7           8
    1   0.0935390   0.1203358
 Final Beta MO Eigenvalues
            1           2           3           4           5           6
    1  -2.3447832  -0.2412555   0.0712866   0.0819820   0.0903615   0.0919141
            7
    1   0.1048205
 Analysis of SCF Wavefunction
 
 --------------------------------------------------------------
                    Orbital Energies (a.u.)
 --------------------------------------------------------------
 
 Alpha MOs
 -- Occupied --
 -2.345  -0.238   0.009
 -- Virtual --
  0.054   0.073   0.080   0.094   0.120   0.129   0.147   0.216
  0.241   0.242   0.243   0.333   0.368   0.369   0.373   0.375
  0.484   0.616   0.665   0.667   0.686   0.687   0.702   0.703
  0.706   0.707   0.751   0.951   1.213   1.214   1.340   1.399
  1.400   1.514   1.515   1.669   3.135   4.041   4.508   4.508
  4.646   7.376   7.376   7.659  21.023  21.052  21.617  21.622
 21.622
 
 Beta MOs
 -- Occupied --
 -2.345  -0.241
 -- Virtual --
  0.071   0.082   0.090   0.092   0.105   0.129   0.130   0.147
  0.217   0.240   0.241   0.244   0.332   0.368   0.368   0.373
  0.373   0.482   0.616   0.665   0.666   0.685   0.686   0.701
  0.701   0.705   0.706   0.749   0.950   1.212   1.213   1.339
  1.399   1.399   1.514   1.515   1.669   3.134   4.040   4.507
  4.508   4.646   7.376   7.376   7.659  21.023  21.052  21.617
 21.622  21.622
 --------------------------------------------------------------
 
          Ground-State Mulliken Net Atomic Charges

     Atom                 Charge (a.u.)    Spin (a.u.)
  --------------------------------------------------------
      1 Li                   -0.628247       1.015492
      2 H                    -0.371753      -0.015492
  --------------------------------------------------------
  Sum of atomic charges =    -1.000000
  Sum of spin   charges =     1.000000

 -----------------------------------------------------------------
                    Cartesian Multipole Moments
 -----------------------------------------------------------------
    Charge (ESU x 10^10)
                -4.8032
    Dipole Moment (Debye)
         X      -0.2046      Y      -0.2046      Z      -6.0800
       Tot       6.0869
    Quadrupole Moments (Debye-Ang)
        XX    -100.5608     XY     -47.7082     YY    -100.5565
        XZ       0.6800     YZ       0.6800     ZZ     -60.1039
    Octapole Moments (Debye-Ang^2)
       XXX      -8.3814    XXY      -2.7946    XYY      -2.7947
       YYY      -8.3811    XXZ      -7.3557    XYZ      -0.5320
       YYZ      -7.3557    XZZ      -2.7463    YZZ      -2.7462
       ZZZ     -28.7596
    Hexadecapole Moments (Debye-Ang^3)
      XXXX   -4224.9264   XXXY   -1404.3398   XXYY   -1408.2666
      XYYY   -1404.3398   YYYY   -4224.6814   XXXZ      23.1517
      XXYZ       7.7169   XYYZ       7.7173   YYYZ      23.1507
      XXZZ    -948.4747   XYZZ    -468.1156   YYZZ    -948.4338
      XZZZ      23.1836   YZZZ      23.1825   ZZZZ   -1475.6524
 -----------------------------------------------------------------
 Total job time:  7.48s(wall), 6.60s(cpu) 
 Fri Mar 21 15:28:32 2014

        *************************************************************
        *                                                           *
        *  Thank you very much for using Q-Chem.  Have a nice day.  *
        *                                                           *
        *************************************************************


0 sent ACK to 0 
now end server 0 ... 
 
**********************************************************************
Job 2 of 3 
**********************************************************************
 
Process 0 of 1 is on cl135 - thread support 1
initial socket setup ...start
initial socket setup ...done 
now start server 0 ... 

cmd = /usr/bin/ssh clhead /usr/local/qchem/bin/get_hostid 1232891946 > /tmp/1602195.1.medium.q/qchem29085/lic.dat

cmd = /usr/bin/ssh clhead /usr/local/qchem/bin/get_hostid 1232891946 > /tmp/1602195.1.medium.q/qchem29085/lic.dat

cmd = /usr/bin/ssh clhead /usr/local/qchem/bin/get_hostid 1232891946 > /tmp/1602195.1.medium.q/qchem29085/lic.dat

cmd = /usr/bin/ssh clhead /usr/local/qchem/bin/get_hostid 1232891946 > /tmp/1602195.1.medium.q/qchem29085/lic.dat

cmd = /usr/bin/ssh clhead /usr/local/qchem/bin/get_hostid 1232891946 > /tmp/1602195.1.medium.q/qchem29085/lic.dat
                  Welcome to Q-Chem
     A Quantum Leap Into The Future Of Chemistry

 Y. Shao, L. Fusti-Molnar, Y. Jung, J. Kussmann, C. Ochsenfeld,
 S. T. Brown, A. T. B. Gilbert, L. V. Slipchenko,S. V. Levchenko,
 D. P. O'Neill, R. A. DiStasio Jr., R. C. Lochan, T. Wang,
 G. J. O. Beran, N. A. Besley, J. M. Herbert, C. Y. Lin,
 T. Van Voorhis, S. H. Chien, A. Sodt, R. P. Steele, 
 V. A. Rassolov, P. E. Maslen, P. P. Korambath, R. D. Adamson,
 B. Austin, J. Baker, E. F. C. Byrd, H. Dachsel, R. J. Doerksen,
 A. Dreuw, B. D. Dunietz, A. D. Dutoi, T. R. Furlani,
 S. R. Gwaltney, A. Heyden, S. Hirata, C.-P. Hsu, G. Kedziora,
 R. Z. Khaliullin, P. Klunzinger, A. M. Lee, M. S. Lee, W. Liang,
 I. Lotan, N. Nair, B. Peters, E. I. Proynov, P. A. Pieniazek, 
 Y. M. Rhee, J. Ritchie, E. Rosta, C. D. Sherrill, 
 A. C. Simmonett, J. E. Subotnik, H. L. Woodcock III,
 W. Zhang, A. T. Bell, A. K. Chakraborty, D. M. Chipman,
 F. J. Keil, A. Warshel, W. J. Hehre, H. F. Schaefer III,
 J. Kong, A. I. Krylov, P. M. W. Gill, M. Head-Gordon,
 Q-Chem, Version 3.1, Q-Chem, Inc., Pittsburgh, PA (2007).

 Additional authors for Version 3.1: 
 Z. Gan, Y. Zhao, N. E. Schultz, D. Truhlar, E. Epifanovsky and M. Oana.

 Additional authors for Version 3.2: 
 R. Baer, B. R. Brooks, D. Casanova, J.-D. Chai, C.-L. Cheng, 
 C. Cramer, D. Crittenden, A. Ghysels, G. Hawkins, E. G. Hohenstein, 
 C. Kelley, W. Kurlancheek, D. Liotard, E. Livshits, P. Manohar, 
 A. Marenich, D. Neuhauser, R. Olson, M. A. Rohrdanz, K. S. Thanthiriwatte, 
 A. J. W. Thom, V. Vanovschi, C. F. Williams, Q. Wu and Z.-Q. You. 


 Intel X86 Linux Version

 Q-chem begins on Fri Mar 21 15:28:36 2014  

 Parallel job on  1  processors
Processing $rem in /usr/local/qchem/config/preferences.

theFileMan(): MAXOPENFILES=974 MAX_SUB_FILE_NUM=16
Maximum size of a physical file is 2.0 GB, maximum size of a tmp-file is 32.0 GB


--------------------------------------------------------------
User input:
--------------------------------------------------------------

$molecule
0,1
Li         0.00000        0.00000        0.01317
H          0.00000        0.00000        1.60790
$end

$comment
neutral
$end

$xc_functional
C PBE   1.00
X wPBE  1.00
$end


$rem
SYMMETRY_DECOMPOSITION	0
LRC_DFT                 true
exchange 		general
BASIS                   g3large
omega			2000
mem_static              760
max_scf_cycles          200
scf_final_print         1
sym_ignore              true
$end

--------------------------------------------------------------
 Writing REM_CC_EA            2
 ----------------------------------------------------
       Standard Nuclear Orientation (Angstroms)
    I     Atom         X            Y            Z
 ----------------------------------------------------
    1      Li      0.000000     0.000000     0.013170
    2      H       0.000000     0.000000     1.607900
 ----------------------------------------------------
 Nuclear Repulsion Energy =     0.9954861528 hartrees
 There are        2 alpha and        2 beta electrons
 Requested basis set is G3large
 There are 16 shells and 52 basis functions

Total QAlloc Memory Limit   2000 MB
Mega-Array Size       743 MB
MEM_STATIC part       760 MB

                       Distance Matrix (Angstroms)
             Li(  1)
   H (  2)  1.594730
 
 A cutoff of  1.0D-08 yielded    136 shell pairs
 There are   1462 function pairs (  1834 Cartesian)
Evaluating contribution to one-electron hamiltonian from nuclear
 Smallest overlap matrix eigenvalue = 3.55E-03
 Multipole matrices computed through 2nd order

  Scale SEOQF with 1.000000e-02/1.000000e-02/1.000000e-02

 Standard Electronic Orientation quadrupole field applied
 Guess from superposition of atomic densities
 Warning:  Energy on first SCF cycle will be non-variational
 Long-range K will be added via erf
 Coulomb attenuation parameter = 2 bohr**(-1)
 A restricted Kohn-Sham SCF calculation will be
 performed using Pulay DIIS extrapolation
 Exchange:  wPBE + LR-HF      Correlation:  PBE
 Using SG-1 standard quadrature grid
 SCF converges when DIIS error is below 1.0E-05
 Requested basis set is G3large
 There are 16 shells and 52 basis functions
 A cutoff of  1.0D-08 yielded    136 shell pairs
 There are   1462 function pairs (  1834 Cartesian)
 Warning!  Inaccurate integrated density:
   Number of electrons =     4
   Numerical integral  =     4.012701451678
   Relative error      =     0.3175362920 %
 ---------------------------------------
  Cycle       Energy         DIIS Error
 ---------------------------------------
    1      -7.7737911412      6.48E-03
    2      -8.0695566478      4.53E-03
    3      -8.0834991081      1.69E-03
    4      -8.0867661339      2.51E-04
    5      -8.0869350920      7.36E-05
    6      -8.0869523210      7.58E-06 Convergence criterion met
 ---------------------------------------
 One-Electron    Energy =   -12.4842644373
 Total Coulomb   Energy =     5.6574992593
 Alpha Exchange  Energy =    -0.8874468308
 Beta  Exchange  Energy =    -0.8874468308
 DFT   Exchange  Energy =    -0.3949824331
 DFT Correlation Energy =    -0.0857972011
 Nuclear Repu.   Energy =     0.9954861527
 Nuclear Attr.   Energy =   -20.4890317992
 Kinetic         Energy =     8.0047673618
 SCF time:  CPU 3.59 s  wall 4.02 s
 Final Alpha MO Eigenvalues
            1           2           3           4           5           6
    1  -2.4335929  -0.3265494  -0.0080540   0.0149534   0.0149537   0.0227551
            7
    1   0.0278288
 Analysis of SCF Wavefunction
 
 --------------------------------------------------------------
                    Orbital Energies (a.u.)
 --------------------------------------------------------------
 
 Alpha MOs
 -- Occupied --
 -2.434  -0.327
 -- Virtual --
 -0.008   0.015   0.015   0.023   0.028   0.054   0.054   0.077
  0.139   0.161   0.161   0.165   0.249   0.284   0.284   0.288
  0.288   0.399   0.530   0.579   0.579   0.600   0.600   0.614
  0.614   0.620   0.620   0.665   0.864   1.126   1.126   1.254
  1.310   1.311   1.427   1.427   1.582   3.049   3.953   4.422
  4.422   4.560   7.287   7.287   7.570  20.934  20.963  21.528
 21.533  21.533
 --------------------------------------------------------------
 
          Ground-State Mulliken Net Atomic Charges

     Atom                 Charge (a.u.)
  ----------------------------------------
      1 Li                    0.365280
      2 H                    -0.365280
  ----------------------------------------
  Sum of atomic charges =     0.000000

 -----------------------------------------------------------------
                    Cartesian Multipole Moments
 -----------------------------------------------------------------
    Charge (ESU x 10^10)
                 0.0000
    Dipole Moment (Debye)
         X       0.0000      Y       0.0000      Z      -6.0383
       Tot       6.0383
    Quadrupole Moments (Debye-Ang)
        XX      -5.0301     XY       0.0001     YY      -5.0301
        XZ       0.0000     YZ       0.0000     ZZ     -12.1417
    Octapole Moments (Debye-Ang^2)
       XXX       0.0000    XXY       0.0000    XYY       0.0000
       YYY       0.0000    XXZ      -6.1896    XYZ       0.0001
       YYZ      -6.1896    XZZ       0.0000    YZZ       0.0000
       ZZZ     -26.6062
    Hexadecapole Moments (Debye-Ang^3)
      XXXX     -10.3870   XXXY       0.0002   XXYY      -3.4623
      XYYY       0.0002   YYYY     -10.3870   XXXZ       0.0000
      XXYZ       0.0000   XYYZ       0.0000   YYYZ       0.0000
      XXZZ     -11.4572   XYZZ       0.0001   YYZZ     -11.4572
      XZZZ       0.0000   YZZZ       0.0000   ZZZZ     -67.6115
 -----------------------------------------------------------------
 Total job time:  4.11s(wall), 3.66s(cpu) 
 Fri Mar 21 15:28:40 2014

        *************************************************************
        *                                                           *
        *  Thank you very much for using Q-Chem.  Have a nice day.  *
        *                                                           *
        *************************************************************


0 sent ACK to 0 
now end server 0 ... 
 
**********************************************************************
Job 3 of 3 
**********************************************************************
 
Process 0 of 1 is on cl135 - thread support 1
initial socket setup ...start
initial socket setup ...done 
now start server 0 ... 

cmd = /usr/bin/ssh clhead /usr/local/qchem/bin/get_hostid 2023888453 > /tmp/1602195.1.medium.q/qchem29085/lic.dat

cmd = /usr/bin/ssh clhead /usr/local/qchem/bin/get_hostid 2023888453 > /tmp/1602195.1.medium.q/qchem29085/lic.dat

cmd = /usr/bin/ssh clhead /usr/local/qchem/bin/get_hostid 2023888453 > /tmp/1602195.1.medium.q/qchem29085/lic.dat

cmd = /usr/bin/ssh clhead /usr/local/qchem/bin/get_hostid 2023888453 > /tmp/1602195.1.medium.q/qchem29085/lic.dat

cmd = /usr/bin/ssh clhead /usr/local/qchem/bin/get_hostid 2023888453 > /tmp/1602195.1.medium.q/qchem29085/lic.dat
                  Welcome to Q-Chem
     A Quantum Leap Into The Future Of Chemistry

 Y. Shao, L. Fusti-Molnar, Y. Jung, J. Kussmann, C. Ochsenfeld,
 S. T. Brown, A. T. B. Gilbert, L. V. Slipchenko,S. V. Levchenko,
 D. P. O'Neill, R. A. DiStasio Jr., R. C. Lochan, T. Wang,
 G. J. O. Beran, N. A. Besley, J. M. Herbert, C. Y. Lin,
 T. Van Voorhis, S. H. Chien, A. Sodt, R. P. Steele, 
 V. A. Rassolov, P. E. Maslen, P. P. Korambath, R. D. Adamson,
 B. Austin, J. Baker, E. F. C. Byrd, H. Dachsel, R. J. Doerksen,
 A. Dreuw, B. D. Dunietz, A. D. Dutoi, T. R. Furlani,
 S. R. Gwaltney, A. Heyden, S. Hirata, C.-P. Hsu, G. Kedziora,
 R. Z. Khaliullin, P. Klunzinger, A. M. Lee, M. S. Lee, W. Liang,
 I. Lotan, N. Nair, B. Peters, E. I. Proynov, P. A. Pieniazek, 
 Y. M. Rhee, J. Ritchie, E. Rosta, C. D. Sherrill, 
 A. C. Simmonett, J. E. Subotnik, H. L. Woodcock III,
 W. Zhang, A. T. Bell, A. K. Chakraborty, D. M. Chipman,
 F. J. Keil, A. Warshel, W. J. Hehre, H. F. Schaefer III,
 J. Kong, A. I. Krylov, P. M. W. Gill, M. Head-Gordon,
 Q-Chem, Version 3.1, Q-Chem, Inc., Pittsburgh, PA (2007).

 Additional authors for Version 3.1: 
 Z. Gan, Y. Zhao, N. E. Schultz, D. Truhlar, E. Epifanovsky and M. Oana.

 Additional authors for Version 3.2: 
 R. Baer, B. R. Brooks, D. Casanova, J.-D. Chai, C.-L. Cheng, 
 C. Cramer, D. Crittenden, A. Ghysels, G. Hawkins, E. G. Hohenstein, 
 C. Kelley, W. Kurlancheek, D. Liotard, E. Livshits, P. Manohar, 
 A. Marenich, D. Neuhauser, R. Olson, M. A. Rohrdanz, K. S. Thanthiriwatte, 
 A. J. W. Thom, V. Vanovschi, C. F. Williams, Q. Wu and Z.-Q. You. 


 Intel X86 Linux Version

 Q-chem begins on Fri Mar 21 15:28:44 2014  

 Parallel job on  1  processors
Processing $rem in /usr/local/qchem/config/preferences.

theFileMan(): MAXOPENFILES=974 MAX_SUB_FILE_NUM=16
Maximum size of a physical file is 2.0 GB, maximum size of a tmp-file is 32.0 GB


--------------------------------------------------------------
User input:
--------------------------------------------------------------

$molecule
1,2
Li         0.00000        0.00000        0.01317
H          0.00000        0.00000        1.60790
$end

$comment
positive
$end

$xc_functional
C PBE   1.00
X wPBE  1.00
$end

$rem
SYMMETRY_DECOMPOSITION	0
LRC_DFT                 true
exchange 		general
BASIS                   g3large
omega			2000
mem_static              760
max_scf_cycles          200
scf_final_print         1
sym_ignore              true
$end

--------------------------------------------------------------
 Writing REM_CC_EA            2
 ----------------------------------------------------
       Standard Nuclear Orientation (Angstroms)
    I     Atom         X            Y            Z
 ----------------------------------------------------
    1      Li      0.000000     0.000000     0.013170
    2      H       0.000000     0.000000     1.607900
 ----------------------------------------------------
 Nuclear Repulsion Energy =     0.9954861528 hartrees
 There are        2 alpha and        1 beta electrons
 Requested basis set is G3large
 There are 16 shells and 52 basis functions

Total QAlloc Memory Limit   2000 MB
Mega-Array Size       743 MB
MEM_STATIC part       760 MB

                       Distance Matrix (Angstroms)
             Li(  1)
   H (  2)  1.594730
 
 A cutoff of  1.0D-08 yielded    136 shell pairs
 There are   1462 function pairs (  1834 Cartesian)
Evaluating contribution to one-electron hamiltonian from nuclear
 Smallest overlap matrix eigenvalue = 3.55E-03
 Multipole matrices computed through 2nd order

  Scale SEOQF with 1.000000e-02/1.000000e-02/1.000000e-02

 Standard Electronic Orientation quadrupole field applied
 Guess from superposition of atomic densities
 Warning:  Energy on first SCF cycle will be non-variational
 Long-range K will be added via erf
 Coulomb attenuation parameter = 2 bohr**(-1)
 An unrestricted Kohn-Sham SCF calculation will be
 performed using Pulay DIIS extrapolation
 Exchange:  wPBE + LR-HF      Correlation:  PBE
 Using SG-1 standard quadrature grid
 SCF converges when DIIS error is below 1.0E-05
 Requested basis set is G3large
 There are 16 shells and 52 basis functions
 A cutoff of  1.0D-08 yielded    136 shell pairs
 There are   1462 function pairs (  1834 Cartesian)
 Warning!  Inaccurate integrated density:
   Number of electrons =     3
   Numerical integral  =     4.012701451678
   Relative error      =    33.7567150559 %
 ---------------------------------------
  Cycle       Energy         DIIS Error
 ---------------------------------------
    1      -7.7737911412      6.48E-03
    2      -7.7796561040      2.84E-03
    3      -7.7936205542      1.23E-03
    4      -7.7966818917      1.10E-04
    5      -7.7966997919      1.15E-05
    6      -7.7967000149      8.55E-07 Convergence criterion met
 ---------------------------------------
 One-Electron    Energy =   -11.0779871399
 Total Coulomb   Energy =     4.3403391833
 Alpha Exchange  Energy =    -0.9634743123
 Beta  Exchange  Energy =    -0.6460068657
 DFT   Exchange  Energy =    -0.3929108070
 DFT Correlation Energy =    -0.0521462261
 Nuclear Repu.   Energy =     0.9954861527
 Nuclear Attr.   Energy =   -18.9076269235
 Kinetic         Energy =     7.8296397836
 <S^2> = 0.7500
 SCF time:  CPU 3.26 s  wall 3.78 s
 Final Alpha MO Eigenvalues
            1           2           3           4           5           6
    1  -2.7685547  -0.8353421  -0.1720210  -0.1339826  -0.1339816  -0.0863152
            7
    1  -0.0680982
 Final Beta MO Eigenvalues
            1           2           3           4           5           6
    1  -2.7630625  -0.1975423  -0.1324594  -0.1246472  -0.1246259  -0.0753493
 Analysis of SCF Wavefunction
 
 --------------------------------------------------------------
                    Orbital Energies (a.u.)
 --------------------------------------------------------------
 
 Alpha MOs
 -- Occupied --
 -2.769  -0.835
 -- Virtual --
 -0.172  -0.134  -0.134  -0.086  -0.068  -0.058  -0.058  -0.049
 -0.026  -0.003  -0.003  -0.003   0.042   0.059   0.059   0.082
  0.082   0.199   0.252   0.324   0.324   0.360   0.360   0.363
  0.389   0.389   0.397   0.397   0.596   0.781   0.781   0.907
  1.035   1.035   1.110   1.110   1.270   2.554   3.580   3.920
  3.920   4.096   6.956   6.956   7.236  20.600  20.626  21.193
 21.196  21.196
 
 Beta MOs
 -- Occupied --
 -2.763
 -- Virtual --
 -0.198  -0.132  -0.125  -0.125  -0.075  -0.059  -0.056  -0.056
 -0.032  -0.010  -0.002   0.001   0.001   0.084   0.085   0.085
  0.085   0.122   0.207   0.327   0.327   0.327   0.397   0.397
  0.398   0.398   0.398   0.398   0.495   0.708   0.917   0.919
  1.036   1.037   1.215   1.237   1.240   1.363   2.895   3.694
  4.298   4.299   4.587   6.958   6.958   7.241  20.602  20.628
 21.193  21.196  21.196
 --------------------------------------------------------------
 
          Ground-State Mulliken Net Atomic Charges

     Atom                 Charge (a.u.)    Spin (a.u.)
  --------------------------------------------------------
      1 Li                    0.840673       0.158966
      2 H                     0.159327       0.841034
  --------------------------------------------------------
  Sum of atomic charges =     1.000000
  Sum of spin   charges =     1.000000

 -----------------------------------------------------------------
                    Cartesian Multipole Moments
 -----------------------------------------------------------------
    Charge (ESU x 10^10)
                 4.8032
    Dipole Moment (Debye)
         X       0.0000      Y       0.0000      Z       0.5915
       Tot       0.5915
    Quadrupole Moments (Debye-Ang)
        XX      -1.5706     XY       0.0000     YY      -1.5706
        XZ       0.0000     YZ       0.0000     ZZ       0.0727
    Octapole Moments (Debye-Ang^2)
       XXX       0.0000    XXY       0.0000    XYY       0.0000
       YYY       0.0000    XXZ      -1.7213    XYZ       0.0000
       YYZ      -1.7213    XZZ       0.0000    YZZ       0.0000
       ZZZ      -1.3438
    Hexadecapole Moments (Debye-Ang^3)
      XXXX      -1.4352   XXXY       0.0000   XXYY      -0.4784
      XYYY       0.0000   YYYY      -1.4352   XXXZ       0.0000
      XXYZ       0.0000   XYYZ       0.0000   YYYZ       0.0000
      XXZZ      -2.9675   XYZZ       0.0000   YYZZ      -2.9675
      XZZZ       0.0000   YZZZ       0.0000   ZZZZ      -8.6105
 -----------------------------------------------------------------
 Total job time:  3.86s(wall), 3.32s(cpu) 
 Fri Mar 21 15:28:48 2014

        *************************************************************
        *                                                           *
        *  Thank you very much for using Q-Chem.  Have a nice day.  *
        *                                                           *
        *************************************************************


0 sent ACK to 0 
now end server 0 ... 
