Process 0 of 1 is on cl007.stfx.acenet.ca - thread support 1
initial socket setup ...start
initial socket setup ...done 
now start server 0 ... 

cmd = /usr/bin/ssh clhead /usr/local/qchem/bin/get_hostid 1053503938 > /scratch/tmp/6063628.1.short.q/qchem20816/lic.dat
                  Welcome to Q-Chem
     A Quantum Leap Into The Future Of Chemistry

 Y. Shao, L. Fusti-Molnar, Y. Jung, J. Kussmann, C. Ochsenfeld,
 S. T. Brown, A. T. B. Gilbert, L. V. Slipchenko,S. V. Levchenko,
 D. P. O'Neill, R. A. DiStasio Jr., R. C. Lochan, T. Wang,
 G. J. O. Beran, N. A. Besley, J. M. Herbert, C. Y. Lin,
 T. Van Voorhis, S. H. Chien, A. Sodt, R. P. Steele, 
 V. A. Rassolov, P. E. Maslen, P. P. Korambath, R. D. Adamson,
 B. Austin, J. Baker, E. F. C. Byrd, H. Dachsel, R. J. Doerksen,
 A. Dreuw, B. D. Dunietz, A. D. Dutoi, T. R. Furlani,
 S. R. Gwaltney, A. Heyden, S. Hirata, C.-P. Hsu, G. Kedziora,
 R. Z. Khaliullin, P. Klunzinger, A. M. Lee, M. S. Lee, W. Liang,
 I. Lotan, N. Nair, B. Peters, E. I. Proynov, P. A. Pieniazek, 
 Y. M. Rhee, J. Ritchie, E. Rosta, C. D. Sherrill, 
 A. C. Simmonett, J. E. Subotnik, H. L. Woodcock III,
 W. Zhang, A. T. Bell, A. K. Chakraborty, D. M. Chipman,
 F. J. Keil, A. Warshel, W. J. Hehre, H. F. Schaefer III,
 J. Kong, A. I. Krylov, P. M. W. Gill, M. Head-Gordon,
 Q-Chem, Version 3.1, Q-Chem, Inc., Pittsburgh, PA (2007).

 Additional authors for Version 3.1: 
 Z. Gan, Y. Zhao, N. E. Schultz, D. Truhlar, E. Epifanovsky and M. Oana.

 Additional authors for Version 3.2: 
 R. Baer, B. R. Brooks, D. Casanova, J.-D. Chai, C.-L. Cheng, 
 C. Cramer, D. Crittenden, A. Ghysels, G. Hawkins, E. G. Hohenstein, 
 C. Kelley, W. Kurlancheek, D. Liotard, E. Livshits, P. Manohar, 
 A. Marenich, D. Neuhauser, R. Olson, M. A. Rohrdanz, K. S. Thanthiriwatte, 
 A. J. W. Thom, V. Vanovschi, C. F. Williams, Q. Wu and Z.-Q. You. 


 Intel X86 Linux Version

 Q-chem begins on Sun Jul  7 08:38:50 2013  

 Parallel job on  1  processors
Processing $rem in /usr/local/qchem/config/preferences.

theFileMan(): MAXOPENFILES=974 MAX_SUB_FILE_NUM=16
Maximum size of a physical file is 2.0 GB, maximum size of a tmp-file is 32.0 GB


--------------------------------------------------------------
User input:
--------------------------------------------------------------

$molecule
-1,2
C         -0.00003        0.00000        0.00511
H         -0.00008        0.00000        1.10256
C          1.44877        0.00000       -0.46691
H          1.49564        0.00000       -1.56124
H          1.98463        0.88451       -0.11125
H          1.98463       -0.88451       -0.11125
C         -0.72447       -1.25474       -0.46680
H         -0.74778       -1.29553       -1.56115
H         -0.22608       -2.16083       -0.11114
H         -1.75845       -1.27686       -0.11130
C         -0.72447        1.25474       -0.46680
H         -0.74778        1.29553       -1.56115
H         -1.75845        1.27686       -0.11130
H         -0.22608        2.16083       -0.11114
$end

$comment
negative
$end

$xc_functional
C PBE   1.00
X wPBE  1.00
$end

$rem
SYMMETRY_DECOMPOSITION	0
exchange 		general
LRC_DFT                 true
BASIS                   g3large
omega			100
mem_static              760
max_scf_cycles          200
scf_final_print         1
sym_ignore              true
$end

--------------------------------------------------------------
 Writing REM_CC_EA           14
 ----------------------------------------------------
       Standard Nuclear Orientation (Angstroms)
    I     Atom         X            Y            Z
 ----------------------------------------------------
    1      C      -0.000030     0.000000     0.005110
    2      H      -0.000080     0.000000     1.102560
    3      C       1.448770     0.000000    -0.466910
    4      H       1.495640     0.000000    -1.561240
    5      H       1.984630     0.884510    -0.111250
    6      H       1.984630    -0.884510    -0.111250
    7      C      -0.724470    -1.254740    -0.466800
    8      H      -0.747780    -1.295530    -1.561150
    9      H      -0.226080    -2.160830    -0.111140
   10      H      -1.758450    -1.276860    -0.111300
   11      C      -0.724470     1.254740    -0.466800
   12      H      -0.747780     1.295530    -1.561150
   13      H      -1.758450     1.276860    -0.111300
   14      H      -0.226080     2.160830    -0.111140
 ----------------------------------------------------
 Nuclear Repulsion Energy =   134.9570436455 hartrees
 There are       18 alpha and       17 beta electrons
 Requested basis set is G3large
 There are 100 shells and 268 basis functions

Total QAlloc Memory Limit   2000 MB
Mega-Array Size       743 MB
MEM_STATIC part       760 MB

                       Distance Matrix (Angstroms)
             C (  1)   H (  2)   C (  3)   H (  4)   H (  5)   H (  6)
   H (  2)  1.097450
   C (  3)  1.523753  2.135978
   H (  4)  2.165752  3.054997  1.095333
   H (  5)  2.175953  2.488929  1.093617  1.767467
   H (  6)  2.175953  2.488929  1.093617  1.767467  1.769020
   C (  7)  1.523773  2.135885  2.509451  2.775078  3.470163  2.757301
   H (  8)  2.165802  3.054964  2.774994  2.590624  3.784290  3.120451
   H (  9)  2.175730  2.488640  2.756970  3.120304  3.763155  2.552691
   H ( 10)  2.176227  2.489115  3.470316  3.784415  4.322287  3.763587
   C ( 11)  1.523773  2.135885  2.509451  2.775078  2.757301  3.470163
   H ( 12)  2.165802  3.054964  2.774994  2.590624  3.120451  3.784290
   H ( 13)  2.176227  2.489115  3.470316  3.784415  3.763587  4.322287
   H ( 14)  2.175730  2.488640  2.756970  3.120304  2.552691  3.763155
             C (  7)   H (  8)   H (  9)   H ( 10)   C ( 11)   H ( 12)
   H (  8)  1.095358
   H (  9)  1.093566  1.767327
   H ( 10)  1.093611  1.767447  1.769056
   C ( 11)  2.509480  2.775252  3.470015  2.757625
   H ( 12)  2.775252  2.591060  3.784326  3.121011  1.095358
   H ( 13)  2.757625  3.121011  3.763757  2.553720  1.093611  1.767447
   H ( 14)  3.470015  3.784326  4.321660  3.763757  1.093566  1.767327
             H ( 13)
   H ( 14)  1.769056
 
 A cutoff of  1.0D-08 yielded   4705 shell pairs
 There are  33835 function pairs ( 40339 Cartesian)
Evaluating contribution to one-electron hamiltonian from nuclear
 Smallest overlap matrix eigenvalue = 3.17E-05

 Q-Chem warning in module mkSTV.C, line 194:

 Overlap eigenvalue is smaller than square root of threshold

 Multipole matrices computed through 2nd order

  Scale SEOQF with 1.000000e-01/1.000000e-01/1.000000e-01

 Standard Electronic Orientation quadrupole field applied
 Nucleus-field energy     =     0.0000000026 hartrees
 Guess from superposition of atomic densities
 Warning:  Energy on first SCF cycle will be non-variational
 Long-range K will be added via erf
 Coulomb attenuation parameter = 0.1 bohr**(-1)
 An unrestricted Kohn-Sham SCF calculation will be
 performed using Pulay DIIS extrapolation
 Exchange:  wPBE + LR-HF      Correlation:  PBE
 Using SG-1 standard quadrature grid
 SCF converges when DIIS error is below 1.0E-05
 Requested basis set is G3large
 There are 100 shells and 268 basis functions
 A cutoff of  1.0D-08 yielded   4705 shell pairs
 There are  33835 function pairs ( 40339 Cartesian)
 Warning!  Inaccurate integrated density:
   Number of electrons =    35
   Numerical integral  =    34.000118798019
   Relative error      =    -2.8568034342 %
 ---------------------------------------
  Cycle       Energy         DIIS Error
 ---------------------------------------
    1    -158.8087568470      2.64E-02
    2    -158.0156331913      4.56E-03
    3    -157.9520869188      5.57E-03
    4    -158.2543748367      4.54E-04
    5    -158.2573632585      2.48E-04
    6    -158.2584968907      6.74E-05
    7    -158.2588354306      2.52E-05
    8    -158.2589511118      1.13E-05
    9    -158.2589764225      5.11E-06 Convergence criterion met
 ---------------------------------------
 One-Electron    Energy =  -482.7752441124
 Total Coulomb   Energy =   214.8935667352
 Alpha Exchange  Energy =    -0.9877309587
 Beta  Exchange  Energy =    -0.9473917188
 DFT   Exchange  Energy =   -22.3081037788
 DFT Correlation Energy =    -1.0911162370
 Nuclear Repu.   Energy =   134.9570436481
 Nuclear Attr.   Energy =  -640.4805825604
 Kinetic         Energy =   157.7053384480
 <S^2> = 0.7501
 SCF time:  CPU 374.03 s  wall 374.95 s
 Final Alpha MO Eigenvalues
            1           2           3           4           5           6
    1  -9.8087326  -9.7909660  -9.7906862  -9.7902748  -0.6612753  -0.5453906
            7           8           9          10          11          12
    1  -0.5451418  -0.4307645  -0.3451235  -0.3140249  -0.3138981  -0.2665750
           13          14          15          16          17          18
    1  -0.2663520  -0.2451340  -0.2153128  -0.2152175  -0.2073292   0.0282708
           19          20          21          22          23
    1   0.1174624   0.1179377   0.1218872   0.1460658   0.1461337
 Final Beta MO Eigenvalues
            1           2           3           4           5           6
    1  -9.8085646  -9.7907090  -9.7904258  -9.7900098  -0.6609090  -0.5447769
            7           8           9          10          11          12
    1  -0.5445188  -0.4298067  -0.3442253  -0.3133415  -0.3132111  -0.2659230
           13          14          15          16          17          18
    1  -0.2656938  -0.2443364  -0.2145436  -0.2144427  -0.2063903   0.1133201
           19          20          21          22
    1   0.1317312   0.1317935   0.1340495   0.1546770
 Analysis of SCF Wavefunction
 
 --------------------------------------------------------------
                    Orbital Energies (a.u.)
 --------------------------------------------------------------
 
 Alpha MOs
 -- Occupied --
 -9.809  -9.791  -9.791  -9.790  -0.661  -0.545  -0.545  -0.431
 -0.345  -0.314  -0.314  -0.267  -0.266  -0.245  -0.215  -0.215
 -0.207   0.028
 -- Virtual --
  0.117   0.118   0.122   0.146   0.146   0.153   0.164   0.164
  0.180   0.205   0.235   0.235   0.243   0.244   0.244   0.251
  0.267   0.267   0.268   0.280   0.280   0.295   0.296   0.296
  0.310   0.335   0.335   0.347   0.355   0.355   0.376   0.376
  0.411   0.411   0.435   0.435   0.444   0.518   0.541   0.541
  0.605   0.608   0.608   0.629   0.632   0.632   0.676   0.697
  0.699   0.699   0.706   0.707   0.707   0.710   0.735   0.735
  0.769   0.769   0.781   0.812   0.813   0.828   0.847   0.885
  0.885   0.949   0.984   0.984   1.011   1.036   1.037   1.089
  1.108   1.145   1.145   1.195   1.195   1.232   1.260   1.271
  1.271   1.282   1.319   1.319   1.371   1.400   1.400   1.409
  1.409   1.446   1.464   1.464   1.464   1.465   1.465   1.498
  1.521   1.521   1.583   1.590   1.590   1.605   1.668   1.696
  1.696   1.712   1.720   1.731   1.732   1.762   1.763   1.833
  1.837   1.837   2.502   2.502   2.621   2.652   2.652   2.663
  2.743   2.808   2.808   2.833   2.833   2.858   2.907   2.948
  2.948   3.017   3.035   3.035   3.042   3.042   3.071   3.133
  3.133   3.144   3.228   3.228   3.267   3.359   3.365   3.373
  3.373   3.428   3.429   3.456   3.461   3.502   3.502   3.561
  3.569   3.569   3.651   3.654   3.654   3.683   3.684   3.717
  3.796   3.832   3.832   3.868   3.868   3.933   3.933   4.002
  4.043   4.043   4.060   4.075   4.100   4.100   4.137   4.166
  4.166   4.291   4.302   4.302   4.302   4.335   4.358   4.358
  4.376   4.376   4.393   4.489   4.499   4.499   4.588   4.616
  4.616   4.716   4.717   4.732   4.732   4.733   4.798   4.871
  4.871   4.888   4.987   4.987   5.417   5.499   5.500   5.687
  5.774   5.774   5.800   5.805   5.812   5.812  24.073  24.233
 24.234  24.351  27.619  27.619  27.920  28.099  28.100  28.113
 28.147  28.170  28.171  28.385  28.483  28.483  40.917  40.948
 40.957  40.960  40.973  40.985  40.994  40.996  41.185  41.188
 41.189  41.194  41.195  41.205  41.222  41.223  41.247  41.281
 41.286  41.324
 
 Beta MOs
 -- Occupied --
 -9.809  -9.791  -9.790  -9.790  -0.661  -0.545  -0.545  -0.430
 -0.344  -0.313  -0.313  -0.266  -0.266  -0.244  -0.215  -0.214
 -0.206
 -- Virtual --
  0.113   0.132   0.132   0.134   0.155   0.155   0.161   0.169
  0.169   0.190   0.207   0.233   0.233   0.242   0.242   0.247
  0.254   0.268   0.268   0.269   0.282   0.282   0.295   0.295
  0.298   0.309   0.338   0.338   0.349   0.358   0.358   0.378
  0.379   0.412   0.412   0.435   0.435   0.443   0.518   0.542
  0.542   0.606   0.609   0.609   0.630   0.633   0.634   0.676
  0.698   0.699   0.699   0.706   0.707   0.708   0.711   0.736
  0.736   0.770   0.771   0.781   0.814   0.814   0.829   0.847
  0.887   0.887   0.951   0.985   0.985   1.012   1.039   1.039
  1.092   1.109   1.146   1.146   1.197   1.197   1.233   1.262
  1.273   1.273   1.283   1.320   1.320   1.373   1.401   1.401
  1.410   1.410   1.447   1.465   1.465   1.466   1.467   1.467
  1.500   1.523   1.523   1.586   1.592   1.592   1.607   1.669
  1.697   1.698   1.714   1.723   1.733   1.733   1.765   1.765
  1.835   1.838   1.838   2.502   2.503   2.622   2.652   2.652
  2.664   2.743   2.809   2.809   2.834   2.834   2.859   2.907
  2.949   2.949   3.017   3.035   3.035   3.043   3.043   3.072
  3.134   3.134   3.145   3.229   3.229   3.268   3.360   3.366
  3.374   3.374   3.429   3.429   3.457   3.462   3.503   3.503
  3.562   3.569   3.569   3.652   3.654   3.655   3.684   3.684
  3.718   3.797   3.833   3.833   3.869   3.869   3.934   3.934
  4.003   4.044   4.044   4.060   4.075   4.100   4.101   4.137
  4.166   4.166   4.292   4.303   4.303   4.303   4.336   4.359
  4.359   4.376   4.376   4.393   4.490   4.500   4.500   4.588
  4.617   4.617   4.717   4.718   4.733   4.733   4.734   4.798
  4.871   4.871   4.889   4.988   4.988   5.418   5.500   5.500
  5.688   5.774   5.775   5.801   5.806   5.813   5.813  24.073
 24.234  24.234  24.352  27.619  27.620  27.920  28.100  28.100
 28.114  28.147  28.171  28.171  28.385  28.483  28.483  40.917
 40.948  40.957  40.960  40.973  40.985  40.994  40.996  41.185
 41.188  41.189  41.195  41.196  41.206  41.222  41.223  41.248
 41.281  41.286  41.324
 --------------------------------------------------------------
 
          Ground-State Mulliken Net Atomic Charges

     Atom                 Charge (a.u.)    Spin (a.u.)
  --------------------------------------------------------
      1 C                    -3.310669       3.663790
      2 H                    -0.448635       0.546731
      3 C                     2.095512      -2.551340
      4 H                    -0.177285       0.269430
      5 H                    -0.483177       0.589675
      6 H                    -0.512367       0.619369
      7 C                     2.049113      -2.505414
      8 H                    -0.167249       0.259256
      9 H                    -0.493029       0.599692
     10 H                    -0.484967       0.591612
     11 C                     2.146180      -2.602405
     12 H                    -0.188299       0.280413
     13 H                    -0.523183       0.630425
     14 H                    -0.501947       0.608767
  --------------------------------------------------------
  Sum of atomic charges =    -1.000000
  Sum of spin   charges =     1.000000

 -----------------------------------------------------------------
                    Cartesian Multipole Moments
 -----------------------------------------------------------------
    Charge (ESU x 10^10)
                -4.8032
    Dipole Moment (Debye)
         X       0.0401      Y      -0.0956      Z      -0.2838
       Tot       0.3021
    Quadrupole Moments (Debye-Ang)
        XX     -65.0677     XY       0.4425     YY     -64.9277
        XZ       0.0181     YZ       0.0689     ZZ     -54.9995
    Octapole Moments (Debye-Ang^2)
       XXX       1.4595    XXY      -0.5570    XYY      -0.5837
       YYY      -1.6697    XXZ      10.5420    XYZ       0.0088
       YYZ      10.5831    XZZ       0.1689    YZZ      -0.5804
       ZZZ      37.8773
    Hexadecapole Moments (Debye-Ang^3)
      XXXX    -818.5070   XXXY       6.3272   XXYY    -272.2513
      XYYY       5.4085   YYYY    -815.0564   XXXZ       2.4250
      XXYZ       0.3260   XYYZ      -2.2087   YYYZ       0.9814
      XXZZ    -189.9932   XYZZ       1.4243   YYZZ    -189.6281
      XZZZ       0.0750   YZZZ       1.0701   ZZZZ    -432.4851
 -----------------------------------------------------------------
 Total job time:  375.39s(wall), 374.45s(cpu) 
 Sun Jul  7 08:45:05 2013

        *************************************************************
        *                                                           *
        *  Thank you very much for using Q-Chem.  Have a nice day.  *
        *                                                           *
        *************************************************************


0 sent ACK to 0 
now end server 0 ... 
 
**********************************************************************
Job 2 of 3 
**********************************************************************
 
Process 0 of 1 is on cl007.stfx.acenet.ca - thread support 1
initial socket setup ...start
initial socket setup ...done 
now start server 0 ... 

cmd = /usr/bin/ssh clhead /usr/local/qchem/bin/get_hostid 1754268750 > /scratch/tmp/6063628.1.short.q/qchem20816/lic.dat
                  Welcome to Q-Chem
     A Quantum Leap Into The Future Of Chemistry

 Y. Shao, L. Fusti-Molnar, Y. Jung, J. Kussmann, C. Ochsenfeld,
 S. T. Brown, A. T. B. Gilbert, L. V. Slipchenko,S. V. Levchenko,
 D. P. O'Neill, R. A. DiStasio Jr., R. C. Lochan, T. Wang,
 G. J. O. Beran, N. A. Besley, J. M. Herbert, C. Y. Lin,
 T. Van Voorhis, S. H. Chien, A. Sodt, R. P. Steele, 
 V. A. Rassolov, P. E. Maslen, P. P. Korambath, R. D. Adamson,
 B. Austin, J. Baker, E. F. C. Byrd, H. Dachsel, R. J. Doerksen,
 A. Dreuw, B. D. Dunietz, A. D. Dutoi, T. R. Furlani,
 S. R. Gwaltney, A. Heyden, S. Hirata, C.-P. Hsu, G. Kedziora,
 R. Z. Khaliullin, P. Klunzinger, A. M. Lee, M. S. Lee, W. Liang,
 I. Lotan, N. Nair, B. Peters, E. I. Proynov, P. A. Pieniazek, 
 Y. M. Rhee, J. Ritchie, E. Rosta, C. D. Sherrill, 
 A. C. Simmonett, J. E. Subotnik, H. L. Woodcock III,
 W. Zhang, A. T. Bell, A. K. Chakraborty, D. M. Chipman,
 F. J. Keil, A. Warshel, W. J. Hehre, H. F. Schaefer III,
 J. Kong, A. I. Krylov, P. M. W. Gill, M. Head-Gordon,
 Q-Chem, Version 3.1, Q-Chem, Inc., Pittsburgh, PA (2007).

 Additional authors for Version 3.1: 
 Z. Gan, Y. Zhao, N. E. Schultz, D. Truhlar, E. Epifanovsky and M. Oana.

 Additional authors for Version 3.2: 
 R. Baer, B. R. Brooks, D. Casanova, J.-D. Chai, C.-L. Cheng, 
 C. Cramer, D. Crittenden, A. Ghysels, G. Hawkins, E. G. Hohenstein, 
 C. Kelley, W. Kurlancheek, D. Liotard, E. Livshits, P. Manohar, 
 A. Marenich, D. Neuhauser, R. Olson, M. A. Rohrdanz, K. S. Thanthiriwatte, 
 A. J. W. Thom, V. Vanovschi, C. F. Williams, Q. Wu and Z.-Q. You. 


 Intel X86 Linux Version

 Q-chem begins on Sun Jul  7 08:45:08 2013  

 Parallel job on  1  processors
Processing $rem in /usr/local/qchem/config/preferences.

theFileMan(): MAXOPENFILES=974 MAX_SUB_FILE_NUM=16
Maximum size of a physical file is 2.0 GB, maximum size of a tmp-file is 32.0 GB


--------------------------------------------------------------
User input:
--------------------------------------------------------------

$molecule
0,1
C         -0.00003        0.00000        0.00511
H         -0.00008        0.00000        1.10256
C          1.44877        0.00000       -0.46691
H          1.49564        0.00000       -1.56124
H          1.98463        0.88451       -0.11125
H          1.98463       -0.88451       -0.11125
C         -0.72447       -1.25474       -0.46680
H         -0.74778       -1.29553       -1.56115
H         -0.22608       -2.16083       -0.11114
H         -1.75845       -1.27686       -0.11130
C         -0.72447        1.25474       -0.46680
H         -0.74778        1.29553       -1.56115
H         -1.75845        1.27686       -0.11130
H         -0.22608        2.16083       -0.11114
$end

$comment
neutral
$end

$xc_functional
C PBE   1.00
X wPBE  1.00
$end


$rem
SYMMETRY_DECOMPOSITION	0
LRC_DFT                 true
exchange 		general
BASIS                   g3large
omega			100
mem_static              760
max_scf_cycles          200
scf_final_print         1
sym_ignore              true
$end

--------------------------------------------------------------
 Writing REM_CC_EA           14
 ----------------------------------------------------
       Standard Nuclear Orientation (Angstroms)
    I     Atom         X            Y            Z
 ----------------------------------------------------
    1      C      -0.000030     0.000000     0.005110
    2      H      -0.000080     0.000000     1.102560
    3      C       1.448770     0.000000    -0.466910
    4      H       1.495640     0.000000    -1.561240
    5      H       1.984630     0.884510    -0.111250
    6      H       1.984630    -0.884510    -0.111250
    7      C      -0.724470    -1.254740    -0.466800
    8      H      -0.747780    -1.295530    -1.561150
    9      H      -0.226080    -2.160830    -0.111140
   10      H      -1.758450    -1.276860    -0.111300
   11      C      -0.724470     1.254740    -0.466800
   12      H      -0.747780     1.295530    -1.561150
   13      H      -1.758450     1.276860    -0.111300
   14      H      -0.226080     2.160830    -0.111140
 ----------------------------------------------------
 Nuclear Repulsion Energy =   134.9570436455 hartrees
 There are       17 alpha and       17 beta electrons
 Requested basis set is G3large
 There are 100 shells and 268 basis functions

Total QAlloc Memory Limit   2000 MB
Mega-Array Size       743 MB
MEM_STATIC part       760 MB

                       Distance Matrix (Angstroms)
             C (  1)   H (  2)   C (  3)   H (  4)   H (  5)   H (  6)
   H (  2)  1.097450
   C (  3)  1.523753  2.135978
   H (  4)  2.165752  3.054997  1.095333
   H (  5)  2.175953  2.488929  1.093617  1.767467
   H (  6)  2.175953  2.488929  1.093617  1.767467  1.769020
   C (  7)  1.523773  2.135885  2.509451  2.775078  3.470163  2.757301
   H (  8)  2.165802  3.054964  2.774994  2.590624  3.784290  3.120451
   H (  9)  2.175730  2.488640  2.756970  3.120304  3.763155  2.552691
   H ( 10)  2.176227  2.489115  3.470316  3.784415  4.322287  3.763587
   C ( 11)  1.523773  2.135885  2.509451  2.775078  2.757301  3.470163
   H ( 12)  2.165802  3.054964  2.774994  2.590624  3.120451  3.784290
   H ( 13)  2.176227  2.489115  3.470316  3.784415  3.763587  4.322287
   H ( 14)  2.175730  2.488640  2.756970  3.120304  2.552691  3.763155
             C (  7)   H (  8)   H (  9)   H ( 10)   C ( 11)   H ( 12)
   H (  8)  1.095358
   H (  9)  1.093566  1.767327
   H ( 10)  1.093611  1.767447  1.769056
   C ( 11)  2.509480  2.775252  3.470015  2.757625
   H ( 12)  2.775252  2.591060  3.784326  3.121011  1.095358
   H ( 13)  2.757625  3.121011  3.763757  2.553720  1.093611  1.767447
   H ( 14)  3.470015  3.784326  4.321660  3.763757  1.093566  1.767327
             H ( 13)
   H ( 14)  1.769056
 
 A cutoff of  1.0D-08 yielded   4705 shell pairs
 There are  33835 function pairs ( 40339 Cartesian)
Evaluating contribution to one-electron hamiltonian from nuclear
 Smallest overlap matrix eigenvalue = 3.17E-05

 Q-Chem warning in module mkSTV.C, line 194:

 Overlap eigenvalue is smaller than square root of threshold

 Multipole matrices computed through 2nd order

  Scale SEOQF with 1.000000e-01/1.000000e-01/1.000000e-01

 Standard Electronic Orientation quadrupole field applied
 Nucleus-field energy     =     0.0000000026 hartrees
 Guess from superposition of atomic densities
 Warning:  Energy on first SCF cycle will be non-variational
 Long-range K will be added via erf
 Coulomb attenuation parameter = 0.1 bohr**(-1)
 A restricted Kohn-Sham SCF calculation will be
 performed using Pulay DIIS extrapolation
 Exchange:  wPBE + LR-HF      Correlation:  PBE
 Using SG-1 standard quadrature grid
 SCF converges when DIIS error is below 1.0E-05
 Requested basis set is G3large
 There are 100 shells and 268 basis functions
 A cutoff of  1.0D-08 yielded   4705 shell pairs
 There are  33835 function pairs ( 40339 Cartesian)
 ---------------------------------------
  Cycle       Energy         DIIS Error
 ---------------------------------------
    1    -158.8087568470      2.64E-02
    2    -158.1236457026      4.12E-03
    3    -158.0917643674      4.54E-03
    4    -158.2820685118      3.71E-04
    5    -158.2830765699      1.66E-04
    6    -158.2832659540      3.46E-05
    7    -158.2832783007      6.05E-06 Convergence criterion met
 ---------------------------------------
 One-Electron    Energy =  -478.4816033006
 Total Coulomb   Energy =   210.4973961659
 Alpha Exchange  Energy =    -0.9474981687
 Beta  Exchange  Energy =    -0.9474981687
 DFT   Exchange  Energy =   -22.2769341864
 DFT Correlation Energy =    -1.0841842902
 Nuclear Repu.   Energy =   134.9570436481
 Nuclear Attr.   Energy =  -636.1172960012
 Kinetic         Energy =   157.6356927006
 SCF time:  CPU 218.84 s  wall 219.59 s
 Final Alpha MO Eigenvalues
            1           2           3           4           5           6
    1  -9.9372162  -9.9183417  -9.9183159  -9.9182663  -0.7887172  -0.6720288
            7           8           9          10          11          12
    1  -0.6720113  -0.5576996  -0.4720905  -0.4407663  -0.4407360  -0.3925543
           13          14          15          16          17          18
    1  -0.3925420  -0.3717842  -0.3418478  -0.3418006  -0.3341164   0.0200896
           19          20          21          22
    1   0.0425392   0.0432791   0.0432823   0.0670345
 Analysis of SCF Wavefunction
 
 --------------------------------------------------------------
                    Orbital Energies (a.u.)
 --------------------------------------------------------------
 
 Alpha MOs
 -- Occupied --
 -9.937  -9.918  -9.918  -9.918  -0.789  -0.672  -0.672  -0.558
 -0.472  -0.441  -0.441  -0.393  -0.393  -0.372  -0.342  -0.342
 -0.334
 -- Virtual --
  0.020   0.043   0.043   0.043   0.067   0.067   0.070   0.083
  0.083   0.105   0.106   0.131   0.131   0.143   0.143   0.147
  0.154   0.162   0.165   0.165   0.177   0.177   0.189   0.192
  0.193   0.210   0.222   0.222   0.241   0.249   0.249   0.259
  0.263   0.294   0.294   0.328   0.328   0.337   0.408   0.427
  0.427   0.491   0.493   0.494   0.513   0.515   0.515   0.558
  0.578   0.579   0.579   0.587   0.589   0.589   0.590   0.615
  0.615   0.646   0.646   0.660   0.697   0.697   0.712   0.724
  0.761   0.761   0.824   0.859   0.859   0.887   0.912   0.912
  0.965   0.984   1.021   1.021   1.071   1.071   1.108   1.138
  1.148   1.148   1.158   1.195   1.195   1.247   1.276   1.276
  1.285   1.285   1.325   1.340   1.340   1.342   1.343   1.343
  1.376   1.398   1.398   1.460   1.468   1.468   1.483   1.544
  1.574   1.574   1.587   1.598   1.608   1.608   1.640   1.640
  1.710   1.712   1.712   2.376   2.377   2.495   2.526   2.526
  2.538   2.617   2.683   2.683   2.706   2.706   2.731   2.780
  2.822   2.822   2.889   2.908   2.908   2.916   2.916   2.945
  3.007   3.007   3.018   3.102   3.102   3.141   3.233   3.238
  3.247   3.247   3.303   3.303   3.330   3.335   3.376   3.376
  3.434   3.442   3.442   3.525   3.528   3.528   3.557   3.557
  3.591   3.670   3.706   3.706   3.742   3.742   3.807   3.807
  3.875   3.916   3.916   3.933   3.948   3.973   3.973   4.010
  4.039   4.039   4.164   4.175   4.175   4.176   4.209   4.232
  4.232   4.249   4.249   4.266   4.363   4.373   4.373   4.461
  4.490   4.490   4.590   4.590   4.605   4.606   4.606   4.671
  4.743   4.743   4.761   4.860   4.861   5.290   5.373   5.373
  5.559   5.648   5.648   5.673   5.679   5.685   5.685  23.945
 24.106  24.106  24.223  27.491  27.491  27.792  27.972  27.972
 27.986  28.020  28.043  28.043  28.257  28.355  28.355  40.789
 40.821  40.829  40.832  40.845  40.857  40.866  40.868  41.057
 41.061  41.061  41.066  41.068  41.077  41.094  41.095  41.119
 41.154  41.158  41.196
 --------------------------------------------------------------
 
          Ground-State Mulliken Net Atomic Charges

     Atom                 Charge (a.u.)
  ----------------------------------------
      1 C                     0.354547
      2 H                     0.080764
      3 C                    -0.449174
      4 H                     0.101468
      5 H                     0.101369
      6 H                     0.101317
      7 C                    -0.449218
      8 H                     0.101498
      9 H                     0.101317
     10 H                     0.101183
     11 C                    -0.448972
     12 H                     0.101412
     13 H                     0.101217
     14 H                     0.101271
  ----------------------------------------
  Sum of atomic charges =     0.000000

 -----------------------------------------------------------------
                    Cartesian Multipole Moments
 -----------------------------------------------------------------
    Charge (ESU x 10^10)
                 0.0000
    Dipole Moment (Debye)
         X       0.0000      Y       0.0000      Z       0.1453
       Tot       0.1453
    Quadrupole Moments (Debye-Ang)
        XX     -29.2009     XY       0.0008     YY     -29.2037
        XZ       0.0003     YZ       0.0005     ZZ     -28.6669
    Octapole Moments (Debye-Ang^2)
       XXX      -1.8766    XXY      -0.0013    XYY       1.8767
       YYY      -0.0039    XXZ      12.2697    XYZ      -0.0003
       YYZ      12.2702    XZZ       0.0014    YZZ      -0.0013
       ZZZ      31.3068
    Hexadecapole Moments (Debye-Ang^3)
      XXXX    -220.2686   XXXY       0.0053   XXYY     -73.4231
      XYYY       0.0045   YYYY    -220.3105   XXXZ      -0.3632
      XXYZ       0.0011   XYYZ       0.3685   YYYZ       0.0031
      XXZZ     -54.4321   XYZZ       0.0013   YYZZ     -54.4332
      XZZZ       0.0000   YZZZ       0.0029   ZZZZ     -91.2276
 -----------------------------------------------------------------
 Total job time:  220.00s(wall), 219.23s(cpu) 
 Sun Jul  7 08:48:48 2013

        *************************************************************
        *                                                           *
        *  Thank you very much for using Q-Chem.  Have a nice day.  *
        *                                                           *
        *************************************************************


0 sent ACK to 0 
now end server 0 ... 
 
**********************************************************************
Job 3 of 3 
**********************************************************************
 
Process 0 of 1 is on cl007.stfx.acenet.ca - thread support 1
initial socket setup ...start
initial socket setup ...done 
now start server 0 ... 

cmd = /usr/bin/ssh clhead /usr/local/qchem/bin/get_hostid 493944358 > /scratch/tmp/6063628.1.short.q/qchem20816/lic.dat
                  Welcome to Q-Chem
     A Quantum Leap Into The Future Of Chemistry

 Y. Shao, L. Fusti-Molnar, Y. Jung, J. Kussmann, C. Ochsenfeld,
 S. T. Brown, A. T. B. Gilbert, L. V. Slipchenko,S. V. Levchenko,
 D. P. O'Neill, R. A. DiStasio Jr., R. C. Lochan, T. Wang,
 G. J. O. Beran, N. A. Besley, J. M. Herbert, C. Y. Lin,
 T. Van Voorhis, S. H. Chien, A. Sodt, R. P. Steele, 
 V. A. Rassolov, P. E. Maslen, P. P. Korambath, R. D. Adamson,
 B. Austin, J. Baker, E. F. C. Byrd, H. Dachsel, R. J. Doerksen,
 A. Dreuw, B. D. Dunietz, A. D. Dutoi, T. R. Furlani,
 S. R. Gwaltney, A. Heyden, S. Hirata, C.-P. Hsu, G. Kedziora,
 R. Z. Khaliullin, P. Klunzinger, A. M. Lee, M. S. Lee, W. Liang,
 I. Lotan, N. Nair, B. Peters, E. I. Proynov, P. A. Pieniazek, 
 Y. M. Rhee, J. Ritchie, E. Rosta, C. D. Sherrill, 
 A. C. Simmonett, J. E. Subotnik, H. L. Woodcock III,
 W. Zhang, A. T. Bell, A. K. Chakraborty, D. M. Chipman,
 F. J. Keil, A. Warshel, W. J. Hehre, H. F. Schaefer III,
 J. Kong, A. I. Krylov, P. M. W. Gill, M. Head-Gordon,
 Q-Chem, Version 3.1, Q-Chem, Inc., Pittsburgh, PA (2007).

 Additional authors for Version 3.1: 
 Z. Gan, Y. Zhao, N. E. Schultz, D. Truhlar, E. Epifanovsky and M. Oana.

 Additional authors for Version 3.2: 
 R. Baer, B. R. Brooks, D. Casanova, J.-D. Chai, C.-L. Cheng, 
 C. Cramer, D. Crittenden, A. Ghysels, G. Hawkins, E. G. Hohenstein, 
 C. Kelley, W. Kurlancheek, D. Liotard, E. Livshits, P. Manohar, 
 A. Marenich, D. Neuhauser, R. Olson, M. A. Rohrdanz, K. S. Thanthiriwatte, 
 A. J. W. Thom, V. Vanovschi, C. F. Williams, Q. Wu and Z.-Q. You. 


 Intel X86 Linux Version

 Q-chem begins on Sun Jul  7 08:48:51 2013  

 Parallel job on  1  processors
Processing $rem in /usr/local/qchem/config/preferences.

theFileMan(): MAXOPENFILES=974 MAX_SUB_FILE_NUM=16
Maximum size of a physical file is 2.0 GB, maximum size of a tmp-file is 32.0 GB


--------------------------------------------------------------
User input:
--------------------------------------------------------------

$molecule
1,2
C         -0.00003        0.00000        0.00511
H         -0.00008        0.00000        1.10256
C          1.44877        0.00000       -0.46691
H          1.49564        0.00000       -1.56124
H          1.98463        0.88451       -0.11125
H          1.98463       -0.88451       -0.11125
C         -0.72447       -1.25474       -0.46680
H         -0.74778       -1.29553       -1.56115
H         -0.22608       -2.16083       -0.11114
H         -1.75845       -1.27686       -0.11130
C         -0.72447        1.25474       -0.46680
H         -0.74778        1.29553       -1.56115
H         -1.75845        1.27686       -0.11130
H         -0.22608        2.16083       -0.11114
$end

$comment
positive
$end

$xc_functional
C PBE   1.00
X wPBE  1.00
$end

$rem
SYMMETRY_DECOMPOSITION	0
LRC_DFT                 true
exchange 		general
BASIS                   g3large
omega			100
mem_static              760
max_scf_cycles          200
scf_final_print         1
sym_ignore              true
$end

--------------------------------------------------------------
 Writing REM_CC_EA           14
 ----------------------------------------------------
       Standard Nuclear Orientation (Angstroms)
    I     Atom         X            Y            Z
 ----------------------------------------------------
    1      C      -0.000030     0.000000     0.005110
    2      H      -0.000080     0.000000     1.102560
    3      C       1.448770     0.000000    -0.466910
    4      H       1.495640     0.000000    -1.561240
    5      H       1.984630     0.884510    -0.111250
    6      H       1.984630    -0.884510    -0.111250
    7      C      -0.724470    -1.254740    -0.466800
    8      H      -0.747780    -1.295530    -1.561150
    9      H      -0.226080    -2.160830    -0.111140
   10      H      -1.758450    -1.276860    -0.111300
   11      C      -0.724470     1.254740    -0.466800
   12      H      -0.747780     1.295530    -1.561150
   13      H      -1.758450     1.276860    -0.111300
   14      H      -0.226080     2.160830    -0.111140
 ----------------------------------------------------
 Nuclear Repulsion Energy =   134.9570436455 hartrees
 There are       17 alpha and       16 beta electrons
 Requested basis set is G3large
 There are 100 shells and 268 basis functions

Total QAlloc Memory Limit   2000 MB
Mega-Array Size       743 MB
MEM_STATIC part       760 MB

                       Distance Matrix (Angstroms)
             C (  1)   H (  2)   C (  3)   H (  4)   H (  5)   H (  6)
   H (  2)  1.097450
   C (  3)  1.523753  2.135978
   H (  4)  2.165752  3.054997  1.095333
   H (  5)  2.175953  2.488929  1.093617  1.767467
   H (  6)  2.175953  2.488929  1.093617  1.767467  1.769020
   C (  7)  1.523773  2.135885  2.509451  2.775078  3.470163  2.757301
   H (  8)  2.165802  3.054964  2.774994  2.590624  3.784290  3.120451
   H (  9)  2.175730  2.488640  2.756970  3.120304  3.763155  2.552691
   H ( 10)  2.176227  2.489115  3.470316  3.784415  4.322287  3.763587
   C ( 11)  1.523773  2.135885  2.509451  2.775078  2.757301  3.470163
   H ( 12)  2.165802  3.054964  2.774994  2.590624  3.120451  3.784290
   H ( 13)  2.176227  2.489115  3.470316  3.784415  3.763587  4.322287
   H ( 14)  2.175730  2.488640  2.756970  3.120304  2.552691  3.763155
             C (  7)   H (  8)   H (  9)   H ( 10)   C ( 11)   H ( 12)
   H (  8)  1.095358
   H (  9)  1.093566  1.767327
   H ( 10)  1.093611  1.767447  1.769056
   C ( 11)  2.509480  2.775252  3.470015  2.757625
   H ( 12)  2.775252  2.591060  3.784326  3.121011  1.095358
   H ( 13)  2.757625  3.121011  3.763757  2.553720  1.093611  1.767447
   H ( 14)  3.470015  3.784326  4.321660  3.763757  1.093566  1.767327
             H ( 13)
   H ( 14)  1.769056
 
 A cutoff of  1.0D-08 yielded   4705 shell pairs
 There are  33835 function pairs ( 40339 Cartesian)
Evaluating contribution to one-electron hamiltonian from nuclear
 Smallest overlap matrix eigenvalue = 3.17E-05

 Q-Chem warning in module mkSTV.C, line 194:

 Overlap eigenvalue is smaller than square root of threshold

 Multipole matrices computed through 2nd order

  Scale SEOQF with 1.000000e-01/1.000000e-01/1.000000e-01

 Standard Electronic Orientation quadrupole field applied
 Nucleus-field energy     =     0.0000000026 hartrees
 Guess from superposition of atomic densities
 Warning:  Energy on first SCF cycle will be non-variational
 Long-range K will be added via erf
 Coulomb attenuation parameter = 0.1 bohr**(-1)
 An unrestricted Kohn-Sham SCF calculation will be
 performed using Pulay DIIS extrapolation
 Exchange:  wPBE + LR-HF      Correlation:  PBE
 Using SG-1 standard quadrature grid
 SCF converges when DIIS error is below 1.0E-05
 Requested basis set is G3large
 There are 100 shells and 268 basis functions
 A cutoff of  1.0D-08 yielded   4705 shell pairs
 There are  33835 function pairs ( 40339 Cartesian)
 Warning!  Inaccurate integrated density:
   Number of electrons =    33
   Numerical integral  =    34.000118798019
   Relative error      =     3.0306630243 %
 ---------------------------------------
  Cycle       Energy         DIIS Error
 ---------------------------------------
    1    -158.8087568470      2.64E-02
    2    -157.7924178730      3.19E-03
    3    -157.7895091044      3.22E-03
    4    -157.8828388406      4.65E-04
    5    -157.8846472307      1.98E-04
    6    -157.8850454842      3.93E-05
    7    -157.8850743407      1.35E-05
    8    -157.8850930571      9.01E-06 Convergence criterion met
 ---------------------------------------
 One-Electron    Energy =  -470.4972579828
 Total Coulomb   Energy =   202.5763653691
 Alpha Exchange  Energy =    -0.9481594535
 Beta  Exchange  Energy =    -0.8907949390
 DFT   Exchange  Energy =   -22.0301990276
 DFT Correlation Energy =    -1.0520906714
 Nuclear Repu.   Energy =   134.9570436481
 Nuclear Attr.   Energy =  -627.8530730942
 Kinetic         Energy =   157.3558151114
 <S^2> = 0.7516
 SCF time:  CPU 317.46 s  wall 318.67 s
 Final Alpha MO Eigenvalues
            1           2           3           4           5           6
    1 -10.2098750 -10.1526095 -10.1511127 -10.1482467  -1.0400236  -0.9039051
            7           8           9          10          11          12
    1  -0.9032545  -0.8136707  -0.7113640  -0.6709760  -0.6691851  -0.6267229
           13          14          15          16          17          18
    1  -0.6226110  -0.5941242  -0.5889649  -0.5735851  -0.5698162  -0.1364510
           19          20          21          22
    1  -0.1117150  -0.0937390  -0.0935233  -0.0776695
 Final Beta MO Eigenvalues
            1           2           3           4           5           6
    1 -10.2064886 -10.1506175 -10.1493554 -10.1471074  -1.0290322  -0.8966356
            7           8           9          10          11          12
    1  -0.8962235  -0.7923645  -0.6991185  -0.6643900  -0.6634904  -0.6122261
           13          14          15          16          17          18
    1  -0.6119605  -0.5856522  -0.5685453  -0.5667210  -0.4608606  -0.1319610
           19          20          21
    1  -0.1038524  -0.0918277  -0.0915508
 Analysis of SCF Wavefunction
 
 --------------------------------------------------------------
                    Orbital Energies (a.u.)
 --------------------------------------------------------------
 
 Alpha MOs
 -- Occupied --
-10.210 -10.153 -10.151 -10.148  -1.040  -0.904  -0.903  -0.814
 -0.711  -0.671  -0.669  -0.627  -0.623  -0.594  -0.589  -0.574
 -0.570
 -- Virtual --
 -0.136  -0.112  -0.094  -0.094  -0.078  -0.070  -0.069  -0.050
 -0.050  -0.050  -0.034  -0.034  -0.015  -0.013  -0.011  -0.011
  0.005   0.014   0.015   0.019   0.031   0.032   0.035   0.045
  0.045   0.057   0.059   0.060   0.074   0.075   0.075   0.078
  0.093   0.111   0.111   0.163   0.164   0.164   0.232   0.245
  0.246   0.300   0.308   0.309   0.317   0.325   0.325   0.376
  0.381   0.385   0.385   0.393   0.403   0.403   0.406   0.418
  0.419   0.442   0.443   0.465   0.511   0.514   0.516   0.530
  0.553   0.553   0.622   0.648   0.649   0.671   0.703   0.705
  0.767   0.775   0.813   0.815   0.863   0.865   0.893   0.934
  0.935   0.936   0.954   0.989   0.991   1.028   1.068   1.068
  1.071   1.072   1.119   1.126   1.127   1.137   1.137   1.149
  1.168   1.192   1.192   1.254   1.260   1.263   1.265   1.326
  1.368   1.369   1.377   1.391   1.392   1.403   1.436   1.436
  1.486   1.490   1.491   2.154   2.157   2.249   2.303   2.304
  2.316   2.389   2.447   2.449   2.466   2.467   2.476   2.551
  2.576   2.578   2.636   2.670   2.674   2.687   2.690   2.720
  2.773   2.775   2.781   2.875   2.876   2.909   2.994   3.019
  3.020   3.022   3.070   3.071   3.086   3.115   3.145   3.147
  3.197   3.211   3.211   3.297   3.300   3.302   3.323   3.325
  3.360   3.431   3.465   3.469   3.504   3.509   3.567   3.568
  3.632   3.676   3.678   3.689   3.714   3.741   3.743   3.786
  3.794   3.795   3.926   3.940   3.940   3.953   3.978   4.006
  4.008   4.010   4.018   4.020   4.139   4.142   4.144   4.236
  4.241   4.243   4.353   4.354   4.379   4.381   4.384   4.429
  4.488   4.488   4.527   4.623   4.625   5.054   5.134   5.136
  5.271   5.414   5.415   5.439   5.453   5.465   5.468  23.693
 23.872  23.875  23.972  27.237  27.239  27.535  27.738  27.739
 27.755  27.785  27.811  27.813  28.005  28.104  28.106  40.535
 40.562  40.586  40.600  40.601  40.612  40.632  40.633  40.791
 40.808  40.821  40.826  40.829  40.831  40.858  40.862  40.870
 40.920  40.924  40.946
 
 Beta MOs
 -- Occupied --
-10.206 -10.151 -10.149 -10.147  -1.029  -0.897  -0.896  -0.792
 -0.699  -0.664  -0.663  -0.612  -0.612  -0.586  -0.569  -0.567
 -- Virtual --
 -0.461  -0.132  -0.104  -0.092  -0.092  -0.074  -0.068  -0.068
 -0.048  -0.048  -0.047  -0.030  -0.030  -0.014  -0.010  -0.009
 -0.001   0.008   0.017   0.017   0.021   0.032   0.033   0.039
  0.047   0.047   0.062   0.063   0.066   0.076   0.078   0.078
  0.082   0.095   0.113   0.114   0.167   0.168   0.170   0.239
  0.250   0.250   0.306   0.311   0.312   0.325   0.328   0.328
  0.380   0.391   0.391   0.392   0.398   0.408   0.408   0.408
  0.421   0.421   0.447   0.448   0.473   0.520   0.520   0.521
  0.535   0.561   0.561   0.625   0.652   0.653   0.677   0.713
  0.713   0.771   0.779   0.817   0.818   0.867   0.867   0.902
  0.939   0.945   0.945   0.959   0.995   0.996   1.039   1.072
  1.073   1.076   1.077   1.126   1.131   1.131   1.145   1.146
  1.152   1.175   1.198   1.199   1.260   1.271   1.271   1.275
  1.338   1.374   1.374   1.380   1.399   1.399   1.407   1.441
  1.441   1.497   1.498   1.498   2.162   2.163   2.267   2.309
  2.310   2.321   2.400   2.457   2.458   2.473   2.474   2.498
  2.556   2.590   2.591   2.655   2.677   2.678   2.695   2.696
  2.727   2.782   2.783   2.791   2.884   2.885   2.921   3.003
  3.023   3.027   3.027   3.080   3.081   3.102   3.118   3.151
  3.152   3.209   3.219   3.220   3.304   3.307   3.307   3.332
  3.334   3.369   3.441   3.473   3.475   3.514   3.515   3.578
  3.580   3.648   3.686   3.687   3.703   3.722   3.750   3.751
  3.790   3.815   3.815   3.936   3.951   3.951   3.959   3.989
  4.017   4.019   4.029   4.030   4.030   4.146   4.152   4.153
  4.245   4.260   4.260   4.364   4.365   4.385   4.386   4.390
  4.445   4.510   4.511   4.530   4.631   4.633   5.065   5.143
  5.144   5.311   5.427   5.428   5.455   5.458   5.470   5.471
 23.696  23.875  23.876  23.975  27.240  27.241  27.542  27.741
 27.743  27.756  27.788  27.812  27.814  28.011  28.107  28.108
 40.537  40.571  40.588  40.601  40.602  40.616  40.635  40.636
 40.798  40.814  40.824  40.830  40.832  40.834  40.860  40.865
 40.874  40.921  40.926  40.948
 --------------------------------------------------------------
 
          Ground-State Mulliken Net Atomic Charges

     Atom                 Charge (a.u.)    Spin (a.u.)
  --------------------------------------------------------
      1 C                     0.270634       0.209102
      2 H                     0.240113       0.207501
      3 C                    -0.343491       0.087470
      4 H                     0.182773       0.084571
      5 H                     0.162738       0.019822
      6 H                     0.154066      -0.002650
      7 C                    -0.343381       0.097817
      8 H                     0.182171       0.082942
      9 H                     0.154541      -0.002742
     10 H                     0.160517       0.012328
     11 C                    -0.337497       0.057781
     12 H                     0.189471       0.097913
     13 H                     0.162337       0.020251
     14 H                     0.165007       0.027893
  --------------------------------------------------------
  Sum of atomic charges =     1.000000
  Sum of spin   charges =     1.000000

 -----------------------------------------------------------------
                    Cartesian Multipole Moments
 -----------------------------------------------------------------
    Charge (ESU x 10^10)
                 4.8032
    Dipole Moment (Debye)
         X      -0.0574      Y       0.1445      Z      -1.6906
       Tot       1.6977
    Quadrupole Moments (Debye-Ang)
        XX     -19.2135     XY      -0.0283     YY     -19.0415
        XZ      -0.1131     YZ       0.2679     ZZ     -20.1651
    Octapole Moments (Debye-Ang^2)
       XXX       2.1464    XXY       0.1937    XYY      -2.4172
       YYY       0.5801    XXZ       7.0324    XYZ       0.0413
       YYZ       6.9599    XZZ       0.0553    YZZ      -0.1469
       ZZZ      22.0329
    Hexadecapole Moments (Debye-Ang^3)
      XXXX    -166.4564   XXXY       0.0044   XXYY     -55.2950
      XYYY      -0.2082   YYYY    -165.2892   XXXZ      -4.2089
      XXYZ       0.4058   XYYZ       3.4989   YYYZ       1.2174
      XXZZ     -40.8614   XYZZ      -0.1205   YYZZ     -40.6913
      XZZZ      -0.1300   YZZZ       0.3525   ZZZZ     -57.3873
 -----------------------------------------------------------------
 Total job time:  319.09s(wall), 317.86s(cpu) 
 Sun Jul  7 08:54:10 2013

        *************************************************************
        *                                                           *
        *  Thank you very much for using Q-Chem.  Have a nice day.  *
        *                                                           *
        *************************************************************


0 sent ACK to 0 
now end server 0 ... 
