Process 0 of 1 is on cl015.stfx.acenet.ca - thread support 1
initial socket setup ...start
initial socket setup ...done 
now start server 0 ... 

cmd = /usr/bin/ssh clhead /usr/local/qchem/bin/get_hostid 133521547 > /scratch/tmp/6063536.1.short.q/qchem14379/lic.dat
                  Welcome to Q-Chem
     A Quantum Leap Into The Future Of Chemistry

 Y. Shao, L. Fusti-Molnar, Y. Jung, J. Kussmann, C. Ochsenfeld,
 S. T. Brown, A. T. B. Gilbert, L. V. Slipchenko,S. V. Levchenko,
 D. P. O'Neill, R. A. DiStasio Jr., R. C. Lochan, T. Wang,
 G. J. O. Beran, N. A. Besley, J. M. Herbert, C. Y. Lin,
 T. Van Voorhis, S. H. Chien, A. Sodt, R. P. Steele, 
 V. A. Rassolov, P. E. Maslen, P. P. Korambath, R. D. Adamson,
 B. Austin, J. Baker, E. F. C. Byrd, H. Dachsel, R. J. Doerksen,
 A. Dreuw, B. D. Dunietz, A. D. Dutoi, T. R. Furlani,
 S. R. Gwaltney, A. Heyden, S. Hirata, C.-P. Hsu, G. Kedziora,
 R. Z. Khaliullin, P. Klunzinger, A. M. Lee, M. S. Lee, W. Liang,
 I. Lotan, N. Nair, B. Peters, E. I. Proynov, P. A. Pieniazek, 
 Y. M. Rhee, J. Ritchie, E. Rosta, C. D. Sherrill, 
 A. C. Simmonett, J. E. Subotnik, H. L. Woodcock III,
 W. Zhang, A. T. Bell, A. K. Chakraborty, D. M. Chipman,
 F. J. Keil, A. Warshel, W. J. Hehre, H. F. Schaefer III,
 J. Kong, A. I. Krylov, P. M. W. Gill, M. Head-Gordon,
 Q-Chem, Version 3.1, Q-Chem, Inc., Pittsburgh, PA (2007).

 Additional authors for Version 3.1: 
 Z. Gan, Y. Zhao, N. E. Schultz, D. Truhlar, E. Epifanovsky and M. Oana.

 Additional authors for Version 3.2: 
 R. Baer, B. R. Brooks, D. Casanova, J.-D. Chai, C.-L. Cheng, 
 C. Cramer, D. Crittenden, A. Ghysels, G. Hawkins, E. G. Hohenstein, 
 C. Kelley, W. Kurlancheek, D. Liotard, E. Livshits, P. Manohar, 
 A. Marenich, D. Neuhauser, R. Olson, M. A. Rohrdanz, K. S. Thanthiriwatte, 
 A. J. W. Thom, V. Vanovschi, C. F. Williams, Q. Wu and Z.-Q. You. 


 Intel X86 Linux Version

 Q-chem begins on Sun Jul  7 08:37:52 2013  

 Parallel job on  1  processors
Processing $rem in /usr/local/qchem/config/preferences.

theFileMan(): MAXOPENFILES=974 MAX_SUB_FILE_NUM=16
Maximum size of a physical file is 2.0 GB, maximum size of a tmp-file is 32.0 GB


--------------------------------------------------------------
User input:
--------------------------------------------------------------

$molecule
-1,2
N          0.00000        0.00000        0.02589
N          0.00000        0.00000        1.13189
O          0.00000        0.00000        2.30331
$end

$comment
negative
$end

$xc_functional
C PBE   1.00
X wPBE  1.00
$end

$rem
SYMMETRY_DECOMPOSITION	0
exchange 		general
LRC_DFT                 true
BASIS                   g3large
omega			800
mem_static              760
max_scf_cycles          200
scf_final_print         1
sym_ignore              true
$end

--------------------------------------------------------------
 Writing REM_CC_EA            3
 ----------------------------------------------------
       Standard Nuclear Orientation (Angstroms)
    I     Atom         X            Y            Z
 ----------------------------------------------------
    1      N       0.000000     0.000000     0.025890
    2      N       0.000000     0.000000     1.131890
    3      O       0.000000     0.000000     2.303310
 ----------------------------------------------------
 Nuclear Repulsion Energy =    61.7540562782 hartrees
 There are       12 alpha and       11 beta electrons
 Requested basis set is G3large
 There are 30 shells and 126 basis functions

Total QAlloc Memory Limit   2000 MB
Mega-Array Size       743 MB
MEM_STATIC part       760 MB

                       Distance Matrix (Angstroms)
             N (  1)   N (  2)
   N (  2)  1.106000
   O (  3)  2.277420  1.171420
 
 A cutoff of  1.0D-08 yielded    434 shell pairs
 There are   7827 function pairs ( 10283 Cartesian)
Evaluating contribution to one-electron hamiltonian from nuclear
 Smallest overlap matrix eigenvalue = 4.25E-05

 Q-Chem warning in module mkSTV.C, line 194:

 Overlap eigenvalue is smaller than square root of threshold

 Multipole matrices computed through 2nd order

  Scale SEOQF with 1.000000e-01/1.000000e-01/1.000000e-01

 Standard Electronic Orientation quadrupole field applied
 Nucleus-field energy     =    -0.0000000055 hartrees
 Guess from superposition of atomic densities
 Warning:  Energy on first SCF cycle will be non-variational
 Long-range K will be added via erf
 Coulomb attenuation parameter = 0.8 bohr**(-1)
 An unrestricted Kohn-Sham SCF calculation will be
 performed using Pulay DIIS extrapolation
 Exchange:  wPBE + LR-HF      Correlation:  PBE
 Using SG-1 standard quadrature grid
 SCF converges when DIIS error is below 1.0E-05
 Requested basis set is G3large
 There are 30 shells and 126 basis functions
 A cutoff of  1.0D-08 yielded    434 shell pairs
 There are   7827 function pairs ( 10283 Cartesian)
 Warning!  Inaccurate integrated density:
   Number of electrons =    23
   Numerical integral  =    22.000008617596
   Relative error      =    -4.3477886191 %
 ---------------------------------------
  Cycle       Energy         DIIS Error
 ---------------------------------------
    1    -185.3537413490      4.93E-02
    2    -184.4161110534      6.47E-03
    3    -184.4609318560      4.91E-03
    4    -184.4918920572      6.22E-04
    5    -184.4931508740      3.26E-04
    6    -184.4935284297      1.41E-04
    7    -184.4936717616      6.41E-05
    8    -184.4937284623      2.84E-05
    9    -184.4937680439      1.72E-05
   10    -184.4937823804      6.80E-06 Convergence criterion met
 ---------------------------------------
 One-Electron    Energy =  -379.9685498718
 Total Coulomb   Energy =   156.2906733427
 Alpha Exchange  Energy =    -4.1173530997
 Beta  Exchange  Energy =    -3.7895291015
 DFT   Exchange  Energy =   -13.8876328654
 DFT Correlation Energy =    -0.7754470572
 Nuclear Repu.   Energy =    61.7540562727
 Nuclear Attr.   Energy =  -564.6585277867
 Kinetic         Energy =   184.6899779149
 <S^2> = 0.7560
 SCF time:  CPU 34.81 s  wall 36.23 s
 Final Alpha MO Eigenvalues
            1           2           3           4           5           6
    1 -18.9416032 -14.2746171 -14.1694315  -1.2328418  -1.0401336  -0.5265737
            7           8           9          10          11          12
    1  -0.5096371  -0.4703248  -0.3813509  -0.2588466  -0.2087133   0.0437051
           13          14          15          16          17
    1   0.2591736   0.3071068   0.3337073   0.3621439   0.3821212
 Final Beta MO Eigenvalues
            1           2           3           4           5           6
    1 -18.9392458 -14.2605880 -14.1640361  -1.2133129  -1.0299987  -0.5062382
            7           8           9          10          11          12
    1  -0.4600865  -0.4323401  -0.3558815  -0.2065258  -0.1879134   0.2611335
           13          14          15          16
    1   0.3101219   0.3385469   0.3470993   0.3835089
 Analysis of SCF Wavefunction
 
 --------------------------------------------------------------
                    Orbital Energies (a.u.)
 --------------------------------------------------------------
 
 Alpha MOs
 -- Occupied --
-18.942 -14.275 -14.169  -1.233  -1.040  -0.527  -0.510  -0.470
 -0.381  -0.259  -0.209   0.044
 -- Virtual --
  0.259   0.307   0.334   0.362   0.382   0.397   0.415   0.444
  0.489   0.512   0.528   0.530   0.601   0.731   0.953   1.095
  1.095   1.179   1.192   1.210   1.210   1.253   1.295   1.411
  1.472   1.477   1.552   1.556   1.568   1.587   1.588   1.620
  2.062   2.063   2.085   2.166   2.171   2.429   2.829   2.830
  3.014   3.225   3.756   3.756   3.757   3.757   3.879   4.059
  4.066   4.134   4.137   4.250   4.250   4.446   4.447   4.736
  4.843   4.844   4.900   4.900   5.109   5.128   5.138   5.140
  5.294   5.296   5.337   5.338   5.538   5.538   5.617   5.619
  5.933   6.162   6.162   6.300   6.540   6.540   7.263   7.264
  7.558   7.713   7.715   8.060   8.064   8.285   9.313  35.958
 36.697  37.786  37.787  38.166  38.167  38.876  39.939  40.816
 40.920  40.932  41.017  41.019  41.035  41.150  41.344  41.345
 42.189  44.144  44.204  44.343  44.344  44.622  46.225  46.225
 47.126  50.953
 
 Beta MOs
 -- Occupied --
-18.939 -14.261 -14.164  -1.213  -1.030  -0.506  -0.460  -0.432
 -0.356  -0.207  -0.188
 -- Virtual --
  0.261   0.310   0.339   0.347   0.384   0.389   0.416   0.452
  0.470   0.492   0.532   0.535   0.546   0.607   0.754   0.958
  1.099   1.118   1.198   1.217   1.223   1.223   1.259   1.302
  1.418   1.479   1.489   1.564   1.569   1.589   1.608   1.608
  1.631   2.077   2.077   2.090   2.173   2.190   2.438   2.833
  2.848   3.021   3.236   3.765   3.767   3.778   3.778   3.888
  4.081   4.116   4.138   4.163   4.273   4.273   4.450   4.470
  4.750   4.859   4.860   4.906   4.927   5.119   5.136   5.183
  5.185   5.330   5.330   5.339   5.358   5.545   5.545   5.619
  5.635   5.938   6.171   6.171   6.305   6.548   6.572   7.275
  7.275   7.566   7.714   7.726   8.064   8.082   8.293   9.318
 35.969  36.709  37.793  37.810  38.173  38.190  38.879  39.947
 40.844  40.946  40.946  41.021  41.040  41.048  41.158  41.346
 41.361  42.193  44.152  44.211  44.343  44.349  44.624  46.227
 46.233  47.126  50.955
 --------------------------------------------------------------
 
          Ground-State Mulliken Net Atomic Charges

     Atom                 Charge (a.u.)    Spin (a.u.)
  --------------------------------------------------------
      1 N                    -0.921040       0.684431
      2 N                     0.560547       0.188275
      3 O                    -0.639508       0.127293
  --------------------------------------------------------
  Sum of atomic charges =    -1.000000
  Sum of spin   charges =     1.000000

 -----------------------------------------------------------------
                    Cartesian Multipole Moments
 -----------------------------------------------------------------
    Charge (ESU x 10^10)
                -4.8032
    Dipole Moment (Debye)
         X       0.0204      Y       0.0255      Z      -4.1299
       Tot       4.1300
    Quadrupole Moments (Debye-Ang)
        XX     -18.7648     XY      -1.1543     YY     -19.2973
        XZ       0.0083     YZ       0.0106     ZZ     -33.4514
    Octapole Moments (Debye-Ang^2)
       XXX       0.0922    XXY       0.0386    XYY       0.0307
       YYY       0.1158    XXZ     -19.0750    XYZ      -0.0466
       YYZ     -19.0965    XZZ       0.0673    YZZ       0.0852
       ZZZ     -97.2948
    Hexadecapole Moments (Debye-Ang^3)
      XXXX     -21.7339   XXXY      -2.3695   XXYY      -7.6090
      XYYY      -2.3695   YYYY     -23.9200   XXXZ       0.0455
      XXYZ       0.0193   XYYZ       0.0152   YYYZ       0.0578
      XXZZ     -47.8744   XYZZ      -2.0515   YYZZ     -48.8207
      XZZZ       0.1522   YZZZ       0.1932   ZZZZ    -350.9846
 -----------------------------------------------------------------
 Total job time:  36.39s(wall), 34.96s(cpu) 
 Sun Jul  7 08:38:28 2013

        *************************************************************
        *                                                           *
        *  Thank you very much for using Q-Chem.  Have a nice day.  *
        *                                                           *
        *************************************************************


0 sent ACK to 0 
now end server 0 ... 
 
**********************************************************************
Job 2 of 3 
**********************************************************************
 
Process 0 of 1 is on cl015.stfx.acenet.ca - thread support 1
initial socket setup ...start
initial socket setup ...done 
now start server 0 ... 

cmd = /usr/bin/ssh clhead /usr/local/qchem/bin/get_hostid 1165508287 > /scratch/tmp/6063536.1.short.q/qchem14379/lic.dat
                  Welcome to Q-Chem
     A Quantum Leap Into The Future Of Chemistry

 Y. Shao, L. Fusti-Molnar, Y. Jung, J. Kussmann, C. Ochsenfeld,
 S. T. Brown, A. T. B. Gilbert, L. V. Slipchenko,S. V. Levchenko,
 D. P. O'Neill, R. A. DiStasio Jr., R. C. Lochan, T. Wang,
 G. J. O. Beran, N. A. Besley, J. M. Herbert, C. Y. Lin,
 T. Van Voorhis, S. H. Chien, A. Sodt, R. P. Steele, 
 V. A. Rassolov, P. E. Maslen, P. P. Korambath, R. D. Adamson,
 B. Austin, J. Baker, E. F. C. Byrd, H. Dachsel, R. J. Doerksen,
 A. Dreuw, B. D. Dunietz, A. D. Dutoi, T. R. Furlani,
 S. R. Gwaltney, A. Heyden, S. Hirata, C.-P. Hsu, G. Kedziora,
 R. Z. Khaliullin, P. Klunzinger, A. M. Lee, M. S. Lee, W. Liang,
 I. Lotan, N. Nair, B. Peters, E. I. Proynov, P. A. Pieniazek, 
 Y. M. Rhee, J. Ritchie, E. Rosta, C. D. Sherrill, 
 A. C. Simmonett, J. E. Subotnik, H. L. Woodcock III,
 W. Zhang, A. T. Bell, A. K. Chakraborty, D. M. Chipman,
 F. J. Keil, A. Warshel, W. J. Hehre, H. F. Schaefer III,
 J. Kong, A. I. Krylov, P. M. W. Gill, M. Head-Gordon,
 Q-Chem, Version 3.1, Q-Chem, Inc., Pittsburgh, PA (2007).

 Additional authors for Version 3.1: 
 Z. Gan, Y. Zhao, N. E. Schultz, D. Truhlar, E. Epifanovsky and M. Oana.

 Additional authors for Version 3.2: 
 R. Baer, B. R. Brooks, D. Casanova, J.-D. Chai, C.-L. Cheng, 
 C. Cramer, D. Crittenden, A. Ghysels, G. Hawkins, E. G. Hohenstein, 
 C. Kelley, W. Kurlancheek, D. Liotard, E. Livshits, P. Manohar, 
 A. Marenich, D. Neuhauser, R. Olson, M. A. Rohrdanz, K. S. Thanthiriwatte, 
 A. J. W. Thom, V. Vanovschi, C. F. Williams, Q. Wu and Z.-Q. You. 


 Intel X86 Linux Version

 Q-chem begins on Sun Jul  7 08:38:32 2013  

 Parallel job on  1  processors
Processing $rem in /usr/local/qchem/config/preferences.

theFileMan(): MAXOPENFILES=974 MAX_SUB_FILE_NUM=16
Maximum size of a physical file is 2.0 GB, maximum size of a tmp-file is 32.0 GB


--------------------------------------------------------------
User input:
--------------------------------------------------------------

$molecule
0,1
N          0.00000        0.00000        0.02589
N          0.00000        0.00000        1.13189
O          0.00000        0.00000        2.30331
$end

$comment
neutral
$end

$xc_functional
C PBE   1.00
X wPBE  1.00
$end


$rem
SYMMETRY_DECOMPOSITION	0
LRC_DFT                 true
exchange 		general
BASIS                   g3large
omega			800
mem_static              760
max_scf_cycles          200
scf_final_print         1
sym_ignore              true
$end

--------------------------------------------------------------
 Writing REM_CC_EA            3
 ----------------------------------------------------
       Standard Nuclear Orientation (Angstroms)
    I     Atom         X            Y            Z
 ----------------------------------------------------
    1      N       0.000000     0.000000     0.025890
    2      N       0.000000     0.000000     1.131890
    3      O       0.000000     0.000000     2.303310
 ----------------------------------------------------
 Nuclear Repulsion Energy =    61.7540562782 hartrees
 There are       11 alpha and       11 beta electrons
 Requested basis set is G3large
 There are 30 shells and 126 basis functions

Total QAlloc Memory Limit   2000 MB
Mega-Array Size       743 MB
MEM_STATIC part       760 MB

                       Distance Matrix (Angstroms)
             N (  1)   N (  2)
   N (  2)  1.106000
   O (  3)  2.277420  1.171420
 
 A cutoff of  1.0D-08 yielded    434 shell pairs
 There are   7827 function pairs ( 10283 Cartesian)
Evaluating contribution to one-electron hamiltonian from nuclear
 Smallest overlap matrix eigenvalue = 4.25E-05

 Q-Chem warning in module mkSTV.C, line 194:

 Overlap eigenvalue is smaller than square root of threshold

 Multipole matrices computed through 2nd order

  Scale SEOQF with 1.000000e-01/1.000000e-01/1.000000e-01

 Standard Electronic Orientation quadrupole field applied
 Nucleus-field energy     =    -0.0000000055 hartrees
 Guess from superposition of atomic densities
 Warning:  Energy on first SCF cycle will be non-variational
 Long-range K will be added via erf
 Coulomb attenuation parameter = 0.8 bohr**(-1)
 A restricted Kohn-Sham SCF calculation will be
 performed using Pulay DIIS extrapolation
 Exchange:  wPBE + LR-HF      Correlation:  PBE
 Using SG-1 standard quadrature grid
 SCF converges when DIIS error is below 1.0E-05
 Requested basis set is G3large
 There are 30 shells and 126 basis functions
 A cutoff of  1.0D-08 yielded    434 shell pairs
 There are   7827 function pairs ( 10283 Cartesian)
 ---------------------------------------
  Cycle       Energy         DIIS Error
 ---------------------------------------
    1    -185.3537413490      4.93E-02
    2    -184.4720168408      7.97E-03
    3    -184.4992965518      7.35E-03
    4    -184.5651256383      6.25E-04
    5    -184.5658841017      3.73E-04
    6    -184.5660934665      1.95E-04
    7    -184.5661742140      4.36E-05
    8    -184.5661833400      1.30E-05
    9    -184.5661845640      5.02E-06 Convergence criterion met
 ---------------------------------------
 One-Electron    Energy =  -372.8667071812
 Total Coulomb   Energy =   148.7280712827
 Alpha Exchange  Energy =    -3.8256447442
 Beta  Exchange  Energy =    -3.8256447442
 DFT   Exchange  Energy =   -13.7838338849
 DFT Correlation Energy =    -0.7464815649
 Nuclear Repu.   Energy =    61.7540562727
 Nuclear Attr.   Energy =  -556.9161130515
 Kinetic         Energy =   184.0494058703
 SCF time:  CPU 25.99 s  wall 26.44 s
 Final Alpha MO Eigenvalues
            1           2           3           4           5           6
    1 -19.2573799 -14.6750351 -14.5238325  -1.5561469  -1.3768491  -0.8161901
            7           8           9          10          11          12
    1  -0.7924903  -0.7924778  -0.6934468  -0.5135163  -0.5134999   0.0814884
           13          14          15          16
    1   0.0980389   0.0980439   0.1384461   0.1676216
 Analysis of SCF Wavefunction
 
 --------------------------------------------------------------
                    Orbital Energies (a.u.)
 --------------------------------------------------------------
 
 Alpha MOs
 -- Occupied --
-19.257 -14.675 -14.524  -1.556  -1.377  -0.816  -0.792  -0.792
 -0.693  -0.514  -0.513
 -- Virtual --
  0.081   0.098   0.098   0.138   0.168   0.168   0.217   0.223
  0.223   0.301   0.318   0.336   0.336   0.398   0.474   0.705
  0.823   0.823   0.908   0.908   0.926   0.926   0.964   1.019
  1.166   1.222   1.222   1.266   1.266   1.266   1.298   1.298
  1.347   1.784   1.784   1.817   1.878   1.878   2.129   2.541
  2.541   2.736   2.917   3.429   3.429   3.432   3.432   3.553
  3.732   3.732   3.809   3.809   3.927   3.927   4.122   4.122
  4.406   4.524   4.524   4.578   4.578   4.787   4.806   4.806
  4.809   4.965   4.965   5.020   5.020   5.244   5.244   5.313
  5.313   5.620   5.854   5.854   5.976   6.207   6.207   6.964
  6.965   7.240   7.415   7.415   7.738   7.738   7.964   8.983
 35.585  36.323  37.411  37.411  37.794  37.794  38.520  39.555
 40.424  40.527  40.578  40.634  40.634  40.681  40.769  40.979
 40.979  41.817  43.832  43.891  44.028  44.028  44.305  45.911
 45.911  46.809  50.638
 --------------------------------------------------------------
 
          Ground-State Mulliken Net Atomic Charges

     Atom                 Charge (a.u.)
  ----------------------------------------
      1 N                    -0.096327
      2 N                     0.386073
      3 O                    -0.289746
  ----------------------------------------
  Sum of atomic charges =     0.000000

 -----------------------------------------------------------------
                    Cartesian Multipole Moments
 -----------------------------------------------------------------
    Charge (ESU x 10^10)
                 0.0000
    Dipole Moment (Debye)
         X       0.0000      Y       0.0000      Z      -0.4778
       Tot       0.4778
    Quadrupole Moments (Debye-Ang)
        XX     -15.0975     XY       0.0002     YY     -15.0975
        XZ      -0.0001     YZ       0.0000     ZZ     -20.3174
    Octapole Moments (Debye-Ang^2)
       XXX       0.0000    XXY       0.0000    XYY       0.0000
       YYY       0.0000    XXZ     -17.4189    XYZ      -0.0007
       YYZ     -17.4191    XZZ      -0.0002    YZZ      -0.0001
       ZZZ     -67.3860
    Hexadecapole Moments (Debye-Ang^3)
      XXXX     -11.7747   XXXY       0.0002   XXYY      -3.9249
      XYYY       0.0002   YYYY     -11.7745   XXXZ       0.0000
      XXYZ       0.0000   XYYZ       0.0000   YYYZ       0.0000
      XXZZ     -38.7984   XYZZ      -0.0014   YYZZ     -38.7989
      XZZZ      -0.0005   YZZZ      -0.0002   ZZZZ    -253.9388
 -----------------------------------------------------------------
 Total job time:  26.58s(wall), 26.13s(cpu) 
 Sun Jul  7 08:38:58 2013

        *************************************************************
        *                                                           *
        *  Thank you very much for using Q-Chem.  Have a nice day.  *
        *                                                           *
        *************************************************************


0 sent ACK to 0 
now end server 0 ... 
 
**********************************************************************
Job 3 of 3 
**********************************************************************
 
Process 0 of 1 is on cl015.stfx.acenet.ca - thread support 1
initial socket setup ...start
initial socket setup ...done 
now start server 0 ... 

cmd = /usr/bin/ssh clhead /usr/local/qchem/bin/get_hostid 629057650 > /scratch/tmp/6063536.1.short.q/qchem14379/lic.dat
                  Welcome to Q-Chem
     A Quantum Leap Into The Future Of Chemistry

 Y. Shao, L. Fusti-Molnar, Y. Jung, J. Kussmann, C. Ochsenfeld,
 S. T. Brown, A. T. B. Gilbert, L. V. Slipchenko,S. V. Levchenko,
 D. P. O'Neill, R. A. DiStasio Jr., R. C. Lochan, T. Wang,
 G. J. O. Beran, N. A. Besley, J. M. Herbert, C. Y. Lin,
 T. Van Voorhis, S. H. Chien, A. Sodt, R. P. Steele, 
 V. A. Rassolov, P. E. Maslen, P. P. Korambath, R. D. Adamson,
 B. Austin, J. Baker, E. F. C. Byrd, H. Dachsel, R. J. Doerksen,
 A. Dreuw, B. D. Dunietz, A. D. Dutoi, T. R. Furlani,
 S. R. Gwaltney, A. Heyden, S. Hirata, C.-P. Hsu, G. Kedziora,
 R. Z. Khaliullin, P. Klunzinger, A. M. Lee, M. S. Lee, W. Liang,
 I. Lotan, N. Nair, B. Peters, E. I. Proynov, P. A. Pieniazek, 
 Y. M. Rhee, J. Ritchie, E. Rosta, C. D. Sherrill, 
 A. C. Simmonett, J. E. Subotnik, H. L. Woodcock III,
 W. Zhang, A. T. Bell, A. K. Chakraborty, D. M. Chipman,
 F. J. Keil, A. Warshel, W. J. Hehre, H. F. Schaefer III,
 J. Kong, A. I. Krylov, P. M. W. Gill, M. Head-Gordon,
 Q-Chem, Version 3.1, Q-Chem, Inc., Pittsburgh, PA (2007).

 Additional authors for Version 3.1: 
 Z. Gan, Y. Zhao, N. E. Schultz, D. Truhlar, E. Epifanovsky and M. Oana.

 Additional authors for Version 3.2: 
 R. Baer, B. R. Brooks, D. Casanova, J.-D. Chai, C.-L. Cheng, 
 C. Cramer, D. Crittenden, A. Ghysels, G. Hawkins, E. G. Hohenstein, 
 C. Kelley, W. Kurlancheek, D. Liotard, E. Livshits, P. Manohar, 
 A. Marenich, D. Neuhauser, R. Olson, M. A. Rohrdanz, K. S. Thanthiriwatte, 
 A. J. W. Thom, V. Vanovschi, C. F. Williams, Q. Wu and Z.-Q. You. 


 Intel X86 Linux Version

 Q-chem begins on Sun Jul  7 08:39:02 2013  

 Parallel job on  1  processors
Processing $rem in /usr/local/qchem/config/preferences.

theFileMan(): MAXOPENFILES=974 MAX_SUB_FILE_NUM=16
Maximum size of a physical file is 2.0 GB, maximum size of a tmp-file is 32.0 GB


--------------------------------------------------------------
User input:
--------------------------------------------------------------

$molecule
1,2
N          0.00000        0.00000        0.02589
N          0.00000        0.00000        1.13189
O          0.00000        0.00000        2.30331
$end

$comment
positive
$end

$xc_functional
C PBE   1.00
X wPBE  1.00
$end

$rem
SYMMETRY_DECOMPOSITION	0
LRC_DFT                 true
exchange 		general
BASIS                   g3large
omega			800
mem_static              760
max_scf_cycles          200
scf_final_print         1
sym_ignore              true
$end

--------------------------------------------------------------
 Writing REM_CC_EA            3
 ----------------------------------------------------
       Standard Nuclear Orientation (Angstroms)
    I     Atom         X            Y            Z
 ----------------------------------------------------
    1      N       0.000000     0.000000     0.025890
    2      N       0.000000     0.000000     1.131890
    3      O       0.000000     0.000000     2.303310
 ----------------------------------------------------
 Nuclear Repulsion Energy =    61.7540562782 hartrees
 There are       11 alpha and       10 beta electrons
 Requested basis set is G3large
 There are 30 shells and 126 basis functions

Total QAlloc Memory Limit   2000 MB
Mega-Array Size       743 MB
MEM_STATIC part       760 MB

                       Distance Matrix (Angstroms)
             N (  1)   N (  2)
   N (  2)  1.106000
   O (  3)  2.277420  1.171420
 
 A cutoff of  1.0D-08 yielded    434 shell pairs
 There are   7827 function pairs ( 10283 Cartesian)
Evaluating contribution to one-electron hamiltonian from nuclear
 Smallest overlap matrix eigenvalue = 4.25E-05

 Q-Chem warning in module mkSTV.C, line 194:

 Overlap eigenvalue is smaller than square root of threshold

 Multipole matrices computed through 2nd order

  Scale SEOQF with 1.000000e-01/1.000000e-01/1.000000e-01

 Standard Electronic Orientation quadrupole field applied
 Nucleus-field energy     =    -0.0000000055 hartrees
 Guess from superposition of atomic densities
 Warning:  Energy on first SCF cycle will be non-variational
 Long-range K will be added via erf
 Coulomb attenuation parameter = 0.8 bohr**(-1)
 An unrestricted Kohn-Sham SCF calculation will be
 performed using Pulay DIIS extrapolation
 Exchange:  wPBE + LR-HF      Correlation:  PBE
 Using SG-1 standard quadrature grid
 SCF converges when DIIS error is below 1.0E-05
 Requested basis set is G3large
 There are 30 shells and 126 basis functions
 A cutoff of  1.0D-08 yielded    434 shell pairs
 There are   7827 function pairs ( 10283 Cartesian)
 Warning!  Inaccurate integrated density:
   Number of electrons =    21
   Numerical integral  =    22.000008617596
   Relative error      =     4.7619457981 %
 ---------------------------------------
  Cycle       Energy         DIIS Error
 ---------------------------------------
    1    -185.3537413490      4.93E-02
    2    -183.9219693363      8.93E-03
    3    -184.0254348168      6.78E-03
    4    -184.0835982118      1.34E-03
    5    -184.0885171329      4.32E-04
    6    -184.0903893260      2.71E-04
    7    -184.0909967558      1.11E-04
    8    -184.0914911753      5.12E-05
    9    -184.0915833938      1.95E-05
   10    -184.0916036225      6.03E-06 Convergence criterion met
 ---------------------------------------
 One-Electron    Energy =  -364.5919039111
 Total Coulomb   Energy =   140.5609078994
 Alpha Exchange  Energy =    -3.8844817656
 Beta  Exchange  Energy =    -3.5230231232
 DFT   Exchange  Energy =   -13.7054689051
 DFT Correlation Energy =    -0.7016900895
 Nuclear Repu.   Energy =    61.7540562727
 Nuclear Attr.   Energy =  -548.3455144430
 Kinetic         Energy =   183.7536105319
 <S^2> = 0.8160
 SCF time:  CPU 34.96 s  wall 35.48 s
 Final Alpha MO Eigenvalues
            1           2           3           4           5           6
    1 -19.7164458 -15.0093042 -14.9264686  -1.9484689  -1.7665849  -1.2110737
            7           8           9          10          11          12
    1  -1.1806444  -1.1500441  -1.0416799  -0.9551108  -0.9024161  -0.2395873
           13          14          15          16
    1  -0.2238594  -0.1422568  -0.0510875  -0.0450044
 Final Beta MO Eigenvalues
            1           2           3           4           5           6
    1 -19.6957047 -15.0162954 -14.9162532  -1.9192135  -1.7223028  -1.1764931
            7           8           9          10          11          12
    1  -1.1479527  -1.0918912  -1.0198282  -0.8786764  -0.4364620  -0.2224340
           13          14          15
    1  -0.1592110  -0.1392668  -0.0438500
 Analysis of SCF Wavefunction
 
 --------------------------------------------------------------
                    Orbital Energies (a.u.)
 --------------------------------------------------------------
 
 Alpha MOs
 -- Occupied --
-19.716 -15.009 -14.926  -1.948  -1.767  -1.211  -1.181  -1.150
 -1.042  -0.955  -0.902
 -- Virtual --
 -0.240  -0.224  -0.142  -0.051  -0.045  -0.034   0.007   0.020
  0.030   0.035   0.105   0.132   0.137   0.196   0.218   0.455
  0.536   0.545   0.585   0.585   0.641   0.653   0.662   0.718
  0.879   0.884   0.905   0.922   0.940   0.944   0.966   0.967
  1.058   1.417   1.418   1.490   1.535   1.556   1.829   2.183
  2.207   2.400   2.559   3.074   3.075   3.090   3.090   3.210
  3.408   3.410   3.435   3.459   3.580   3.580   3.744   3.764
  4.047   4.163   4.164   4.209   4.226   4.436   4.449   4.459
  4.462   4.594   4.595   4.611   4.648   4.814   4.815   4.898
  4.938   5.222   5.456   5.458   5.606   5.824   5.844   6.501
  6.502   6.856   6.973   7.020   7.334   7.362   7.585   8.594
 35.218  35.957  37.041  37.047  37.422  37.427  38.130  39.199
 40.090  40.172  40.192  40.274  40.279  40.280  40.411  40.593
 40.601  41.446  43.355  43.413  43.549  43.586  43.851  45.430
 45.464  46.361  50.185
 
 Beta MOs
 -- Occupied --
-19.696 -15.016 -14.916  -1.919  -1.722  -1.176  -1.148  -1.092
 -1.020  -0.879
 -- Virtual --
 -0.436  -0.222  -0.159  -0.139  -0.044  -0.038  -0.033   0.010
  0.025   0.035   0.037   0.106   0.138   0.142   0.198   0.221
  0.461   0.543   0.544   0.592   0.592   0.655   0.659   0.669
  0.725   0.888   0.912   0.928   0.947   0.950   0.957   0.990
  0.991   1.068   1.455   1.457   1.507   1.559   1.562   1.833
  2.210   2.211   2.409   2.573   3.086   3.086   3.093   3.093
  3.215   3.388   3.398   3.469   3.472   3.591   3.591   3.768
  3.768   4.053   4.173   4.174   4.224   4.228   4.446   4.458
  4.458   4.465   4.618   4.620   4.661   4.670   4.870   4.871
  4.950   4.956   5.249   5.484   5.486   5.617   5.844   5.846
  6.584   6.593   6.876   7.033   7.041   7.370   7.371   7.595
  8.607  35.220  35.958  37.047  37.048  37.427  37.428  38.135
 39.199  40.079  40.182  40.190  40.277  40.279  40.293  40.409
 40.602  40.602  41.447  43.406  43.466  43.593  43.601  43.874
 45.478  45.486  46.375  50.204
 --------------------------------------------------------------
 
          Ground-State Mulliken Net Atomic Charges

     Atom                 Charge (a.u.)    Spin (a.u.)
  --------------------------------------------------------
      1 N                     0.375742       0.478595
      2 N                     0.371448      -0.273626
      3 O                     0.252810       0.795031
  --------------------------------------------------------
  Sum of atomic charges =     1.000000
  Sum of spin   charges =     1.000000

 -----------------------------------------------------------------
                    Cartesian Multipole Moments
 -----------------------------------------------------------------
    Charge (ESU x 10^10)
                 4.8032
    Dipole Moment (Debye)
         X       0.0014      Y      -0.0010      Z       5.5857
       Tot       5.5857
    Quadrupole Moments (Debye-Ang)
        XX     -12.5679     XY      -0.4756     YY     -12.8731
        XZ       0.0002     YZ      -0.0002     ZZ      -4.2178
    Octapole Moments (Debye-Ang^2)
       XXX       0.0009    XXY      -0.0002    XYY       0.0003
       YYY      -0.0007    XXZ     -14.3413    XYZ      -0.6982
       YYZ     -14.7894    XZZ       0.0021    YZZ      -0.0015
       ZZZ     -27.9091
    Hexadecapole Moments (Debye-Ang^3)
      XXXX      -8.3442   XXXY      -0.2555   XXYY      -2.8363
      XYYY      -0.2557   YYYY      -8.6723   XXXZ       0.0001
      XXYZ      -0.0001   XYYZ       0.0000   YYYZ      -0.0001
      XXZZ     -30.5675   XYZZ      -1.7157   YYZZ     -31.6686
      XZZZ       0.0051   YZZZ      -0.0037   ZZZZ    -146.2299
 -----------------------------------------------------------------
 Total job time:  35.63s(wall), 35.10s(cpu) 
 Sun Jul  7 08:39:37 2013

        *************************************************************
        *                                                           *
        *  Thank you very much for using Q-Chem.  Have a nice day.  *
        *                                                           *
        *************************************************************


0 sent ACK to 0 
now end server 0 ... 
