Process 0 of 1 is on cl019.stfx.acenet.ca - thread support 1
initial socket setup ...start
initial socket setup ...done 
now start server 0 ... 

cmd = /usr/bin/ssh clhead /usr/local/qchem/bin/get_hostid 10944759 > /scratch/tmp/6064831.1.short.q/qchem20550/lic.dat
                  Welcome to Q-Chem
     A Quantum Leap Into The Future Of Chemistry

 Y. Shao, L. Fusti-Molnar, Y. Jung, J. Kussmann, C. Ochsenfeld,
 S. T. Brown, A. T. B. Gilbert, L. V. Slipchenko,S. V. Levchenko,
 D. P. O'Neill, R. A. DiStasio Jr., R. C. Lochan, T. Wang,
 G. J. O. Beran, N. A. Besley, J. M. Herbert, C. Y. Lin,
 T. Van Voorhis, S. H. Chien, A. Sodt, R. P. Steele, 
 V. A. Rassolov, P. E. Maslen, P. P. Korambath, R. D. Adamson,
 B. Austin, J. Baker, E. F. C. Byrd, H. Dachsel, R. J. Doerksen,
 A. Dreuw, B. D. Dunietz, A. D. Dutoi, T. R. Furlani,
 S. R. Gwaltney, A. Heyden, S. Hirata, C.-P. Hsu, G. Kedziora,
 R. Z. Khaliullin, P. Klunzinger, A. M. Lee, M. S. Lee, W. Liang,
 I. Lotan, N. Nair, B. Peters, E. I. Proynov, P. A. Pieniazek, 
 Y. M. Rhee, J. Ritchie, E. Rosta, C. D. Sherrill, 
 A. C. Simmonett, J. E. Subotnik, H. L. Woodcock III,
 W. Zhang, A. T. Bell, A. K. Chakraborty, D. M. Chipman,
 F. J. Keil, A. Warshel, W. J. Hehre, H. F. Schaefer III,
 J. Kong, A. I. Krylov, P. M. W. Gill, M. Head-Gordon,
 Q-Chem, Version 3.1, Q-Chem, Inc., Pittsburgh, PA (2007).

 Additional authors for Version 3.1: 
 Z. Gan, Y. Zhao, N. E. Schultz, D. Truhlar, E. Epifanovsky and M. Oana.

 Additional authors for Version 3.2: 
 R. Baer, B. R. Brooks, D. Casanova, J.-D. Chai, C.-L. Cheng, 
 C. Cramer, D. Crittenden, A. Ghysels, G. Hawkins, E. G. Hohenstein, 
 C. Kelley, W. Kurlancheek, D. Liotard, E. Livshits, P. Manohar, 
 A. Marenich, D. Neuhauser, R. Olson, M. A. Rohrdanz, K. S. Thanthiriwatte, 
 A. J. W. Thom, V. Vanovschi, C. F. Williams, Q. Wu and Z.-Q. You. 


 Intel X86 Linux Version

 Q-chem begins on Mon Jul  8 12:26:04 2013  

 Parallel job on  1  processors
Processing $rem in /usr/local/qchem/config/preferences.

theFileMan(): MAXOPENFILES=974 MAX_SUB_FILE_NUM=16
Maximum size of a physical file is 2.0 GB, maximum size of a tmp-file is 32.0 GB


--------------------------------------------------------------
User input:
--------------------------------------------------------------

$molecule
-1,2
C         -0.00003        0.00000        0.00516
H         -0.00008        0.00000        1.10218
C          1.44812        0.00000       -0.46687
H          1.49471        0.00000       -1.56081
H          1.98381        0.88422       -0.11143
H          1.98381       -0.88422       -0.11143
C         -0.72414       -1.25418       -0.46676
H         -0.74732       -1.29470       -1.56072
H         -0.22592       -2.15997       -0.11132
H         -1.75778       -1.27628       -0.11148
C         -0.72414        1.25418       -0.46676
H         -0.74732        1.29470       -1.56072
H         -1.75778        1.27628       -0.11148
H         -0.22592        2.15997       -0.11132
$end

$comment
negative
$end

$xc_functional
C PBE   1.00
X wPBE  1.00
$end

$rem
SYMMETRY_DECOMPOSITION	0
exchange 		general
LRC_DFT                 true
BASIS                   g3large
omega			100
mem_static              760
max_scf_cycles          200
scf_final_print         1
sym_ignore              true
$end

--------------------------------------------------------------
 Writing REM_CC_EA           14
 ----------------------------------------------------
       Standard Nuclear Orientation (Angstroms)
    I     Atom         X            Y            Z
 ----------------------------------------------------
    1      C      -0.000030     0.000000     0.005160
    2      H      -0.000080     0.000000     1.102180
    3      C       1.448120     0.000000    -0.466870
    4      H       1.494710     0.000000    -1.560810
    5      H       1.983810     0.884220    -0.111430
    6      H       1.983810    -0.884220    -0.111430
    7      C      -0.724140    -1.254180    -0.466760
    8      H      -0.747320    -1.294700    -1.560720
    9      H      -0.225920    -2.159970    -0.111320
   10      H      -1.757780    -1.276280    -0.111480
   11      C      -0.724140     1.254180    -0.466760
   12      H      -0.747320     1.294700    -1.560720
   13      H      -1.757780     1.276280    -0.111480
   14      H      -0.225920     2.159970    -0.111320
 ----------------------------------------------------
 Nuclear Repulsion Energy =   135.0123242027 hartrees
 There are       18 alpha and       17 beta electrons
 Requested basis set is G3large
 There are 100 shells and 268 basis functions

Total QAlloc Memory Limit   2000 MB
Mega-Array Size       743 MB
MEM_STATIC part       760 MB

                       Distance Matrix (Angstroms)
             C (  1)   H (  2)   C (  3)   H (  4)   H (  5)   H (  6)
   H (  2)  1.097020
   C (  3)  1.523138  2.135229
   H (  4)  2.164835  3.053836  1.094932
   H (  5)  2.175100  2.488074  1.093228  1.766852
   H (  6)  2.175100  2.488074  1.093228  1.766852  1.768440
   C (  7)  1.523158  2.135135  2.508322  2.773663  3.468718  2.756106
   H (  8)  2.164872  3.053793  2.773574  2.589005  3.782487  3.118975
   H (  9)  2.174871  2.487781  2.755775  3.118823  3.761649  2.551557
   H ( 10)  2.175358  2.488246  3.468860  3.782610  4.320562  3.762075
   C ( 11)  1.523158  2.135135  2.508322  2.773663  2.756106  3.468718
   H ( 12)  2.164872  3.053793  2.773574  2.589005  3.118975  3.782487
   H ( 13)  2.175358  2.488246  3.468860  3.782610  3.762075  4.320562
   H ( 14)  2.174871  2.487781  2.755775  3.118823  2.551557  3.761649
             C (  7)   H (  8)   H (  9)   H ( 10)   C ( 11)   H ( 12)
   H (  8)  1.094956
   H (  9)  1.093168  1.766723
   H ( 10)  1.093217  1.766824  1.768475
   C ( 11)  2.508360  2.773820  3.468570  2.756422
   H ( 12)  2.773820  2.589400  3.782508  3.119497  1.094956
   H ( 13)  2.756422  3.119497  3.762235  2.552560  1.093217  1.766824
   H ( 14)  3.468570  3.782508  4.319940  3.762235  1.093168  1.766723
             H ( 13)
   H ( 14)  1.768475
 
 A cutoff of  1.0D-08 yielded   4705 shell pairs
 There are  33835 function pairs ( 40339 Cartesian)
Evaluating contribution to one-electron hamiltonian from nuclear
 Smallest overlap matrix eigenvalue = 3.15E-05

 Q-Chem warning in module mkSTV.C, line 194:

 Overlap eigenvalue is smaller than square root of threshold

 Multipole matrices computed through 2nd order

  Scale SEOQF with 1.000000e-01/1.000000e-01/1.000000e-01

 Standard Electronic Orientation quadrupole field applied
 Nucleus-field energy     =     0.0000000026 hartrees
 Guess from superposition of atomic densities
 Warning:  Energy on first SCF cycle will be non-variational
 Long-range K will be added via erf
 Coulomb attenuation parameter = 0.1 bohr**(-1)
 An unrestricted Kohn-Sham SCF calculation will be
 performed using Pulay DIIS extrapolation
 Exchange:  wPBE + LR-HF      Correlation:  PBE
 Using SG-1 standard quadrature grid
 SCF converges when DIIS error is below 1.0E-05
 Requested basis set is G3large
 There are 100 shells and 268 basis functions
 A cutoff of  1.0D-08 yielded   4705 shell pairs
 There are  33835 function pairs ( 40339 Cartesian)
 Warning!  Inaccurate integrated density:
   Number of electrons =    35
   Numerical integral  =    34.000126056514
   Relative error      =    -2.8567826957 %
 ---------------------------------------
  Cycle       Energy         DIIS Error
 ---------------------------------------
    1    -158.8125968648      2.64E-02
    2    -158.0151651748      4.57E-03
    3    -157.9514256498      5.58E-03
    4    -158.2542446290      4.55E-04
    5    -158.2572384098      2.48E-04
    6    -158.2583731926      6.74E-05
    7    -158.2587117443      2.52E-05
    8    -158.2588272231      1.13E-05
    9    -158.2588525904      5.11E-06 Convergence criterion met
 ---------------------------------------
 One-Electron    Energy =  -482.8833793492
 Total Coulomb   Energy =   214.9486622023
 Alpha Exchange  Energy =    -0.9877346981
 Beta  Exchange  Energy =    -0.9473967597
 DFT   Exchange  Energy =   -22.3100851877
 DFT Correlation Energy =    -1.0912430033
 Nuclear Repu.   Energy =   135.0123242052
 Nuclear Attr.   Energy =  -640.5969584408
 Kinetic         Energy =   157.7135790915
 <S^2> = 0.7501
 SCF time:  CPU 378.00 s  wall 379.35 s
 Final Alpha MO Eigenvalues
            1           2           3           4           5           6
    1  -9.8085155  -9.7907842  -9.7905042  -9.7900953  -0.6615216  -0.5455084
            7           8           9          10          11          12
    1  -0.5452592  -0.4308392  -0.3452891  -0.3141499  -0.3140249  -0.2666324
           13          14          15          16          17          18
    1  -0.2664099  -0.2451559  -0.2153269  -0.2152294  -0.2073541   0.0282747
           19          20          21          22          23
    1   0.1174614   0.1179364   0.1218809   0.1460678   0.1461356
 Final Beta MO Eigenvalues
            1           2           3           4           5           6
    1  -9.8083476  -9.7905275  -9.7902443  -9.7898308  -0.6611559  -0.5448956
            7           8           9          10          11          12
    1  -0.5446372  -0.4298824  -0.3443918  -0.3134673  -0.3133387  -0.2659813
           13          14          15          16          17          18
    1  -0.2657526  -0.2443594  -0.2145586  -0.2144553  -0.2064159   0.1133214
           19          20          21          22
    1   0.1317297   0.1317920   0.1340446   0.1546786
 Analysis of SCF Wavefunction
 
 --------------------------------------------------------------
                    Orbital Energies (a.u.)
 --------------------------------------------------------------
 
 Alpha MOs
 -- Occupied --
 -9.809  -9.791  -9.791  -9.790  -0.662  -0.546  -0.545  -0.431
 -0.345  -0.314  -0.314  -0.267  -0.266  -0.245  -0.215  -0.215
 -0.207   0.028
 -- Virtual --
  0.117   0.118   0.122   0.146   0.146   0.153   0.164   0.164
  0.180   0.205   0.235   0.235   0.243   0.244   0.244   0.251
  0.267   0.267   0.268   0.280   0.280   0.295   0.296   0.296
  0.310   0.335   0.335   0.347   0.355   0.355   0.376   0.376
  0.411   0.411   0.436   0.436   0.444   0.518   0.541   0.541
  0.605   0.608   0.608   0.629   0.632   0.632   0.676   0.697
  0.699   0.699   0.706   0.707   0.707   0.710   0.735   0.736
  0.770   0.770   0.781   0.813   0.813   0.828   0.847   0.885
  0.885   0.949   0.984   0.984   1.011   1.037   1.037   1.089
  1.108   1.145   1.145   1.195   1.196   1.232   1.260   1.271
  1.272   1.282   1.319   1.319   1.372   1.400   1.400   1.409
  1.409   1.446   1.464   1.464   1.464   1.465   1.465   1.498
  1.521   1.521   1.584   1.590   1.590   1.605   1.668   1.696
  1.696   1.712   1.720   1.732   1.732   1.763   1.763   1.834
  1.838   1.838   2.502   2.502   2.621   2.652   2.652   2.664
  2.743   2.809   2.809   2.834   2.834   2.858   2.907   2.948
  2.948   3.017   3.035   3.035   3.042   3.043   3.071   3.133
  3.133   3.145   3.228   3.228   3.267   3.359   3.365   3.373
  3.373   3.429   3.429   3.456   3.462   3.502   3.502   3.561
  3.569   3.569   3.651   3.654   3.654   3.683   3.684   3.717
  3.797   3.833   3.833   3.868   3.868   3.934   3.934   4.003
  4.044   4.044   4.061   4.076   4.101   4.101   4.137   4.167
  4.167   4.291   4.303   4.303   4.303   4.336   4.359   4.359
  4.377   4.377   4.394   4.491   4.500   4.500   4.589   4.617
  4.618   4.718   4.718   4.733   4.734   4.735   4.799   4.872
  4.872   4.890   4.987   4.987   5.418   5.501   5.501   5.689
  5.775   5.776   5.802   5.807   5.814   5.814  24.074  24.236
 24.236  24.355  27.620  27.621  27.921  28.100  28.100  28.114
 28.148  28.172  28.172  28.385  28.483  28.483  40.917  40.949
 40.957  40.961  40.973  40.986  40.995  40.996  41.185  41.189
 41.189  41.195  41.196  41.205  41.222  41.223  41.248  41.282
 41.286  41.325
 
 Beta MOs
 -- Occupied --
 -9.808  -9.791  -9.790  -9.790  -0.661  -0.545  -0.545  -0.430
 -0.344  -0.313  -0.313  -0.266  -0.266  -0.244  -0.215  -0.214
 -0.206
 -- Virtual --
  0.113   0.132   0.132   0.134   0.155   0.155   0.161   0.169
  0.169   0.190   0.207   0.233   0.233   0.242   0.242   0.247
  0.254   0.268   0.268   0.269   0.282   0.282   0.295   0.295
  0.298   0.309   0.338   0.338   0.349   0.358   0.358   0.378
  0.380   0.412   0.412   0.435   0.435   0.444   0.518   0.542
  0.542   0.607   0.609   0.609   0.630   0.633   0.634   0.676
  0.698   0.699   0.699   0.706   0.707   0.708   0.711   0.736
  0.737   0.771   0.771   0.781   0.814   0.814   0.829   0.847
  0.887   0.887   0.951   0.985   0.985   1.012   1.039   1.039
  1.092   1.109   1.146   1.146   1.197   1.197   1.234   1.262
  1.273   1.274   1.283   1.320   1.320   1.373   1.402   1.402
  1.411   1.411   1.447   1.465   1.466   1.466   1.467   1.467
  1.500   1.523   1.523   1.586   1.592   1.592   1.607   1.669
  1.698   1.698   1.714   1.723   1.733   1.734   1.765   1.765
  1.835   1.839   1.839   2.503   2.503   2.622   2.652   2.652
  2.664   2.743   2.809   2.809   2.834   2.834   2.859   2.908
  2.949   2.949   3.017   3.036   3.036   3.043   3.043   3.072
  3.134   3.134   3.145   3.229   3.229   3.268   3.360   3.366
  3.374   3.374   3.429   3.429   3.457   3.463   3.504   3.504
  3.562   3.569   3.569   3.652   3.654   3.655   3.684   3.684
  3.718   3.798   3.834   3.834   3.869   3.869   3.935   3.935
  4.004   4.045   4.045   4.061   4.077   4.102   4.102   4.138
  4.167   4.167   4.292   4.304   4.304   4.304   4.337   4.360
  4.360   4.377   4.377   4.395   4.491   4.500   4.501   4.590
  4.618   4.618   4.718   4.719   4.734   4.734   4.735   4.799
  4.872   4.873   4.890   4.988   4.988   5.419   5.502   5.502
  5.690   5.776   5.776   5.803   5.808   5.815   5.815  24.075
 24.236  24.237  24.355  27.621  27.621  27.922  28.100  28.101
 28.114  28.148  28.172  28.172  28.386  28.483  28.483  40.917
 40.949  40.958  40.961  40.973  40.986  40.995  40.997  41.185
 41.189  41.189  41.195  41.196  41.206  41.222  41.223  41.248
 41.282  41.286  41.325
 --------------------------------------------------------------
 
          Ground-State Mulliken Net Atomic Charges

     Atom                 Charge (a.u.)    Spin (a.u.)
  --------------------------------------------------------
      1 C                    -3.318675       3.670584
      2 H                    -0.449498       0.547768
      3 C                     2.098931      -2.554814
      4 H                    -0.177198       0.269516
      5 H                    -0.483418       0.590033
      6 H                    -0.512665       0.619782
      7 C                     2.052470      -2.508841
      8 H                    -0.167144       0.259328
      9 H                    -0.493313       0.600099
     10 H                    -0.485253       0.592019
     11 C                     2.149607      -2.605915
     12 H                    -0.188213       0.280503
     13 H                    -0.523450       0.630814
     14 H                    -0.502181       0.609124
  --------------------------------------------------------
  Sum of atomic charges =    -1.000000
  Sum of spin   charges =     1.000000

 -----------------------------------------------------------------
                    Cartesian Multipole Moments
 -----------------------------------------------------------------
    Charge (ESU x 10^10)
                -4.8032
    Dipole Moment (Debye)
         X       0.0402      Y      -0.0953      Z      -0.2857
       Tot       0.3039
    Quadrupole Moments (Debye-Ang)
        XX     -65.0654     XY       0.4424     YY     -64.9253
        XZ       0.0180     YZ       0.0691     ZZ     -55.0001
    Octapole Moments (Debye-Ang^2)
       XXX       1.4576    XXY      -0.5551    XYY      -0.5818
       YYY      -1.6645    XXZ      10.5367    XYZ       0.0087
       YYZ      10.5781    XZZ       0.1691    YZZ      -0.5791
       ZZZ      37.8435
    Hexadecapole Moments (Debye-Ang^3)
      XXXX    -818.2993   XXXY       6.3237   XXYY    -272.1807
      XYYY       5.4076   YYYY    -814.8423   XXXZ       2.4262
      XXYZ       0.3266   XYYZ      -2.2114   YYYZ       0.9828
      XXZZ    -189.9695   XYZZ       1.4237   YYZZ    -189.6036
      XZZZ       0.0741   YZZZ       1.0704   ZZZZ    -432.5375
 -----------------------------------------------------------------
 Total job time:  379.82s(wall), 378.44s(cpu) 
 Mon Jul  8 12:32:24 2013

        *************************************************************
        *                                                           *
        *  Thank you very much for using Q-Chem.  Have a nice day.  *
        *                                                           *
        *************************************************************


0 sent ACK to 0 
now end server 0 ... 
 
**********************************************************************
Job 2 of 3 
**********************************************************************
 
Process 0 of 1 is on cl019.stfx.acenet.ca - thread support 1
initial socket setup ...start
initial socket setup ...done 
now start server 0 ... 

cmd = /usr/bin/ssh clhead /usr/local/qchem/bin/get_hostid 864210143 > /scratch/tmp/6064831.1.short.q/qchem20550/lic.dat
                  Welcome to Q-Chem
     A Quantum Leap Into The Future Of Chemistry

 Y. Shao, L. Fusti-Molnar, Y. Jung, J. Kussmann, C. Ochsenfeld,
 S. T. Brown, A. T. B. Gilbert, L. V. Slipchenko,S. V. Levchenko,
 D. P. O'Neill, R. A. DiStasio Jr., R. C. Lochan, T. Wang,
 G. J. O. Beran, N. A. Besley, J. M. Herbert, C. Y. Lin,
 T. Van Voorhis, S. H. Chien, A. Sodt, R. P. Steele, 
 V. A. Rassolov, P. E. Maslen, P. P. Korambath, R. D. Adamson,
 B. Austin, J. Baker, E. F. C. Byrd, H. Dachsel, R. J. Doerksen,
 A. Dreuw, B. D. Dunietz, A. D. Dutoi, T. R. Furlani,
 S. R. Gwaltney, A. Heyden, S. Hirata, C.-P. Hsu, G. Kedziora,
 R. Z. Khaliullin, P. Klunzinger, A. M. Lee, M. S. Lee, W. Liang,
 I. Lotan, N. Nair, B. Peters, E. I. Proynov, P. A. Pieniazek, 
 Y. M. Rhee, J. Ritchie, E. Rosta, C. D. Sherrill, 
 A. C. Simmonett, J. E. Subotnik, H. L. Woodcock III,
 W. Zhang, A. T. Bell, A. K. Chakraborty, D. M. Chipman,
 F. J. Keil, A. Warshel, W. J. Hehre, H. F. Schaefer III,
 J. Kong, A. I. Krylov, P. M. W. Gill, M. Head-Gordon,
 Q-Chem, Version 3.1, Q-Chem, Inc., Pittsburgh, PA (2007).

 Additional authors for Version 3.1: 
 Z. Gan, Y. Zhao, N. E. Schultz, D. Truhlar, E. Epifanovsky and M. Oana.

 Additional authors for Version 3.2: 
 R. Baer, B. R. Brooks, D. Casanova, J.-D. Chai, C.-L. Cheng, 
 C. Cramer, D. Crittenden, A. Ghysels, G. Hawkins, E. G. Hohenstein, 
 C. Kelley, W. Kurlancheek, D. Liotard, E. Livshits, P. Manohar, 
 A. Marenich, D. Neuhauser, R. Olson, M. A. Rohrdanz, K. S. Thanthiriwatte, 
 A. J. W. Thom, V. Vanovschi, C. F. Williams, Q. Wu and Z.-Q. You. 


 Intel X86 Linux Version

 Q-chem begins on Mon Jul  8 12:32:27 2013  

 Parallel job on  1  processors
Processing $rem in /usr/local/qchem/config/preferences.

theFileMan(): MAXOPENFILES=974 MAX_SUB_FILE_NUM=16
Maximum size of a physical file is 2.0 GB, maximum size of a tmp-file is 32.0 GB


--------------------------------------------------------------
User input:
--------------------------------------------------------------

$molecule
0,1
C         -0.00003        0.00000        0.00516
H         -0.00008        0.00000        1.10218
C          1.44812        0.00000       -0.46687
H          1.49471        0.00000       -1.56081
H          1.98381        0.88422       -0.11143
H          1.98381       -0.88422       -0.11143
C         -0.72414       -1.25418       -0.46676
H         -0.74732       -1.29470       -1.56072
H         -0.22592       -2.15997       -0.11132
H         -1.75778       -1.27628       -0.11148
C         -0.72414        1.25418       -0.46676
H         -0.74732        1.29470       -1.56072
H         -1.75778        1.27628       -0.11148
H         -0.22592        2.15997       -0.11132
$end

$comment
neutral
$end

$xc_functional
C PBE   1.00
X wPBE  1.00
$end


$rem
SYMMETRY_DECOMPOSITION	0
LRC_DFT                 true
exchange 		general
BASIS                   g3large
omega			100
mem_static              760
max_scf_cycles          200
scf_final_print         1
sym_ignore              true
$end

--------------------------------------------------------------
 Writing REM_CC_EA           14
 ----------------------------------------------------
       Standard Nuclear Orientation (Angstroms)
    I     Atom         X            Y            Z
 ----------------------------------------------------
    1      C      -0.000030     0.000000     0.005160
    2      H      -0.000080     0.000000     1.102180
    3      C       1.448120     0.000000    -0.466870
    4      H       1.494710     0.000000    -1.560810
    5      H       1.983810     0.884220    -0.111430
    6      H       1.983810    -0.884220    -0.111430
    7      C      -0.724140    -1.254180    -0.466760
    8      H      -0.747320    -1.294700    -1.560720
    9      H      -0.225920    -2.159970    -0.111320
   10      H      -1.757780    -1.276280    -0.111480
   11      C      -0.724140     1.254180    -0.466760
   12      H      -0.747320     1.294700    -1.560720
   13      H      -1.757780     1.276280    -0.111480
   14      H      -0.225920     2.159970    -0.111320
 ----------------------------------------------------
 Nuclear Repulsion Energy =   135.0123242027 hartrees
 There are       17 alpha and       17 beta electrons
 Requested basis set is G3large
 There are 100 shells and 268 basis functions

Total QAlloc Memory Limit   2000 MB
Mega-Array Size       743 MB
MEM_STATIC part       760 MB

                       Distance Matrix (Angstroms)
             C (  1)   H (  2)   C (  3)   H (  4)   H (  5)   H (  6)
   H (  2)  1.097020
   C (  3)  1.523138  2.135229
   H (  4)  2.164835  3.053836  1.094932
   H (  5)  2.175100  2.488074  1.093228  1.766852
   H (  6)  2.175100  2.488074  1.093228  1.766852  1.768440
   C (  7)  1.523158  2.135135  2.508322  2.773663  3.468718  2.756106
   H (  8)  2.164872  3.053793  2.773574  2.589005  3.782487  3.118975
   H (  9)  2.174871  2.487781  2.755775  3.118823  3.761649  2.551557
   H ( 10)  2.175358  2.488246  3.468860  3.782610  4.320562  3.762075
   C ( 11)  1.523158  2.135135  2.508322  2.773663  2.756106  3.468718
   H ( 12)  2.164872  3.053793  2.773574  2.589005  3.118975  3.782487
   H ( 13)  2.175358  2.488246  3.468860  3.782610  3.762075  4.320562
   H ( 14)  2.174871  2.487781  2.755775  3.118823  2.551557  3.761649
             C (  7)   H (  8)   H (  9)   H ( 10)   C ( 11)   H ( 12)
   H (  8)  1.094956
   H (  9)  1.093168  1.766723
   H ( 10)  1.093217  1.766824  1.768475
   C ( 11)  2.508360  2.773820  3.468570  2.756422
   H ( 12)  2.773820  2.589400  3.782508  3.119497  1.094956
   H ( 13)  2.756422  3.119497  3.762235  2.552560  1.093217  1.766824
   H ( 14)  3.468570  3.782508  4.319940  3.762235  1.093168  1.766723
             H ( 13)
   H ( 14)  1.768475
 
 A cutoff of  1.0D-08 yielded   4705 shell pairs
 There are  33835 function pairs ( 40339 Cartesian)
Evaluating contribution to one-electron hamiltonian from nuclear
 Smallest overlap matrix eigenvalue = 3.15E-05

 Q-Chem warning in module mkSTV.C, line 194:

 Overlap eigenvalue is smaller than square root of threshold

 Multipole matrices computed through 2nd order

  Scale SEOQF with 1.000000e-01/1.000000e-01/1.000000e-01

 Standard Electronic Orientation quadrupole field applied
 Nucleus-field energy     =     0.0000000026 hartrees
 Guess from superposition of atomic densities
 Warning:  Energy on first SCF cycle will be non-variational
 Long-range K will be added via erf
 Coulomb attenuation parameter = 0.1 bohr**(-1)
 A restricted Kohn-Sham SCF calculation will be
 performed using Pulay DIIS extrapolation
 Exchange:  wPBE + LR-HF      Correlation:  PBE
 Using SG-1 standard quadrature grid
 SCF converges when DIIS error is below 1.0E-05
 Requested basis set is G3large
 There are 100 shells and 268 basis functions
 A cutoff of  1.0D-08 yielded   4705 shell pairs
 There are  33835 function pairs ( 40339 Cartesian)
 ---------------------------------------
  Cycle       Energy         DIIS Error
 ---------------------------------------
    1    -158.8125968648      2.64E-02
    2    -158.1232572411      4.12E-03
    3    -158.0913399304      4.54E-03
    4    -158.2820159522      3.71E-04
    5    -158.2830272266      1.66E-04
    6    -158.2832166979      3.46E-05
    7    -158.2832290590      6.05E-06 Convergence criterion met
 ---------------------------------------
 One-Electron    Energy =  -478.5899020036
 Total Coulomb   Energy =   210.5526700102
 Alpha Exchange  Energy =    -0.9475031184
 Beta  Exchange  Energy =    -0.9475031184
 DFT   Exchange  Energy =   -22.2789972971
 DFT Correlation Energy =    -1.0843177369
 Nuclear Repu.   Energy =   135.0123242052
 Nuclear Attr.   Energy =  -636.2339058552
 Kinetic         Energy =   157.6440038516
 SCF time:  CPU 220.98 s  wall 221.61 s
 Final Alpha MO Eigenvalues
            1           2           3           4           5           6
    1  -9.9369934  -9.9181541  -9.9181285  -9.9180780  -0.7889604  -0.6721432
            7           8           9          10          11          12
    1  -0.6721250  -0.5577714  -0.4722526  -0.4408881  -0.4408591  -0.3926082
           13          14          15          16          17          18
    1  -0.3925956  -0.3718025  -0.3418578  -0.3418123  -0.3341387   0.0201080
           19          20          21          22
    1   0.0425440   0.0432938   0.0432967   0.0670480
 Analysis of SCF Wavefunction
 
 --------------------------------------------------------------
                    Orbital Energies (a.u.)
 --------------------------------------------------------------
 
 Alpha MOs
 -- Occupied --
 -9.937  -9.918  -9.918  -9.918  -0.789  -0.672  -0.672  -0.558
 -0.472  -0.441  -0.441  -0.393  -0.393  -0.372  -0.342  -0.342
 -0.334
 -- Virtual --
  0.020   0.043   0.043   0.043   0.067   0.067   0.070   0.083
  0.083   0.105   0.106   0.131   0.131   0.143   0.143   0.147
  0.154   0.162   0.165   0.165   0.177   0.177   0.189   0.192
  0.193   0.210   0.222   0.222   0.241   0.249   0.249   0.259
  0.263   0.294   0.294   0.328   0.328   0.337   0.409   0.427
  0.427   0.491   0.494   0.494   0.513   0.515   0.515   0.559
  0.578   0.579   0.579   0.587   0.589   0.589   0.591   0.615
  0.615   0.646   0.646   0.661   0.697   0.697   0.712   0.725
  0.761   0.761   0.824   0.859   0.859   0.887   0.913   0.913
  0.965   0.984   1.021   1.021   1.072   1.072   1.109   1.138
  1.148   1.148   1.158   1.195   1.195   1.247   1.276   1.276
  1.285   1.285   1.325   1.340   1.341   1.343   1.343   1.343
  1.376   1.398   1.398   1.461   1.468   1.468   1.483   1.544
  1.574   1.574   1.588   1.599   1.608   1.608   1.640   1.641
  1.710   1.712   1.712   2.376   2.377   2.495   2.526   2.526
  2.538   2.617   2.683   2.683   2.707   2.707   2.731   2.781
  2.822   2.822   2.890   2.909   2.909   2.916   2.916   2.945
  3.007   3.007   3.019   3.102   3.102   3.142   3.233   3.239
  3.247   3.247   3.303   3.303   3.330   3.336   3.376   3.376
  3.434   3.442   3.443   3.524   3.528   3.528   3.557   3.557
  3.591   3.670   3.706   3.707   3.742   3.742   3.808   3.808
  3.876   3.917   3.917   3.934   3.949   3.975   3.975   4.011
  4.040   4.040   4.165   4.176   4.176   4.176   4.210   4.232
  4.233   4.250   4.250   4.267   4.364   4.373   4.373   4.463
  4.491   4.491   4.591   4.591   4.607   4.607   4.608   4.673
  4.744   4.745   4.763   4.861   4.861   5.291   5.375   5.375
  5.561   5.649   5.649   5.675   5.681   5.687   5.687  23.947
 24.108  24.108  24.227  27.493  27.493  27.793  27.973  27.973
 27.987  28.021  28.044  28.044  28.258  28.355  28.355  40.789
 40.821  40.830  40.833  40.845  40.858  40.867  40.869  41.057
 41.061  41.061  41.066  41.068  41.078  41.094  41.096  41.120
 41.154  41.159  41.197
 --------------------------------------------------------------
 
          Ground-State Mulliken Net Atomic Charges

     Atom                 Charge (a.u.)
  ----------------------------------------
      1 C                     0.353633
      2 H                     0.080900
      3 C                    -0.449341
      4 H                     0.101631
      5 H                     0.101468
      6 H                     0.101416
      7 C                    -0.449296
      8 H                     0.101658
      9 H                     0.101405
     10 H                     0.101294
     11 C                    -0.449023
     12 H                     0.101566
     13 H                     0.101321
     14 H                     0.101367
  ----------------------------------------
  Sum of atomic charges =     0.000000

 -----------------------------------------------------------------
                    Cartesian Multipole Moments
 -----------------------------------------------------------------
    Charge (ESU x 10^10)
                 0.0000
    Dipole Moment (Debye)
         X       0.0000      Y       0.0000      Z       0.1455
       Tot       0.1455
    Quadrupole Moments (Debye-Ang)
        XX     -29.1986     XY       0.0008     YY     -29.2014
        XZ       0.0003     YZ       0.0005     ZZ     -28.6633
    Octapole Moments (Debye-Ang^2)
       XXX      -1.8766    XXY      -0.0013    XYY       1.8765
       YYY      -0.0039    XXZ      12.2672    XYZ      -0.0003
       YYZ      12.2680    XZZ       0.0012    YZZ      -0.0013
       ZZZ      31.3037
    Hexadecapole Moments (Debye-Ang^3)
      XXXX    -220.0759   XXXY       0.0053   XXYY     -73.3589
      XYYY       0.0045   YYYY    -220.1165   XXXZ      -0.3611
      XXYZ       0.0011   XYYZ       0.3666   YYYZ       0.0031
      XXZZ     -54.3896   XYZZ       0.0013   YYZZ     -54.3910
      XZZZ       0.0002   YZZZ       0.0029   ZZZZ     -91.1924
 -----------------------------------------------------------------
 Total job time:  222.03s(wall), 221.39s(cpu) 
 Mon Jul  8 12:36:09 2013

        *************************************************************
        *                                                           *
        *  Thank you very much for using Q-Chem.  Have a nice day.  *
        *                                                           *
        *************************************************************


0 sent ACK to 0 
now end server 0 ... 
 
**********************************************************************
Job 3 of 3 
**********************************************************************
 
Process 0 of 1 is on cl019.stfx.acenet.ca - thread support 1
initial socket setup ...start
initial socket setup ...done 
now start server 0 ... 

cmd = /usr/bin/ssh clhead /usr/local/qchem/bin/get_hostid 75375504 > /scratch/tmp/6064831.1.short.q/qchem20550/lic.dat
                  Welcome to Q-Chem
     A Quantum Leap Into The Future Of Chemistry

 Y. Shao, L. Fusti-Molnar, Y. Jung, J. Kussmann, C. Ochsenfeld,
 S. T. Brown, A. T. B. Gilbert, L. V. Slipchenko,S. V. Levchenko,
 D. P. O'Neill, R. A. DiStasio Jr., R. C. Lochan, T. Wang,
 G. J. O. Beran, N. A. Besley, J. M. Herbert, C. Y. Lin,
 T. Van Voorhis, S. H. Chien, A. Sodt, R. P. Steele, 
 V. A. Rassolov, P. E. Maslen, P. P. Korambath, R. D. Adamson,
 B. Austin, J. Baker, E. F. C. Byrd, H. Dachsel, R. J. Doerksen,
 A. Dreuw, B. D. Dunietz, A. D. Dutoi, T. R. Furlani,
 S. R. Gwaltney, A. Heyden, S. Hirata, C.-P. Hsu, G. Kedziora,
 R. Z. Khaliullin, P. Klunzinger, A. M. Lee, M. S. Lee, W. Liang,
 I. Lotan, N. Nair, B. Peters, E. I. Proynov, P. A. Pieniazek, 
 Y. M. Rhee, J. Ritchie, E. Rosta, C. D. Sherrill, 
 A. C. Simmonett, J. E. Subotnik, H. L. Woodcock III,
 W. Zhang, A. T. Bell, A. K. Chakraborty, D. M. Chipman,
 F. J. Keil, A. Warshel, W. J. Hehre, H. F. Schaefer III,
 J. Kong, A. I. Krylov, P. M. W. Gill, M. Head-Gordon,
 Q-Chem, Version 3.1, Q-Chem, Inc., Pittsburgh, PA (2007).

 Additional authors for Version 3.1: 
 Z. Gan, Y. Zhao, N. E. Schultz, D. Truhlar, E. Epifanovsky and M. Oana.

 Additional authors for Version 3.2: 
 R. Baer, B. R. Brooks, D. Casanova, J.-D. Chai, C.-L. Cheng, 
 C. Cramer, D. Crittenden, A. Ghysels, G. Hawkins, E. G. Hohenstein, 
 C. Kelley, W. Kurlancheek, D. Liotard, E. Livshits, P. Manohar, 
 A. Marenich, D. Neuhauser, R. Olson, M. A. Rohrdanz, K. S. Thanthiriwatte, 
 A. J. W. Thom, V. Vanovschi, C. F. Williams, Q. Wu and Z.-Q. You. 


 Intel X86 Linux Version

 Q-chem begins on Mon Jul  8 12:36:12 2013  

 Parallel job on  1  processors
Processing $rem in /usr/local/qchem/config/preferences.

theFileMan(): MAXOPENFILES=974 MAX_SUB_FILE_NUM=16
Maximum size of a physical file is 2.0 GB, maximum size of a tmp-file is 32.0 GB


--------------------------------------------------------------
User input:
--------------------------------------------------------------

$molecule
1,2
C         -0.00003        0.00000        0.00516
H         -0.00008        0.00000        1.10218
C          1.44812        0.00000       -0.46687
H          1.49471        0.00000       -1.56081
H          1.98381        0.88422       -0.11143
H          1.98381       -0.88422       -0.11143
C         -0.72414       -1.25418       -0.46676
H         -0.74732       -1.29470       -1.56072
H         -0.22592       -2.15997       -0.11132
H         -1.75778       -1.27628       -0.11148
C         -0.72414        1.25418       -0.46676
H         -0.74732        1.29470       -1.56072
H         -1.75778        1.27628       -0.11148
H         -0.22592        2.15997       -0.11132
$end

$comment
positive
$end

$xc_functional
C PBE   1.00
X wPBE  1.00
$end

$rem
SYMMETRY_DECOMPOSITION	0
LRC_DFT                 true
exchange 		general
BASIS                   g3large
omega			100
mem_static              760
max_scf_cycles          200
scf_final_print         1
sym_ignore              true
$end

--------------------------------------------------------------
 Writing REM_CC_EA           14
 ----------------------------------------------------
       Standard Nuclear Orientation (Angstroms)
    I     Atom         X            Y            Z
 ----------------------------------------------------
    1      C      -0.000030     0.000000     0.005160
    2      H      -0.000080     0.000000     1.102180
    3      C       1.448120     0.000000    -0.466870
    4      H       1.494710     0.000000    -1.560810
    5      H       1.983810     0.884220    -0.111430
    6      H       1.983810    -0.884220    -0.111430
    7      C      -0.724140    -1.254180    -0.466760
    8      H      -0.747320    -1.294700    -1.560720
    9      H      -0.225920    -2.159970    -0.111320
   10      H      -1.757780    -1.276280    -0.111480
   11      C      -0.724140     1.254180    -0.466760
   12      H      -0.747320     1.294700    -1.560720
   13      H      -1.757780     1.276280    -0.111480
   14      H      -0.225920     2.159970    -0.111320
 ----------------------------------------------------
 Nuclear Repulsion Energy =   135.0123242027 hartrees
 There are       17 alpha and       16 beta electrons
 Requested basis set is G3large
 There are 100 shells and 268 basis functions

Total QAlloc Memory Limit   2000 MB
Mega-Array Size       743 MB
MEM_STATIC part       760 MB

                       Distance Matrix (Angstroms)
             C (  1)   H (  2)   C (  3)   H (  4)   H (  5)   H (  6)
   H (  2)  1.097020
   C (  3)  1.523138  2.135229
   H (  4)  2.164835  3.053836  1.094932
   H (  5)  2.175100  2.488074  1.093228  1.766852
   H (  6)  2.175100  2.488074  1.093228  1.766852  1.768440
   C (  7)  1.523158  2.135135  2.508322  2.773663  3.468718  2.756106
   H (  8)  2.164872  3.053793  2.773574  2.589005  3.782487  3.118975
   H (  9)  2.174871  2.487781  2.755775  3.118823  3.761649  2.551557
   H ( 10)  2.175358  2.488246  3.468860  3.782610  4.320562  3.762075
   C ( 11)  1.523158  2.135135  2.508322  2.773663  2.756106  3.468718
   H ( 12)  2.164872  3.053793  2.773574  2.589005  3.118975  3.782487
   H ( 13)  2.175358  2.488246  3.468860  3.782610  3.762075  4.320562
   H ( 14)  2.174871  2.487781  2.755775  3.118823  2.551557  3.761649
             C (  7)   H (  8)   H (  9)   H ( 10)   C ( 11)   H ( 12)
   H (  8)  1.094956
   H (  9)  1.093168  1.766723
   H ( 10)  1.093217  1.766824  1.768475
   C ( 11)  2.508360  2.773820  3.468570  2.756422
   H ( 12)  2.773820  2.589400  3.782508  3.119497  1.094956
   H ( 13)  2.756422  3.119497  3.762235  2.552560  1.093217  1.766824
   H ( 14)  3.468570  3.782508  4.319940  3.762235  1.093168  1.766723
             H ( 13)
   H ( 14)  1.768475
 
 A cutoff of  1.0D-08 yielded   4705 shell pairs
 There are  33835 function pairs ( 40339 Cartesian)
Evaluating contribution to one-electron hamiltonian from nuclear
 Smallest overlap matrix eigenvalue = 3.15E-05

 Q-Chem warning in module mkSTV.C, line 194:

 Overlap eigenvalue is smaller than square root of threshold

 Multipole matrices computed through 2nd order

  Scale SEOQF with 1.000000e-01/1.000000e-01/1.000000e-01

 Standard Electronic Orientation quadrupole field applied
 Nucleus-field energy     =     0.0000000026 hartrees
 Guess from superposition of atomic densities
 Warning:  Energy on first SCF cycle will be non-variational
 Long-range K will be added via erf
 Coulomb attenuation parameter = 0.1 bohr**(-1)
 An unrestricted Kohn-Sham SCF calculation will be
 performed using Pulay DIIS extrapolation
 Exchange:  wPBE + LR-HF      Correlation:  PBE
 Using SG-1 standard quadrature grid
 SCF converges when DIIS error is below 1.0E-05
 Requested basis set is G3large
 There are 100 shells and 268 basis functions
 A cutoff of  1.0D-08 yielded   4705 shell pairs
 There are  33835 function pairs ( 40339 Cartesian)
 Warning!  Inaccurate integrated density:
   Number of electrons =    33
   Numerical integral  =    34.000126056514
   Relative error      =     3.0306850197 %
 ---------------------------------------
  Cycle       Energy         DIIS Error
 ---------------------------------------
    1    -158.8125968648      2.64E-02
    2    -157.7921443518      3.20E-03
    3    -157.7893457535      3.22E-03
    4    -157.8827453136      4.65E-04
    5    -157.8845494224      1.97E-04
    6    -157.8849469549      3.94E-05
    7    -157.8849761372      1.36E-05
    8    -157.8849946956      9.04E-06 Convergence criterion met
 ---------------------------------------
 One-Electron    Energy =  -470.6032601705
 Total Coulomb   Energy =   202.6293518722
 Alpha Exchange  Energy =    -0.9481643364
 Beta  Exchange  Energy =    -0.8908009790
 DFT   Exchange  Energy =   -22.0322238121
 DFT Correlation Energy =    -1.0522214750
 Nuclear Repu.   Energy =   135.0123242052
 Nuclear Attr.   Energy =  -627.9672782599
 Kinetic         Energy =   157.3640180894
 <S^2> = 0.7516
 SCF time:  CPU 320.73 s  wall 321.54 s
 Final Alpha MO Eigenvalues
            1           2           3           4           5           6
    1 -10.2097463 -10.1524867 -10.1509893 -10.1481283  -1.0403396  -0.9040855
            7           8           9          10          11          12
    1  -0.9034364  -0.8138389  -0.7115659  -0.6711606  -0.6693726  -0.6268480
           13          14          15          16          17          18
    1  -0.6227297  -0.5942220  -0.5890445  -0.5736590  -0.5698900  -0.1364336
           19          20          21          22
    1  -0.1117121  -0.0937227  -0.0935065  -0.0776331
 Final Beta MO Eigenvalues
            1           2           3           4           5           6
    1 -10.2063585 -10.1504941 -10.1492315 -10.1469886  -1.0293465  -0.8968175
            7           8           9          10          11          12
    1  -0.8964016  -0.7925134  -0.6993334  -0.6645753  -0.6636763  -0.6123449
           13          14          15          16          17          18
    1  -0.6120838  -0.5857301  -0.5686166  -0.5667949  -0.4609435  -0.1319455
           19          20          21
    1  -0.1038543  -0.0918145  -0.0915370
 Analysis of SCF Wavefunction
 
 --------------------------------------------------------------
                    Orbital Energies (a.u.)
 --------------------------------------------------------------
 
 Alpha MOs
 -- Occupied --
-10.210 -10.152 -10.151 -10.148  -1.040  -0.904  -0.903  -0.814
 -0.712  -0.671  -0.669  -0.627  -0.623  -0.594  -0.589  -0.574
 -0.570
 -- Virtual --
 -0.136  -0.112  -0.094  -0.094  -0.078  -0.070  -0.069  -0.050
 -0.050  -0.050  -0.034  -0.034  -0.015  -0.013  -0.011  -0.011
  0.005   0.015   0.015   0.019   0.031   0.032   0.035   0.045
  0.045   0.057   0.059   0.060   0.075   0.075   0.075   0.078
  0.093   0.111   0.111   0.163   0.164   0.165   0.232   0.245
  0.246   0.300   0.308   0.309   0.317   0.325   0.325   0.377
  0.381   0.385   0.386   0.393   0.403   0.404   0.406   0.418
  0.419   0.443   0.443   0.466   0.511   0.515   0.516   0.531
  0.553   0.553   0.622   0.649   0.649   0.671   0.704   0.706
  0.768   0.775   0.814   0.815   0.863   0.865   0.894   0.934
  0.936   0.936   0.954   0.989   0.991   1.029   1.068   1.068
  1.071   1.073   1.119   1.126   1.128   1.137   1.138   1.150
  1.169   1.192   1.192   1.255   1.260   1.264   1.265   1.326
  1.369   1.369   1.378   1.391   1.392   1.403   1.436   1.436
  1.486   1.491   1.492   2.154   2.157   2.249   2.303   2.304
  2.316   2.390   2.447   2.449   2.467   2.467   2.476   2.552
  2.576   2.578   2.636   2.671   2.674   2.688   2.690   2.721
  2.774   2.775   2.781   2.875   2.876   2.910   2.995   3.020
  3.020   3.022   3.070   3.071   3.086   3.115   3.146   3.147
  3.197   3.211   3.211   3.297   3.300   3.302   3.322   3.325
  3.360   3.432   3.466   3.470   3.505   3.509   3.568   3.569
  3.633   3.677   3.679   3.690   3.715   3.743   3.744   3.787
  3.795   3.795   3.926   3.941   3.941   3.953   3.979   4.007
  4.009   4.011   4.019   4.021   4.141   4.143   4.145   4.237
  4.243   4.244   4.354   4.355   4.381   4.382   4.385   4.430
  4.489   4.489   4.528   4.623   4.626   5.055   5.136   5.138
  5.273   5.415   5.417   5.441   5.455   5.467   5.469  23.694
 23.874  23.877  23.975  27.239  27.240  27.536  27.739  27.740
 27.756  27.786  27.812  27.814  28.006  28.104  28.106  40.535
 40.563  40.586  40.600  40.601  40.612  40.632  40.633  40.791
 40.808  40.821  40.827  40.829  40.832  40.859  40.862  40.870
 40.921  40.925  40.947
 
 Beta MOs
 -- Occupied --
-10.206 -10.150 -10.149 -10.147  -1.029  -0.897  -0.896  -0.793
 -0.699  -0.665  -0.664  -0.612  -0.612  -0.586  -0.569  -0.567
 -- Virtual --
 -0.461  -0.132  -0.104  -0.092  -0.092  -0.074  -0.068  -0.068
 -0.048  -0.048  -0.047  -0.030  -0.030  -0.014  -0.010  -0.009
 -0.001   0.008   0.017   0.017   0.021   0.032   0.033   0.039
  0.047   0.047   0.062   0.063   0.067   0.076   0.078   0.079
  0.082   0.095   0.113   0.114   0.167   0.168   0.170   0.239
  0.250   0.250   0.306   0.311   0.312   0.325   0.328   0.328
  0.381   0.391   0.391   0.392   0.398   0.408   0.408   0.408
  0.421   0.422   0.448   0.448   0.473   0.520   0.520   0.522
  0.535   0.561   0.561   0.625   0.653   0.653   0.677   0.713
  0.714   0.771   0.779   0.818   0.818   0.867   0.867   0.902
  0.939   0.945   0.946   0.959   0.995   0.996   1.039   1.073
  1.073   1.076   1.077   1.126   1.131   1.132   1.145   1.146
  1.152   1.176   1.198   1.199   1.260   1.271   1.271   1.275
  1.338   1.375   1.375   1.380   1.399   1.399   1.408   1.441
  1.442   1.497   1.498   1.499   2.162   2.163   2.267   2.309
  2.310   2.321   2.400   2.457   2.458   2.473   2.474   2.498
  2.556   2.590   2.591   2.656   2.677   2.678   2.695   2.696
  2.727   2.783   2.783   2.792   2.884   2.885   2.921   3.003
  3.024   3.027   3.028   3.081   3.081   3.102   3.119   3.151
  3.152   3.209   3.219   3.220   3.304   3.307   3.307   3.332
  3.334   3.369   3.442   3.474   3.476   3.514   3.516   3.579
  3.581   3.649   3.687   3.688   3.704   3.723   3.751   3.752
  3.790   3.816   3.816   3.936   3.952   3.952   3.960   3.990
  4.018   4.020   4.030   4.031   4.031   4.147   4.153   4.153
  4.247   4.261   4.261   4.365   4.366   4.387   4.387   4.391
  4.446   4.511   4.512   4.531   4.631   4.633   5.066   5.145
  5.145   5.313   5.429   5.430   5.457   5.460   5.472   5.473
 23.697  23.877  23.879  23.979  27.242  27.243  27.543  27.742
 27.744  27.757  27.789  27.813  27.815  28.012  28.107  28.108
 40.537  40.572  40.588  40.602  40.603  40.617  40.636  40.637
 40.798  40.814  40.824  40.830  40.833  40.834  40.861  40.865
 40.875  40.922  40.927  40.949
 --------------------------------------------------------------
 
          Ground-State Mulliken Net Atomic Charges

     Atom                 Charge (a.u.)    Spin (a.u.)
  --------------------------------------------------------
      1 C                     0.269213       0.209220
      2 H                     0.240238       0.207478
      3 C                    -0.343171       0.087457
      4 H                     0.182863       0.084544
      5 H                     0.162787       0.019832
      6 H                     0.154132      -0.002651
      7 C                    -0.343292       0.097776
      8 H                     0.182279       0.082910
      9 H                     0.154632      -0.002739
     10 H                     0.160588       0.012331
     11 C                    -0.337354       0.057758
     12 H                     0.189593       0.097936
     13 H                     0.162410       0.020255
     14 H                     0.165082       0.027893
  --------------------------------------------------------
  Sum of atomic charges =     1.000000
  Sum of spin   charges =     1.000000

 -----------------------------------------------------------------
                    Cartesian Multipole Moments
 -----------------------------------------------------------------
    Charge (ESU x 10^10)
                 4.8032
    Dipole Moment (Debye)
         X      -0.0575      Y       0.1447      Z      -1.6902
       Tot       1.6973
    Quadrupole Moments (Debye-Ang)
        XX     -19.2181     XY      -0.0286     YY     -19.0459
        XZ      -0.1130     YZ       0.2675     ZZ     -20.1642
    Octapole Moments (Debye-Ang^2)
       XXX       2.1401    XXY       0.1939    XYY      -2.4110
       YYY       0.5807    XXZ       7.0347    XYZ       0.0416
       YYZ       6.9623    XZZ       0.0550    YZZ      -0.1465
       ZZZ      22.0339
    Hexadecapole Moments (Debye-Ang^3)
      XXXX    -166.3275   XXXY       0.0038   XXYY     -55.2521
      XYYY      -0.2089   YYYY    -165.1596   XXXZ      -4.1999
      XXYZ       0.4052   XYYZ       3.4909   YYYZ       1.2156
      XXZZ     -40.8340   XYZZ      -0.1209   YYZZ     -40.6640
      XZZZ      -0.1295   YZZZ       0.3516   ZZZZ     -57.3728
 -----------------------------------------------------------------
 Total job time:  321.97s(wall), 321.14s(cpu) 
 Mon Jul  8 12:41:34 2013

        *************************************************************
        *                                                           *
        *  Thank you very much for using Q-Chem.  Have a nice day.  *
        *                                                           *
        *************************************************************


0 sent ACK to 0 
now end server 0 ... 
