Process 0 of 1 is on cl114.stfx.acenet.ca - thread support 1
initial socket setup ...start
initial socket setup ...done 
now start server 0 ... 

cmd = /usr/bin/ssh clhead /usr/local/qchem/bin/get_hostid 1472468896 > /scratch/tmp/6063470.1.short.q/qchem20100/lic.dat
                  Welcome to Q-Chem
     A Quantum Leap Into The Future Of Chemistry

 Y. Shao, L. Fusti-Molnar, Y. Jung, J. Kussmann, C. Ochsenfeld,
 S. T. Brown, A. T. B. Gilbert, L. V. Slipchenko,S. V. Levchenko,
 D. P. O'Neill, R. A. DiStasio Jr., R. C. Lochan, T. Wang,
 G. J. O. Beran, N. A. Besley, J. M. Herbert, C. Y. Lin,
 T. Van Voorhis, S. H. Chien, A. Sodt, R. P. Steele, 
 V. A. Rassolov, P. E. Maslen, P. P. Korambath, R. D. Adamson,
 B. Austin, J. Baker, E. F. C. Byrd, H. Dachsel, R. J. Doerksen,
 A. Dreuw, B. D. Dunietz, A. D. Dutoi, T. R. Furlani,
 S. R. Gwaltney, A. Heyden, S. Hirata, C.-P. Hsu, G. Kedziora,
 R. Z. Khaliullin, P. Klunzinger, A. M. Lee, M. S. Lee, W. Liang,
 I. Lotan, N. Nair, B. Peters, E. I. Proynov, P. A. Pieniazek, 
 Y. M. Rhee, J. Ritchie, E. Rosta, C. D. Sherrill, 
 A. C. Simmonett, J. E. Subotnik, H. L. Woodcock III,
 W. Zhang, A. T. Bell, A. K. Chakraborty, D. M. Chipman,
 F. J. Keil, A. Warshel, W. J. Hehre, H. F. Schaefer III,
 J. Kong, A. I. Krylov, P. M. W. Gill, M. Head-Gordon,
 Q-Chem, Version 3.1, Q-Chem, Inc., Pittsburgh, PA (2007).

 Additional authors for Version 3.1: 
 Z. Gan, Y. Zhao, N. E. Schultz, D. Truhlar, E. Epifanovsky and M. Oana.

 Additional authors for Version 3.2: 
 R. Baer, B. R. Brooks, D. Casanova, J.-D. Chai, C.-L. Cheng, 
 C. Cramer, D. Crittenden, A. Ghysels, G. Hawkins, E. G. Hohenstein, 
 C. Kelley, W. Kurlancheek, D. Liotard, E. Livshits, P. Manohar, 
 A. Marenich, D. Neuhauser, R. Olson, M. A. Rohrdanz, K. S. Thanthiriwatte, 
 A. J. W. Thom, V. Vanovschi, C. F. Williams, Q. Wu and Z.-Q. You. 


 Intel X86 Linux Version

 Q-chem begins on Sun Jul  7 08:37:39 2013  

 Parallel job on  1  processors
Processing $rem in /usr/local/qchem/config/preferences.

theFileMan(): MAXOPENFILES=974 MAX_SUB_FILE_NUM=16
Maximum size of a physical file is 2.0 GB, maximum size of a tmp-file is 32.0 GB


--------------------------------------------------------------
User input:
--------------------------------------------------------------

$molecule
-1,2
O          0.00816       -0.02102        0.02947
O         -0.02234       -0.00289        1.42617
H          0.94730        0.02358       -0.15428
H         -0.43370        0.84252        1.61004
$end

$comment
negative
$end

$xc_functional
C PBE   1.00
X wPBE  1.00
$end

$rem
SYMMETRY_DECOMPOSITION	0
exchange 		general
LRC_DFT                 true
BASIS                   g3large
omega			800
mem_static              760
max_scf_cycles          200
scf_final_print         1
sym_ignore              true
$end

--------------------------------------------------------------
 Writing REM_CC_EA            4
 ----------------------------------------------------
       Standard Nuclear Orientation (Angstroms)
    I     Atom         X            Y            Z
 ----------------------------------------------------
    1      O       0.008160    -0.021020     0.029470
    2      O      -0.022340    -0.002890     1.426170
    3      H       0.947300     0.023580    -0.154280
    4      H      -0.433700     0.842520     1.610040
 ----------------------------------------------------
 Nuclear Repulsion Energy =    37.8659903601 hartrees
 There are       10 alpha and        9 beta electrons
 Requested basis set is G3large
 There are 32 shells and 104 basis functions

Total QAlloc Memory Limit   2000 MB
Mega-Array Size       743 MB
MEM_STATIC part       760 MB

                       Distance Matrix (Angstroms)
             O (  1)   O (  2)   H (  3)
   O (  2)  1.397151
   H (  3)  0.957986  1.854380
   H (  4)  1.854493  0.957989  2.385508
 
 A cutoff of  1.0D-08 yielded    522 shell pairs
 There are   5558 function pairs (  6945 Cartesian)
Evaluating contribution to one-electron hamiltonian from nuclear
 Smallest overlap matrix eigenvalue = 1.05E-03
 Multipole matrices computed through 2nd order

  Scale SEOQF with 1.000000e-01/1.000000e+00/1.000000e-01

 Standard Electronic Orientation quadrupole field applied
 Nucleus-field energy     =    -0.0000000015 hartrees
 Guess from superposition of atomic densities
 Warning:  Energy on first SCF cycle will be non-variational
 Long-range K will be added via erf
 Coulomb attenuation parameter = 0.8 bohr**(-1)
 An unrestricted Kohn-Sham SCF calculation will be
 performed using Pulay DIIS extrapolation
 Exchange:  wPBE + LR-HF      Correlation:  PBE
 Using SG-1 standard quadrature grid
 SCF converges when DIIS error is below 1.0E-05
 Requested basis set is G3large
 There are 32 shells and 104 basis functions
 A cutoff of  1.0D-08 yielded    522 shell pairs
 There are   5558 function pairs (  6945 Cartesian)
 Warning!  Inaccurate integrated density:
   Number of electrons =    19
   Numerical integral  =    18.000022368251
   Relative error      =    -5.2630401671 %
 ---------------------------------------
  Cycle       Energy         DIIS Error
 ---------------------------------------
    1    -151.6616446546      4.17E-02
    2    -151.2428035042      1.07E-02
    3    -151.2730099288      1.34E-02
    4    -151.4359440135      2.37E-03
    5    -151.4547997872      1.48E-03
    6    -151.4669551633      5.63E-04
    7    -151.4737540580      2.02E-04
    8    -151.4756575419      1.79E-04
    9    -151.4772120650      1.41E-04
   10    -151.4796795426      1.06E-04
   11    -151.4802559112      1.02E-04
   12    -151.4820211871      1.66E-04
   13    -151.4822086423      9.64E-05
   14    -151.4825614610      6.78E-05
   15    -151.4827032090      3.84E-05
   16    -151.4827822485      2.22E-05
   17    -151.4828399494      1.53E-05
   18    -151.4828627073      1.18E-05
   19    -151.4828727465      9.52E-06 Convergence criterion met
 ---------------------------------------
 One-Electron    Energy =  -286.7260794112
 Total Coulomb   Energy =   115.2946364761
 Alpha Exchange  Energy =    -3.2228824412
 Beta  Exchange  Energy =    -3.1352051369
 DFT   Exchange  Energy =   -10.9462885080
 DFT Correlation Energy =    -0.6130440838
 Nuclear Repu.   Energy =    37.8659903586
 Nuclear Attr.   Energy =  -437.9495680186
 Kinetic         Energy =   151.2234886074
 <S^2> = 0.7501
 SCF time:  CPU 41.62 s  wall 43.29 s
 Final Alpha MO Eigenvalues
            1           2           3           4           5           6
    1 -19.0509633 -19.0482773  -1.2578637  -0.9775477  -0.5717433  -0.5394081
            7           8           9          10          11          12
    1  -0.4608619  -0.3389031  -0.3024391   0.0340527   0.1575246   0.3105940
           13          14          15
    1   0.3590571   0.3803782   0.3841005
 Final Beta MO Eigenvalues
            1           2           3           4           5           6
    1 -19.0505128 -19.0477147  -1.2565100  -0.9740897  -0.5682319  -0.5388175
            7           8           9          10          11          12
    1  -0.4599352  -0.3386960  -0.3019760   0.1745128   0.1858513   0.3150457
           13          14
    1   0.3691796   0.3860662
 Analysis of SCF Wavefunction
 
 --------------------------------------------------------------
                    Orbital Energies (a.u.)
 --------------------------------------------------------------
 
 Alpha MOs
 -- Occupied --
-19.051 -19.048  -1.258  -0.978  -0.572  -0.539  -0.461  -0.339
 -0.302   0.034
 -- Virtual --
  0.158   0.311   0.359   0.380   0.384   0.407   0.408   0.424
  0.426   0.486   0.513   0.563   0.819   0.834   0.964   0.975
  1.079   1.118   1.183   1.202   1.291   1.379   1.402   1.421
  1.640   1.708   1.740   1.822   1.879   1.893   2.087   2.185
  2.257   2.485   2.525   2.538   2.626   2.872   3.080   3.147
  3.965   4.061   4.067   4.210   4.535   4.542   4.877   4.915
  4.971   5.184   5.254   5.331   5.359   5.495   5.546   5.604
  5.630   5.856   5.936   5.989   6.086   6.451   6.460   7.178
  7.239   7.288   7.321   7.356   7.502   7.599   7.647   7.694
  7.836   7.897   8.169   8.269  44.102  44.123  44.134  44.153
 44.154  44.196  44.226  44.258  44.278  44.377  45.880  45.926
 45.959  46.416  46.517  47.167  50.121  50.163
 
 Beta MOs
 -- Occupied --
-19.051 -19.048  -1.257  -0.974  -0.568  -0.539  -0.460  -0.339
 -0.302
 -- Virtual --
  0.175   0.186   0.315   0.369   0.386   0.391   0.407   0.408
  0.423   0.427   0.488   0.511   0.561   0.815   0.832   0.965
  0.976   1.081   1.117   1.182   1.202   1.290   1.379   1.401
  1.421   1.640   1.709   1.739   1.822   1.879   1.894   2.087
  2.186   2.258   2.486   2.525   2.538   2.626   2.872   3.079
  3.147   3.965   4.061   4.067   4.210   4.536   4.543   4.877
  4.915   4.971   5.185   5.255   5.331   5.359   5.496   5.547
  5.604   5.630   5.856   5.936   5.989   6.086   6.452   6.461
  7.179   7.240   7.290   7.321   7.357   7.504   7.600   7.647
  7.695   7.837   7.898   8.171   8.271  44.102  44.124  44.134
 44.153  44.155  44.196  44.227  44.258  44.279  44.378  45.881
 45.926  45.960  46.416  46.518  47.168  50.122  50.164
 --------------------------------------------------------------
 
          Ground-State Mulliken Net Atomic Charges

     Atom                 Charge (a.u.)    Spin (a.u.)
  --------------------------------------------------------
      1 O                    -0.118397      -0.171237
      2 O                    -0.094107      -0.195072
      3 H                    -0.282127       0.565430
      4 H                    -0.505369       0.800880
  --------------------------------------------------------
  Sum of atomic charges =    -1.000000
  Sum of spin   charges =     1.000000

 -----------------------------------------------------------------
                    Cartesian Multipole Moments
 -----------------------------------------------------------------
    Charge (ESU x 10^10)
                -4.8032
    Dipole Moment (Debye)
         X      -0.4985      Y      -2.8180      Z      -4.4007
       Tot       5.2494
    Quadrupole Moments (Debye-Ang)
        XX     -28.5272     XY      -0.0608     YY     -30.3022
        XZ       0.3835     YZ      -3.3509     ZZ     -31.7408
    Octapole Moments (Debye-Ang^2)
       XXX     -11.4449    XXY     -11.7972    XYY      -3.3046
       YYY     -35.7198    XXZ     -23.6206    XYZ       0.5344
       YYZ     -25.7201    XZZ      -2.1243    YZZ     -15.0737
       ZZZ     -72.0511
    Hexadecapole Moments (Debye-Ang^3)
      XXXX    -172.0185   XXXY       6.2581   XXYY     -59.0069
      XYYY       6.5595   YYYY    -181.2649   XXXZ      17.1207
      XXYZ     -15.7604   XYYZ       6.5838   YYYZ     -47.7847
      XXZZ     -81.5273   XYZZ       3.3312   YYZZ     -85.8144
      XZZZ      19.1191   YZZZ     -49.5268   ZZZZ    -308.3913
 -----------------------------------------------------------------
 Total job time:  43.50s(wall), 41.73s(cpu) 
 Sun Jul  7 08:38:22 2013

        *************************************************************
        *                                                           *
        *  Thank you very much for using Q-Chem.  Have a nice day.  *
        *                                                           *
        *************************************************************


0 sent ACK to 0 
now end server 0 ... 
 
**********************************************************************
Job 2 of 3 
**********************************************************************
 
Process 0 of 1 is on cl114.stfx.acenet.ca - thread support 1
initial socket setup ...start
initial socket setup ...done 
now start server 0 ... 

cmd = /usr/bin/ssh clhead /usr/local/qchem/bin/get_hostid 826343671 > /scratch/tmp/6063470.1.short.q/qchem20100/lic.dat
                  Welcome to Q-Chem
     A Quantum Leap Into The Future Of Chemistry

 Y. Shao, L. Fusti-Molnar, Y. Jung, J. Kussmann, C. Ochsenfeld,
 S. T. Brown, A. T. B. Gilbert, L. V. Slipchenko,S. V. Levchenko,
 D. P. O'Neill, R. A. DiStasio Jr., R. C. Lochan, T. Wang,
 G. J. O. Beran, N. A. Besley, J. M. Herbert, C. Y. Lin,
 T. Van Voorhis, S. H. Chien, A. Sodt, R. P. Steele, 
 V. A. Rassolov, P. E. Maslen, P. P. Korambath, R. D. Adamson,
 B. Austin, J. Baker, E. F. C. Byrd, H. Dachsel, R. J. Doerksen,
 A. Dreuw, B. D. Dunietz, A. D. Dutoi, T. R. Furlani,
 S. R. Gwaltney, A. Heyden, S. Hirata, C.-P. Hsu, G. Kedziora,
 R. Z. Khaliullin, P. Klunzinger, A. M. Lee, M. S. Lee, W. Liang,
 I. Lotan, N. Nair, B. Peters, E. I. Proynov, P. A. Pieniazek, 
 Y. M. Rhee, J. Ritchie, E. Rosta, C. D. Sherrill, 
 A. C. Simmonett, J. E. Subotnik, H. L. Woodcock III,
 W. Zhang, A. T. Bell, A. K. Chakraborty, D. M. Chipman,
 F. J. Keil, A. Warshel, W. J. Hehre, H. F. Schaefer III,
 J. Kong, A. I. Krylov, P. M. W. Gill, M. Head-Gordon,
 Q-Chem, Version 3.1, Q-Chem, Inc., Pittsburgh, PA (2007).

 Additional authors for Version 3.1: 
 Z. Gan, Y. Zhao, N. E. Schultz, D. Truhlar, E. Epifanovsky and M. Oana.

 Additional authors for Version 3.2: 
 R. Baer, B. R. Brooks, D. Casanova, J.-D. Chai, C.-L. Cheng, 
 C. Cramer, D. Crittenden, A. Ghysels, G. Hawkins, E. G. Hohenstein, 
 C. Kelley, W. Kurlancheek, D. Liotard, E. Livshits, P. Manohar, 
 A. Marenich, D. Neuhauser, R. Olson, M. A. Rohrdanz, K. S. Thanthiriwatte, 
 A. J. W. Thom, V. Vanovschi, C. F. Williams, Q. Wu and Z.-Q. You. 


 Intel X86 Linux Version

 Q-chem begins on Sun Jul  7 08:38:25 2013  

 Parallel job on  1  processors
Processing $rem in /usr/local/qchem/config/preferences.

theFileMan(): MAXOPENFILES=974 MAX_SUB_FILE_NUM=16
Maximum size of a physical file is 2.0 GB, maximum size of a tmp-file is 32.0 GB


--------------------------------------------------------------
User input:
--------------------------------------------------------------

$molecule
0,1
O          0.00816       -0.02102        0.02947
O         -0.02234       -0.00289        1.42617
H          0.94730        0.02358       -0.15428
H         -0.43370        0.84252        1.61004
$end

$comment
neutral
$end

$xc_functional
C PBE   1.00
X wPBE  1.00
$end


$rem
SYMMETRY_DECOMPOSITION	0
LRC_DFT                 true
exchange 		general
BASIS                   g3large
omega			800
mem_static              760
max_scf_cycles          200
scf_final_print         1
sym_ignore              true
$end

--------------------------------------------------------------
 Writing REM_CC_EA            4
 ----------------------------------------------------
       Standard Nuclear Orientation (Angstroms)
    I     Atom         X            Y            Z
 ----------------------------------------------------
    1      O       0.008160    -0.021020     0.029470
    2      O      -0.022340    -0.002890     1.426170
    3      H       0.947300     0.023580    -0.154280
    4      H      -0.433700     0.842520     1.610040
 ----------------------------------------------------
 Nuclear Repulsion Energy =    37.8659903601 hartrees
 There are        9 alpha and        9 beta electrons
 Requested basis set is G3large
 There are 32 shells and 104 basis functions

Total QAlloc Memory Limit   2000 MB
Mega-Array Size       743 MB
MEM_STATIC part       760 MB

                       Distance Matrix (Angstroms)
             O (  1)   O (  2)   H (  3)
   O (  2)  1.397151
   H (  3)  0.957986  1.854380
   H (  4)  1.854493  0.957989  2.385508
 
 A cutoff of  1.0D-08 yielded    522 shell pairs
 There are   5558 function pairs (  6945 Cartesian)
Evaluating contribution to one-electron hamiltonian from nuclear
 Smallest overlap matrix eigenvalue = 1.05E-03
 Multipole matrices computed through 2nd order

  Scale SEOQF with 1.000000e-01/1.000000e+00/1.000000e-01

 Standard Electronic Orientation quadrupole field applied
 Nucleus-field energy     =    -0.0000000015 hartrees
 Guess from superposition of atomic densities
 Warning:  Energy on first SCF cycle will be non-variational
 Long-range K will be added via erf
 Coulomb attenuation parameter = 0.8 bohr**(-1)
 A restricted Kohn-Sham SCF calculation will be
 performed using Pulay DIIS extrapolation
 Exchange:  wPBE + LR-HF      Correlation:  PBE
 Using SG-1 standard quadrature grid
 SCF converges when DIIS error is below 1.0E-05
 Requested basis set is G3large
 There are 32 shells and 104 basis functions
 A cutoff of  1.0D-08 yielded    522 shell pairs
 There are   5558 function pairs (  6945 Cartesian)
 ---------------------------------------
  Cycle       Energy         DIIS Error
 ---------------------------------------
    1    -151.6616446546      4.17E-02
    2    -151.4661468739      6.42E-03
    3    -151.5140651564      2.46E-03
    4    -151.5201417612      8.07E-04
    5    -151.5214632732      3.60E-04
    6    -151.5218293978      1.42E-04
    7    -151.5218690466      5.84E-05
    8    -151.5218772002      1.35E-05
    9    -151.5218780858      4.47E-06 Convergence criterion met
 ---------------------------------------
 One-Electron    Energy =  -283.5731304332
 Total Coulomb   Energy =   112.0086151598
 Alpha Exchange  Energy =    -3.1381498641
 Beta  Exchange  Energy =    -3.1381498641
 DFT   Exchange  Energy =   -10.9418060696
 DFT Correlation Energy =    -0.6052473732
 Nuclear Repu.   Energy =    37.8659903586
 Nuclear Attr.   Energy =  -434.7107006148
 Kinetic         Energy =   151.1375701816
 SCF time:  CPU 16.31 s  wall 16.84 s
 Final Alpha MO Eigenvalues
            1           2           3           4           5           6
    1 -19.2285963 -19.2283407  -1.4356548  -1.1545389  -0.7478858  -0.7163499
            7           8           9          10          11          12
    1  -0.6361157  -0.5166260  -0.4793135   0.0455473   0.0589472   0.1676794
           13          14
    1   0.2229128   0.2315012
 Analysis of SCF Wavefunction
 
 --------------------------------------------------------------
                    Orbital Energies (a.u.)
 --------------------------------------------------------------
 
 Alpha MOs
 -- Occupied --
-19.229 -19.228  -1.436  -1.155  -0.748  -0.716  -0.636  -0.517
 -0.479
 -- Virtual --
  0.046   0.059   0.168   0.223   0.232   0.238   0.262   0.267
  0.283   0.286   0.330   0.360   0.415   0.650   0.662   0.785
  0.796   0.901   0.941   1.017   1.037   1.127   1.211   1.232
  1.256   1.464   1.530   1.567   1.645   1.703   1.719   1.909
  2.008   2.081   2.310   2.349   2.362   2.450   2.697   2.905
  2.967   3.782   3.878   3.883   4.028   4.355   4.358   4.700
  4.738   4.795   5.008   5.077   5.155   5.182   5.318   5.369
  5.426   5.454   5.677   5.758   5.810   5.907   6.274   6.284
  7.001   7.062   7.111   7.144   7.179   7.323   7.419   7.470
  7.517   7.660   7.720   7.993   8.094  43.923  43.944  43.955
 43.976  43.976  44.017  44.047  44.079  44.100  44.198  45.702
 45.748  45.781  46.237  46.338  46.989  49.943  49.985
 --------------------------------------------------------------
 
          Ground-State Mulliken Net Atomic Charges

     Atom                 Charge (a.u.)
  ----------------------------------------
      1 O                    -0.277738
      2 O                    -0.277698
      3 H                     0.277738
      4 H                     0.277699
  ----------------------------------------
  Sum of atomic charges =     0.000000

 -----------------------------------------------------------------
                    Cartesian Multipole Moments
 -----------------------------------------------------------------
    Charge (ESU x 10^10)
                 0.0000
    Dipole Moment (Debye)
         X       0.9799      Y       1.6524      Z       0.0003
       Tot       1.9211
    Quadrupole Moments (Debye-Ang)
        XX      -9.8594     XY      -0.9332     YY     -10.8799
        XZ      -1.9588     YZ       2.7873     ZZ     -11.4473
    Octapole Moments (Debye-Ang^2)
       XXX       1.3706    XXY       0.1713    XYY      -0.8809
       YYY       0.6544    XXZ      -8.8686    XYZ      -1.6047
       YYZ      -6.2257    XZZ      -2.5803    YZZ       4.5148
       ZZZ     -24.9944
    Hexadecapole Moments (Debye-Ang^3)
      XXXX      -9.4422   XXXY       0.1184   XXYY      -3.4713
      XYYY      -0.4835   YYYY      -9.8417   XXXZ       0.6638
      XXYZ       0.1055   XYYZ      -0.7485   YYYZ       0.7565
      XXZZ     -15.8493   XYZZ      -2.5056   YYZZ     -12.1873
      XZZZ      -3.1216   YZZZ       6.6456   ZZZZ     -79.0214
 -----------------------------------------------------------------
 Total job time:  16.94s(wall), 16.41s(cpu) 
 Sun Jul  7 08:38:42 2013

        *************************************************************
        *                                                           *
        *  Thank you very much for using Q-Chem.  Have a nice day.  *
        *                                                           *
        *************************************************************


0 sent ACK to 0 
now end server 0 ... 
 
**********************************************************************
Job 3 of 3 
**********************************************************************
 
Process 0 of 1 is on cl114.stfx.acenet.ca - thread support 1
initial socket setup ...start
initial socket setup ...done 
now start server 0 ... 

cmd = /usr/bin/ssh clhead /usr/local/qchem/bin/get_hostid 1497895500 > /scratch/tmp/6063470.1.short.q/qchem20100/lic.dat
                  Welcome to Q-Chem
     A Quantum Leap Into The Future Of Chemistry

 Y. Shao, L. Fusti-Molnar, Y. Jung, J. Kussmann, C. Ochsenfeld,
 S. T. Brown, A. T. B. Gilbert, L. V. Slipchenko,S. V. Levchenko,
 D. P. O'Neill, R. A. DiStasio Jr., R. C. Lochan, T. Wang,
 G. J. O. Beran, N. A. Besley, J. M. Herbert, C. Y. Lin,
 T. Van Voorhis, S. H. Chien, A. Sodt, R. P. Steele, 
 V. A. Rassolov, P. E. Maslen, P. P. Korambath, R. D. Adamson,
 B. Austin, J. Baker, E. F. C. Byrd, H. Dachsel, R. J. Doerksen,
 A. Dreuw, B. D. Dunietz, A. D. Dutoi, T. R. Furlani,
 S. R. Gwaltney, A. Heyden, S. Hirata, C.-P. Hsu, G. Kedziora,
 R. Z. Khaliullin, P. Klunzinger, A. M. Lee, M. S. Lee, W. Liang,
 I. Lotan, N. Nair, B. Peters, E. I. Proynov, P. A. Pieniazek, 
 Y. M. Rhee, J. Ritchie, E. Rosta, C. D. Sherrill, 
 A. C. Simmonett, J. E. Subotnik, H. L. Woodcock III,
 W. Zhang, A. T. Bell, A. K. Chakraborty, D. M. Chipman,
 F. J. Keil, A. Warshel, W. J. Hehre, H. F. Schaefer III,
 J. Kong, A. I. Krylov, P. M. W. Gill, M. Head-Gordon,
 Q-Chem, Version 3.1, Q-Chem, Inc., Pittsburgh, PA (2007).

 Additional authors for Version 3.1: 
 Z. Gan, Y. Zhao, N. E. Schultz, D. Truhlar, E. Epifanovsky and M. Oana.

 Additional authors for Version 3.2: 
 R. Baer, B. R. Brooks, D. Casanova, J.-D. Chai, C.-L. Cheng, 
 C. Cramer, D. Crittenden, A. Ghysels, G. Hawkins, E. G. Hohenstein, 
 C. Kelley, W. Kurlancheek, D. Liotard, E. Livshits, P. Manohar, 
 A. Marenich, D. Neuhauser, R. Olson, M. A. Rohrdanz, K. S. Thanthiriwatte, 
 A. J. W. Thom, V. Vanovschi, C. F. Williams, Q. Wu and Z.-Q. You. 


 Intel X86 Linux Version

 Q-chem begins on Sun Jul  7 08:38:45 2013  

 Parallel job on  1  processors
Processing $rem in /usr/local/qchem/config/preferences.

theFileMan(): MAXOPENFILES=974 MAX_SUB_FILE_NUM=16
Maximum size of a physical file is 2.0 GB, maximum size of a tmp-file is 32.0 GB


--------------------------------------------------------------
User input:
--------------------------------------------------------------

$molecule
1,2
O          0.00816       -0.02102        0.02947
O         -0.02234       -0.00289        1.42617
H          0.94730        0.02358       -0.15428
H         -0.43370        0.84252        1.61004
$end

$comment
positive
$end

$xc_functional
C PBE   1.00
X wPBE  1.00
$end

$rem
SYMMETRY_DECOMPOSITION	0
LRC_DFT                 true
exchange 		general
BASIS                   g3large
omega			800
mem_static              760
max_scf_cycles          200
scf_final_print         1
sym_ignore              true
$end

--------------------------------------------------------------
 Writing REM_CC_EA            4
 ----------------------------------------------------
       Standard Nuclear Orientation (Angstroms)
    I     Atom         X            Y            Z
 ----------------------------------------------------
    1      O       0.008160    -0.021020     0.029470
    2      O      -0.022340    -0.002890     1.426170
    3      H       0.947300     0.023580    -0.154280
    4      H      -0.433700     0.842520     1.610040
 ----------------------------------------------------
 Nuclear Repulsion Energy =    37.8659903601 hartrees
 There are        9 alpha and        8 beta electrons
 Requested basis set is G3large
 There are 32 shells and 104 basis functions

Total QAlloc Memory Limit   2000 MB
Mega-Array Size       743 MB
MEM_STATIC part       760 MB

                       Distance Matrix (Angstroms)
             O (  1)   O (  2)   H (  3)
   O (  2)  1.397151
   H (  3)  0.957986  1.854380
   H (  4)  1.854493  0.957989  2.385508
 
 A cutoff of  1.0D-08 yielded    522 shell pairs
 There are   5558 function pairs (  6945 Cartesian)
Evaluating contribution to one-electron hamiltonian from nuclear
 Smallest overlap matrix eigenvalue = 1.05E-03
 Multipole matrices computed through 2nd order

  Scale SEOQF with 1.000000e-01/1.000000e+00/1.000000e-01

 Standard Electronic Orientation quadrupole field applied
 Nucleus-field energy     =    -0.0000000015 hartrees
 Guess from superposition of atomic densities
 Warning:  Energy on first SCF cycle will be non-variational
 Long-range K will be added via erf
 Coulomb attenuation parameter = 0.8 bohr**(-1)
 An unrestricted Kohn-Sham SCF calculation will be
 performed using Pulay DIIS extrapolation
 Exchange:  wPBE + LR-HF      Correlation:  PBE
 Using SG-1 standard quadrature grid
 SCF converges when DIIS error is below 1.0E-05
 Requested basis set is G3large
 There are 32 shells and 104 basis functions
 A cutoff of  1.0D-08 yielded    522 shell pairs
 There are   5558 function pairs (  6945 Cartesian)
 Warning!  Inaccurate integrated density:
   Number of electrons =    17
   Numerical integral  =    18.000022368251
   Relative error      =     5.8824845191 %
 ---------------------------------------
  Cycle       Energy         DIIS Error
 ---------------------------------------
    1    -151.6616446546      4.17E-02
    2    -150.9640855495      7.83E-03
    3    -151.0401052334      4.18E-03
    4    -151.0578970392      1.47E-03
    5    -151.0627017087      6.39E-04
    6    -151.0661071009      5.00E-04
    7    -151.0693275596      3.48E-04
    8    -151.0733021788      1.92E-04
    9    -151.0752574053      1.21E-04
   10    -151.0759363103      8.32E-05
   11    -151.0763151042      8.17E-05
   12    -151.0764616975      4.07E-05
   13    -151.0765019379      3.38E-05
   14    -151.0765528718      1.91E-05
   15    -151.0765787786      9.28E-06 Convergence criterion met
 ---------------------------------------
 One-Electron    Energy =  -276.2712576667
 Total Coulomb   Energy =   104.7326896176
 Alpha Exchange  Energy =    -3.1979782775
 Beta  Exchange  Energy =    -2.7965198566
 DFT   Exchange  Energy =   -10.8449306913
 DFT Correlation Energy =    -0.5645722628
 Nuclear Repu.   Energy =    37.8659903586
 Nuclear Attr.   Energy =  -426.9678749425
 Kinetic         Energy =   150.6966172758
 <S^2> = 0.7576
 SCF time:  CPU 32.35 s  wall 32.91 s
 Final Alpha MO Eigenvalues
            1           2           3           4           5           6
    1 -19.7325260 -19.6262160  -1.8685067  -1.5703457  -1.1691577  -1.1289665
            7           8           9          10          11          12
    1  -1.0776152  -0.9513772  -0.8902207  -0.1902478  -0.1559697  -0.1064001
           13          14
    1  -0.0169114  -0.0070569
 Final Beta MO Eigenvalues
            1           2           3           4           5           6
    1 -19.7096297 -19.6210444  -1.8210768  -1.5216828  -1.1336468  -1.0927706
            7           8           9          10          11          12
    1  -0.9679246  -0.8672435  -0.4032313  -0.1715663  -0.1530556  -0.1027147
           13
    1  -0.0117211
 Analysis of SCF Wavefunction
 
 --------------------------------------------------------------
                    Orbital Energies (a.u.)
 --------------------------------------------------------------
 
 Alpha MOs
 -- Occupied --
-19.733 -19.626  -1.869  -1.570  -1.169  -1.129  -1.078  -0.951
 -0.890
 -- Virtual --
 -0.190  -0.156  -0.106  -0.017  -0.007   0.007   0.009   0.044
  0.066   0.072   0.085   0.127   0.190   0.355   0.385   0.477
  0.488   0.593   0.625   0.706   0.727   0.818   0.849   0.915
  0.936   1.134   1.185   1.204   1.300   1.354   1.361   1.527
  1.640   1.687   1.934   1.976   2.006   2.098   2.336   2.542
  2.612   3.413   3.520   3.527   3.671   3.965   4.016   4.288
  4.319   4.392   4.589   4.649   4.657   4.787   4.868   4.973
  4.997   5.049   5.266   5.336   5.419   5.504   5.850   5.870
  6.570   6.595   6.639   6.712   6.763   6.905   7.009   7.039
  7.094   7.236   7.318   7.574   7.692  43.405  43.443  43.478
 43.509  43.562  43.592  43.608  43.632  43.669  43.766  45.233
 45.257  45.366  45.778  45.909  46.547  49.459  49.572
 
 Beta MOs
 -- Occupied --
-19.710 -19.621  -1.821  -1.522  -1.134  -1.093  -0.968  -0.867
 -- Virtual --
 -0.403  -0.172  -0.153  -0.103  -0.012   0.002   0.008   0.014
  0.046   0.074   0.075   0.088   0.128   0.192   0.363   0.392
  0.487   0.488   0.604   0.641   0.717   0.738   0.826   0.897
  0.928   0.944   1.149   1.202   1.228   1.314   1.365   1.375
  1.561   1.663   1.707   1.959   1.995   2.018   2.109   2.352
  2.549   2.620   3.422   3.522   3.535   3.677   3.975   4.025
  4.303   4.350   4.406   4.617   4.683   4.754   4.811   4.914
  4.992   5.030   5.069   5.291   5.364   5.437   5.520   5.879
  5.887   6.599   6.663   6.711   6.743   6.796   6.934   7.038
  7.079   7.129   7.265   7.332   7.590   7.704  43.459  43.494
 43.515  43.535  43.583  43.606  43.622  43.648  43.675  43.772
 45.264  45.292  45.378  45.792  45.918  46.555  49.482  49.578
 --------------------------------------------------------------
 
          Ground-State Mulliken Net Atomic Charges

     Atom                 Charge (a.u.)    Spin (a.u.)
  --------------------------------------------------------
      1 O                    -0.012947       0.150027
      2 O                     0.286054       0.848304
      3 H                     0.358469       0.016402
      4 H                     0.368423      -0.014733
  --------------------------------------------------------
  Sum of atomic charges =     1.000000
  Sum of spin   charges =     1.000000

 -----------------------------------------------------------------
                    Cartesian Multipole Moments
 -----------------------------------------------------------------
    Charge (ESU x 10^10)
                 4.8032
    Dipole Moment (Debye)
         X       1.0003      Y       1.9193      Z       4.3779
       Tot       4.8837
    Quadrupole Moments (Debye-Ang)
        XX      -7.1375     XY      -0.6675     YY      -8.4563
        XZ      -2.5117     YZ       3.4188     ZZ      -2.2938
    Octapole Moments (Debye-Ang^2)
       XXX       1.7394    XXY       0.3416    XYY      -1.0377
       YYY       1.2400    XXZ      -6.5030    XYZ      -1.3585
       YYZ      -3.8499    XZZ      -3.2846    YZZ       5.5406
       ZZZ      -9.6899
    Hexadecapole Moments (Debye-Ang^3)
      XXXX      -5.3817   XXXY       0.2300   XXYY      -2.2343
      XYYY      -0.4957   YYYY      -6.1584   XXXZ       0.0433
      XXYZ       0.3478   XYYZ      -1.1379   YYYZ       1.8594
      XXZZ     -10.7783   XYZZ      -2.0530   YYZZ      -7.1825
      XZZZ      -4.4175   YZZZ       8.5523   ZZZZ     -47.0258
 -----------------------------------------------------------------
 Total job time:  33.01s(wall), 32.44s(cpu) 
 Sun Jul  7 08:39:18 2013

        *************************************************************
        *                                                           *
        *  Thank you very much for using Q-Chem.  Have a nice day.  *
        *                                                           *
        *************************************************************


0 sent ACK to 0 
now end server 0 ... 
