Process 0 of 1 is on cl152.stfx.acenet.ca - thread support 1
initial socket setup ...start
initial socket setup ...done 
now start server 0 ... 

cmd = /usr/bin/ssh clhead /usr/local/qchem/bin/get_hostid 1627746995 > /scratch/tmp/6065161.1.medium.q/qchem32744/lic.dat
                  Welcome to Q-Chem
     A Quantum Leap Into The Future Of Chemistry

 Y. Shao, L. Fusti-Molnar, Y. Jung, J. Kussmann, C. Ochsenfeld,
 S. T. Brown, A. T. B. Gilbert, L. V. Slipchenko,S. V. Levchenko,
 D. P. O'Neill, R. A. DiStasio Jr., R. C. Lochan, T. Wang,
 G. J. O. Beran, N. A. Besley, J. M. Herbert, C. Y. Lin,
 T. Van Voorhis, S. H. Chien, A. Sodt, R. P. Steele, 
 V. A. Rassolov, P. E. Maslen, P. P. Korambath, R. D. Adamson,
 B. Austin, J. Baker, E. F. C. Byrd, H. Dachsel, R. J. Doerksen,
 A. Dreuw, B. D. Dunietz, A. D. Dutoi, T. R. Furlani,
 S. R. Gwaltney, A. Heyden, S. Hirata, C.-P. Hsu, G. Kedziora,
 R. Z. Khaliullin, P. Klunzinger, A. M. Lee, M. S. Lee, W. Liang,
 I. Lotan, N. Nair, B. Peters, E. I. Proynov, P. A. Pieniazek, 
 Y. M. Rhee, J. Ritchie, E. Rosta, C. D. Sherrill, 
 A. C. Simmonett, J. E. Subotnik, H. L. Woodcock III,
 W. Zhang, A. T. Bell, A. K. Chakraborty, D. M. Chipman,
 F. J. Keil, A. Warshel, W. J. Hehre, H. F. Schaefer III,
 J. Kong, A. I. Krylov, P. M. W. Gill, M. Head-Gordon,
 Q-Chem, Version 3.1, Q-Chem, Inc., Pittsburgh, PA (2007).

 Additional authors for Version 3.1: 
 Z. Gan, Y. Zhao, N. E. Schultz, D. Truhlar, E. Epifanovsky and M. Oana.

 Additional authors for Version 3.2: 
 R. Baer, B. R. Brooks, D. Casanova, J.-D. Chai, C.-L. Cheng, 
 C. Cramer, D. Crittenden, A. Ghysels, G. Hawkins, E. G. Hohenstein, 
 C. Kelley, W. Kurlancheek, D. Liotard, E. Livshits, P. Manohar, 
 A. Marenich, D. Neuhauser, R. Olson, M. A. Rohrdanz, K. S. Thanthiriwatte, 
 A. J. W. Thom, V. Vanovschi, C. F. Williams, Q. Wu and Z.-Q. You. 


 Intel X86 Linux Version

 Q-chem begins on Mon Jul  8 16:56:04 2013  

 Parallel job on  1  processors
Processing $rem in /usr/local/qchem/config/preferences.

theFileMan(): MAXOPENFILES=974 MAX_SUB_FILE_NUM=16
Maximum size of a physical file is 2.0 GB, maximum size of a tmp-file is 32.0 GB


--------------------------------------------------------------
User input:
--------------------------------------------------------------

$molecule
-1,2
O          0.01102        0.00000        0.02954
O          0.00996        0.00000        1.25840
O          1.09619        0.00000        1.83285
$end

$comment
negative
$end

$xc_functional
C PBE   1.00
X wPBE  1.00
$end

$rem
SYMMETRY_DECOMPOSITION	0
exchange 		general
LRC_DFT                 true
BASIS                   g3large
omega			440
mem_static              760
max_scf_cycles          200
scf_final_print         1
sym_ignore              true
$end

--------------------------------------------------------------
 Writing REM_CC_EA            3
 ----------------------------------------------------
       Standard Nuclear Orientation (Angstroms)
    I     Atom         X            Y            Z
 ----------------------------------------------------
    1      O       0.011020     0.000000     0.029540
    2      O       0.009960     0.000000     1.258400
    3      O       1.096190     0.000000     1.832850
 ----------------------------------------------------
 Nuclear Repulsion Energy =    71.2135568726 hartrees
 There are       13 alpha and       12 beta electrons
 Requested basis set is G3large
 There are 30 shells and 126 basis functions

Total QAlloc Memory Limit   2000 MB
Mega-Array Size       743 MB
MEM_STATIC part       760 MB

                       Distance Matrix (Angstroms)
             O (  1)   O (  2)
   O (  2)  1.228860
   O (  3)  2.104643  1.228775
 
 A cutoff of  1.0D-08 yielded    435 shell pairs
 There are   7848 function pairs ( 10313 Cartesian)
Evaluating contribution to one-electron hamiltonian from nuclear
 Smallest overlap matrix eigenvalue = 5.23E-04
 Multipole matrices computed through 2nd order

  Scale SEOQF with 1.000000e-01/1.000000e+00/1.000000e-01

 Standard Electronic Orientation quadrupole field applied
 Nucleus-field energy     =    -0.0000000039 hartrees
 Guess from superposition of atomic densities
 Warning:  Energy on first SCF cycle will be non-variational
 Long-range K will be added via erf
 Coulomb attenuation parameter = 0.44 bohr**(-1)
 An unrestricted Kohn-Sham SCF calculation will be
 performed using Pulay DIIS extrapolation
 Exchange:  wPBE + LR-HF      Correlation:  PBE
 Using SG-1 standard quadrature grid
 SCF converges when DIIS error is below 1.0E-05
 Requested basis set is G3large
 There are 30 shells and 126 basis functions
 A cutoff of  1.0D-08 yielded    435 shell pairs
 There are   7848 function pairs ( 10313 Cartesian)
 Warning!  Inaccurate integrated density:
   Number of electrons =    25
   Numerical integral  =    23.999877269493
   Relative error      =    -4.0004909220 %
 ---------------------------------------
  Cycle       Energy         DIIS Error
 ---------------------------------------
    1    -225.6845856846      3.85E-02
    2    -225.2895577172      8.98E-03
    3    -225.3109438126      9.37E-03
    4    -225.4152241886      1.14E-03
    5    -225.4170492958      3.90E-04
    6    -225.4175442376      2.19E-04
    7    -225.4177455964      1.10E-04
    8    -225.4178407624      4.73E-05
    9    -225.4179209023      2.65E-05
   10    -225.4179635651      8.82E-06 Convergence criterion met
 ---------------------------------------
 One-Electron    Energy =  -458.4404148879
 Total Coulomb   Energy =   187.6366786750
 Alpha Exchange  Energy =    -2.9033751351
 Beta  Exchange  Energy =    -2.6505435276
 DFT   Exchange  Energy =   -19.4223328299
 DFT Correlation Energy =    -0.8515327283
 Nuclear Repu.   Energy =    71.2135568688
 Nuclear Attr.   Energy =  -683.8774368323
 Kinetic         Energy =   225.4370219444
 <S^2> = 0.7532
 SCF time:  CPU 29.85 s  wall 30.46 s
 Final Alpha MO Eigenvalues
            1           2           3           4           5           6
    1 -18.9103098 -18.7402263 -18.7401710  -1.2159749  -0.9370951  -0.6027055
            7           8           9          10          11          12
    1  -0.4623425  -0.4262190  -0.4109658  -0.2140963  -0.1608055  -0.1490161
           13          14          15          16          17          18
    1  -0.0827363   0.3639929   0.3676169   0.3696406   0.4151666   0.4482715
 Final Beta MO Eigenvalues
            1           2           3           4           5           6
    1 -18.8970043 -18.7333178 -18.7332422  -1.1974914  -0.9232071  -0.5719539
            7           8           9          10          11          12
    1  -0.4156096  -0.3981014  -0.3972591  -0.1536482  -0.1387106  -0.1363562
           13          14          15          16          17
    1   0.2817699   0.3653034   0.3688872   0.3718474   0.4235337
 Analysis of SCF Wavefunction
 
 --------------------------------------------------------------
                    Orbital Energies (a.u.)
 --------------------------------------------------------------
 
 Alpha MOs
 -- Occupied --
-18.910 -18.740 -18.740  -1.216  -0.937  -0.603  -0.462  -0.426
 -0.411  -0.214  -0.161  -0.149  -0.083
 -- Virtual --
  0.364   0.368   0.370   0.415   0.448   0.460   0.466   0.482
  0.522   0.537   0.599   0.609   0.640   0.688   1.207   1.305
  1.309   1.333   1.343   1.366   1.401   1.404   1.454   1.554
  1.581   1.614   1.668   1.785   1.851   1.916   1.928   1.958
  1.995   2.331   2.497   2.574   2.695   2.720   2.753   2.914
  2.983   4.674   4.768   4.806   4.870   4.875   4.980   4.991
  5.118   5.167   5.247   5.279   5.280   5.306   5.333   5.401
  5.407   5.448   5.453   5.501   5.560   5.597   5.876   5.938
  6.130   6.627   6.985   6.986   7.059   7.078   7.111   7.117
  7.119   7.176   7.222   7.286   7.290   7.475   7.596   7.617
  7.664   7.815   7.878   8.302   8.463   8.771  43.869  43.879
 43.931  43.946  43.955  44.009  44.018  44.022  44.046  44.056
 44.072  44.090  44.108  44.232  44.277  45.677  45.779  45.839
 45.908  45.951  45.972  45.991  46.892  47.745  50.049  50.278
 50.284
 
 Beta MOs
 -- Occupied --
-18.897 -18.733 -18.733  -1.197  -0.923  -0.572  -0.416  -0.398
 -0.397  -0.154  -0.139  -0.136
 -- Virtual --
  0.282   0.365   0.369   0.372   0.424   0.450   0.461   0.471
  0.494   0.524   0.537   0.601   0.625   0.643   0.701   1.210
  1.310   1.332   1.337   1.345   1.372   1.421   1.432   1.458
  1.560   1.598   1.634   1.679   1.794   1.864   1.923   1.944
  1.981   2.019   2.333   2.517   2.594   2.718   2.729   2.759
  2.919   2.989   4.700   4.785   4.810   4.883   4.899   4.994
  5.004   5.132   5.215   5.256   5.309   5.311   5.319   5.354
  5.423   5.428   5.461   5.472   5.523   5.575   5.616   5.888
  5.963   6.151   6.635   7.024   7.024   7.090   7.104   7.128
  7.146   7.149   7.200   7.263   7.305   7.323   7.480   7.618
  7.645   7.693   7.820   7.891   8.311   8.474   8.780  43.902
 43.911  43.963  43.966  43.974  44.029  44.029  44.039  44.052
 44.074  44.076  44.108  44.110  44.237  44.283  45.709  45.785
 45.845  45.929  45.956  45.996  46.000  46.898  47.752  50.057
 50.284  50.295
 --------------------------------------------------------------
 
          Ground-State Mulliken Net Atomic Charges

     Atom                 Charge (a.u.)    Spin (a.u.)
  --------------------------------------------------------
      1 O                    -0.571374       0.311852
      2 O                     0.142582       0.376150
      3 O                    -0.571208       0.311998
  --------------------------------------------------------
  Sum of atomic charges =    -1.000000
  Sum of spin   charges =     1.000000

 -----------------------------------------------------------------
                    Cartesian Multipole Moments
 -----------------------------------------------------------------
    Charge (ESU x 10^10)
                -4.8032
    Dipole Moment (Debye)
         X      -2.8400      Y      -0.0003      Z      -4.3630
       Tot       5.2059
    Quadrupole Moments (Debye-Ang)
        XX     -22.6735     XY      -0.0019     YY     -18.0584
        XZ      -5.4403     YZ       0.0001     ZZ     -27.9891
    Octapole Moments (Debye-Ang^2)
       XXX     -26.5721    XXY      -0.0021    XYY      -7.5390
       YYY      -0.0012    XXZ     -25.2961    XYZ      -0.0016
       YYZ     -18.2945    XZZ     -17.9330    YZZ       0.0004
       ZZZ     -77.0809
    Hexadecapole Moments (Debye-Ang^3)
      XXXX     -71.6320   XXXY      -0.0052   XXYY     -14.5655
      XYYY      -0.0026   YYYY     -17.0457   XXXZ     -46.2642
      XXYZ      -0.0026   XYYZ     -13.7966   YYYZ      -0.0006
      XXZZ     -56.1972   XYZZ      -0.0033   YYZZ     -36.4807
      XZZZ     -60.5338   YZZZ       0.0009   ZZZZ    -243.0680
 -----------------------------------------------------------------
 Total job time:  30.60s(wall), 29.97s(cpu) 
 Mon Jul  8 16:56:35 2013

        *************************************************************
        *                                                           *
        *  Thank you very much for using Q-Chem.  Have a nice day.  *
        *                                                           *
        *************************************************************


0 sent ACK to 0 
now end server 0 ... 
 
**********************************************************************
Job 2 of 3 
**********************************************************************
 
Process 0 of 1 is on cl152.stfx.acenet.ca - thread support 1
initial socket setup ...start
initial socket setup ...done 
now start server 0 ... 

cmd = /usr/bin/ssh clhead /usr/local/qchem/bin/get_hostid 167536372 > /scratch/tmp/6065161.1.medium.q/qchem32744/lic.dat
                  Welcome to Q-Chem
     A Quantum Leap Into The Future Of Chemistry

 Y. Shao, L. Fusti-Molnar, Y. Jung, J. Kussmann, C. Ochsenfeld,
 S. T. Brown, A. T. B. Gilbert, L. V. Slipchenko,S. V. Levchenko,
 D. P. O'Neill, R. A. DiStasio Jr., R. C. Lochan, T. Wang,
 G. J. O. Beran, N. A. Besley, J. M. Herbert, C. Y. Lin,
 T. Van Voorhis, S. H. Chien, A. Sodt, R. P. Steele, 
 V. A. Rassolov, P. E. Maslen, P. P. Korambath, R. D. Adamson,
 B. Austin, J. Baker, E. F. C. Byrd, H. Dachsel, R. J. Doerksen,
 A. Dreuw, B. D. Dunietz, A. D. Dutoi, T. R. Furlani,
 S. R. Gwaltney, A. Heyden, S. Hirata, C.-P. Hsu, G. Kedziora,
 R. Z. Khaliullin, P. Klunzinger, A. M. Lee, M. S. Lee, W. Liang,
 I. Lotan, N. Nair, B. Peters, E. I. Proynov, P. A. Pieniazek, 
 Y. M. Rhee, J. Ritchie, E. Rosta, C. D. Sherrill, 
 A. C. Simmonett, J. E. Subotnik, H. L. Woodcock III,
 W. Zhang, A. T. Bell, A. K. Chakraborty, D. M. Chipman,
 F. J. Keil, A. Warshel, W. J. Hehre, H. F. Schaefer III,
 J. Kong, A. I. Krylov, P. M. W. Gill, M. Head-Gordon,
 Q-Chem, Version 3.1, Q-Chem, Inc., Pittsburgh, PA (2007).

 Additional authors for Version 3.1: 
 Z. Gan, Y. Zhao, N. E. Schultz, D. Truhlar, E. Epifanovsky and M. Oana.

 Additional authors for Version 3.2: 
 R. Baer, B. R. Brooks, D. Casanova, J.-D. Chai, C.-L. Cheng, 
 C. Cramer, D. Crittenden, A. Ghysels, G. Hawkins, E. G. Hohenstein, 
 C. Kelley, W. Kurlancheek, D. Liotard, E. Livshits, P. Manohar, 
 A. Marenich, D. Neuhauser, R. Olson, M. A. Rohrdanz, K. S. Thanthiriwatte, 
 A. J. W. Thom, V. Vanovschi, C. F. Williams, Q. Wu and Z.-Q. You. 


 Intel X86 Linux Version

 Q-chem begins on Mon Jul  8 16:56:38 2013  

 Parallel job on  1  processors
Processing $rem in /usr/local/qchem/config/preferences.

theFileMan(): MAXOPENFILES=974 MAX_SUB_FILE_NUM=16
Maximum size of a physical file is 2.0 GB, maximum size of a tmp-file is 32.0 GB


--------------------------------------------------------------
User input:
--------------------------------------------------------------

$molecule
0,1
O          0.01102        0.00000        0.02954
O          0.00996        0.00000        1.25840
O          1.09619        0.00000        1.83285
$end

$comment
neutral
$end

$xc_functional
C PBE   1.00
X wPBE  1.00
$end


$rem
SYMMETRY_DECOMPOSITION	0
LRC_DFT                 true
exchange 		general
BASIS                   g3large
omega			440
mem_static              760
max_scf_cycles          200
scf_final_print         1
sym_ignore              true
$end

--------------------------------------------------------------
 Writing REM_CC_EA            3
 ----------------------------------------------------
       Standard Nuclear Orientation (Angstroms)
    I     Atom         X            Y            Z
 ----------------------------------------------------
    1      O       0.011020     0.000000     0.029540
    2      O       0.009960     0.000000     1.258400
    3      O       1.096190     0.000000     1.832850
 ----------------------------------------------------
 Nuclear Repulsion Energy =    71.2135568726 hartrees
 There are       12 alpha and       12 beta electrons
 Requested basis set is G3large
 There are 30 shells and 126 basis functions

Total QAlloc Memory Limit   2000 MB
Mega-Array Size       743 MB
MEM_STATIC part       760 MB

                       Distance Matrix (Angstroms)
             O (  1)   O (  2)
   O (  2)  1.228860
   O (  3)  2.104643  1.228775
 
 A cutoff of  1.0D-08 yielded    435 shell pairs
 There are   7848 function pairs ( 10313 Cartesian)
Evaluating contribution to one-electron hamiltonian from nuclear
 Smallest overlap matrix eigenvalue = 5.23E-04
 Multipole matrices computed through 2nd order

  Scale SEOQF with 1.000000e-01/1.000000e+00/1.000000e-01

 Standard Electronic Orientation quadrupole field applied
 Nucleus-field energy     =    -0.0000000039 hartrees
 Guess from superposition of atomic densities
 Warning:  Energy on first SCF cycle will be non-variational
 Long-range K will be added via erf
 Coulomb attenuation parameter = 0.44 bohr**(-1)
 A restricted Kohn-Sham SCF calculation will be
 performed using Pulay DIIS extrapolation
 Exchange:  wPBE + LR-HF      Correlation:  PBE
 Using SG-1 standard quadrature grid
 SCF converges when DIIS error is below 1.0E-05
 Requested basis set is G3large
 There are 30 shells and 126 basis functions
 A cutoff of  1.0D-08 yielded    435 shell pairs
 There are   7848 function pairs ( 10313 Cartesian)
 ---------------------------------------
  Cycle       Energy         DIIS Error
 ---------------------------------------
    1    -225.6845856846      3.85E-02
    2    -225.1826056843      1.06E-02
    3    -225.0971986009      1.45E-02
    4    -225.3315516127      1.38E-03
    5    -225.3322474177      1.37E-03
    6    -225.3349887277      2.72E-04
    7    -225.3354675566      1.19E-04
    8    -225.3357089492      7.10E-05
    9    -225.3358330256      3.30E-05
   10    -225.3358622917      7.80E-06 Convergence criterion met
 ---------------------------------------
 One-Electron    Energy =  -450.0674865785
 Total Coulomb   Energy =   178.9161552726
 Alpha Exchange  Energy =    -2.6723614271
 Beta  Exchange  Energy =    -2.6723614271
 DFT   Exchange  Energy =   -19.2335804248
 DFT Correlation Energy =    -0.8197845756
 Nuclear Repu.   Energy =    71.2135568688
 Nuclear Attr.   Energy =  -674.9765714022
 Kinetic         Energy =   224.9090848237
 SCF time:  CPU 25.37 s  wall 26.01 s
 Final Alpha MO Eigenvalues
            1           2           3           4           5           6
    1 -19.3090930 -19.1027487 -19.1026694  -1.5665339  -1.2813738  -0.9267839
            7           8           9          10          11          12
    1  -0.7816216  -0.7612652  -0.7424977  -0.4919673  -0.4890573  -0.4778139
           13          14          15          16          17
    1  -0.0846428   0.1564597   0.1669787   0.1723618   0.1987051
 Analysis of SCF Wavefunction
 
 --------------------------------------------------------------
                    Orbital Energies (a.u.)
 --------------------------------------------------------------
 
 Alpha MOs
 -- Occupied --
-19.309 -19.103 -19.103  -1.567  -1.281  -0.927  -0.782  -0.761
 -0.742  -0.492  -0.489  -0.478
 -- Virtual --
 -0.085   0.156   0.167   0.172   0.199   0.226   0.257   0.265
  0.284   0.292   0.306   0.326   0.370   0.386   0.429   0.934
  1.016   1.030   1.038   1.063   1.089   1.121   1.130   1.178
  1.255   1.263   1.292   1.353   1.485   1.552   1.612   1.614
  1.649   1.691   2.014   2.174   2.259   2.378   2.391   2.447
  2.607   2.668   4.332   4.427   4.466   4.531   4.537   4.638
  4.642   4.777   4.831   4.915   4.945   4.949   4.975   4.996
  5.071   5.076   5.117   5.118   5.164   5.225   5.259   5.541
  5.598   5.790   6.283   6.639   6.642   6.724   6.743   6.774
  6.775   6.779   6.834   6.880   6.942   6.943   7.135   7.256
  7.281   7.324   7.476   7.529   7.955   8.116   8.421  43.486
 43.494  43.546  43.586  43.597  43.636  43.650  43.659  43.675
 43.696  43.697  43.730  43.746  43.865  43.907  45.298  45.397
 45.464  45.550  45.588  45.603  45.627  46.521  47.367  49.675
 49.903  49.916
 --------------------------------------------------------------
 
          Ground-State Mulliken Net Atomic Charges

     Atom                 Charge (a.u.)
  ----------------------------------------
      1 O                    -0.162355
      2 O                     0.324726
      3 O                    -0.162371
  ----------------------------------------
  Sum of atomic charges =     0.000000

 -----------------------------------------------------------------
                    Cartesian Multipole Moments
 -----------------------------------------------------------------
    Charge (ESU x 10^10)
                 0.0000
    Dipole Moment (Debye)
         X      -0.6767      Y       0.0001      Z       0.4074
       Tot       0.7898
    Quadrupole Moments (Debye-Ang)
        XX     -16.9005     XY      -0.0005     YY     -14.5619
        XZ      -1.2204     YZ      -0.0001     ZZ     -16.2570
    Octapole Moments (Debye-Ang^2)
       XXX     -19.1459    XXY      -0.0005    XYY      -5.7304
       YYY      -0.0001    XXZ     -17.2404    XYZ      -0.0004
       YYZ     -14.9627    XZZ      -8.4067    YZZ       0.0000
       ZZZ     -52.3705
    Hexadecapole Moments (Debye-Ang^3)
      XXXX     -51.7570   XXXY      -0.0011   XXYY     -10.0109
      XYYY      -0.0004   YYYY     -10.3559   XXXZ     -32.9666
      XXYZ      -0.0008   XYYZ     -10.4119   YYYZ      -0.0001
      XXZZ     -37.6700   XYZZ      -0.0010   YYZZ     -27.9257
      XZZZ     -37.3438   YZZZ      -0.0003   ZZZZ    -177.2173
 -----------------------------------------------------------------
 Total job time:  26.15s(wall), 25.49s(cpu) 
 Mon Jul  8 16:57:04 2013

        *************************************************************
        *                                                           *
        *  Thank you very much for using Q-Chem.  Have a nice day.  *
        *                                                           *
        *************************************************************


0 sent ACK to 0 
now end server 0 ... 
 
**********************************************************************
Job 3 of 3 
**********************************************************************
 
Process 0 of 1 is on cl152.stfx.acenet.ca - thread support 1
initial socket setup ...start
initial socket setup ...done 
now start server 0 ... 

cmd = /usr/bin/ssh clhead /usr/local/qchem/bin/get_hostid 1796852466 > /scratch/tmp/6065161.1.medium.q/qchem32744/lic.dat
                  Welcome to Q-Chem
     A Quantum Leap Into The Future Of Chemistry

 Y. Shao, L. Fusti-Molnar, Y. Jung, J. Kussmann, C. Ochsenfeld,
 S. T. Brown, A. T. B. Gilbert, L. V. Slipchenko,S. V. Levchenko,
 D. P. O'Neill, R. A. DiStasio Jr., R. C. Lochan, T. Wang,
 G. J. O. Beran, N. A. Besley, J. M. Herbert, C. Y. Lin,
 T. Van Voorhis, S. H. Chien, A. Sodt, R. P. Steele, 
 V. A. Rassolov, P. E. Maslen, P. P. Korambath, R. D. Adamson,
 B. Austin, J. Baker, E. F. C. Byrd, H. Dachsel, R. J. Doerksen,
 A. Dreuw, B. D. Dunietz, A. D. Dutoi, T. R. Furlani,
 S. R. Gwaltney, A. Heyden, S. Hirata, C.-P. Hsu, G. Kedziora,
 R. Z. Khaliullin, P. Klunzinger, A. M. Lee, M. S. Lee, W. Liang,
 I. Lotan, N. Nair, B. Peters, E. I. Proynov, P. A. Pieniazek, 
 Y. M. Rhee, J. Ritchie, E. Rosta, C. D. Sherrill, 
 A. C. Simmonett, J. E. Subotnik, H. L. Woodcock III,
 W. Zhang, A. T. Bell, A. K. Chakraborty, D. M. Chipman,
 F. J. Keil, A. Warshel, W. J. Hehre, H. F. Schaefer III,
 J. Kong, A. I. Krylov, P. M. W. Gill, M. Head-Gordon,
 Q-Chem, Version 3.1, Q-Chem, Inc., Pittsburgh, PA (2007).

 Additional authors for Version 3.1: 
 Z. Gan, Y. Zhao, N. E. Schultz, D. Truhlar, E. Epifanovsky and M. Oana.

 Additional authors for Version 3.2: 
 R. Baer, B. R. Brooks, D. Casanova, J.-D. Chai, C.-L. Cheng, 
 C. Cramer, D. Crittenden, A. Ghysels, G. Hawkins, E. G. Hohenstein, 
 C. Kelley, W. Kurlancheek, D. Liotard, E. Livshits, P. Manohar, 
 A. Marenich, D. Neuhauser, R. Olson, M. A. Rohrdanz, K. S. Thanthiriwatte, 
 A. J. W. Thom, V. Vanovschi, C. F. Williams, Q. Wu and Z.-Q. You. 


 Intel X86 Linux Version

 Q-chem begins on Mon Jul  8 16:57:07 2013  

 Parallel job on  1  processors
Processing $rem in /usr/local/qchem/config/preferences.

theFileMan(): MAXOPENFILES=974 MAX_SUB_FILE_NUM=16
Maximum size of a physical file is 2.0 GB, maximum size of a tmp-file is 32.0 GB


--------------------------------------------------------------
User input:
--------------------------------------------------------------

$molecule
1,2
O          0.01102        0.00000        0.02954
O          0.00996        0.00000        1.25840
O          1.09619        0.00000        1.83285
$end

$comment
positive
$end

$xc_functional
C PBE   1.00
X wPBE  1.00
$end

$rem
SYMMETRY_DECOMPOSITION	0
LRC_DFT                 true
exchange 		general
BASIS                   g3large
omega			440
mem_static              760
max_scf_cycles          200
scf_final_print         1
sym_ignore              true
$end

--------------------------------------------------------------
 Writing REM_CC_EA            3
 ----------------------------------------------------
       Standard Nuclear Orientation (Angstroms)
    I     Atom         X            Y            Z
 ----------------------------------------------------
    1      O       0.011020     0.000000     0.029540
    2      O       0.009960     0.000000     1.258400
    3      O       1.096190     0.000000     1.832850
 ----------------------------------------------------
 Nuclear Repulsion Energy =    71.2135568726 hartrees
 There are       12 alpha and       11 beta electrons
 Requested basis set is G3large
 There are 30 shells and 126 basis functions

Total QAlloc Memory Limit   2000 MB
Mega-Array Size       743 MB
MEM_STATIC part       760 MB

                       Distance Matrix (Angstroms)
             O (  1)   O (  2)
   O (  2)  1.228860
   O (  3)  2.104643  1.228775
 
 A cutoff of  1.0D-08 yielded    435 shell pairs
 There are   7848 function pairs ( 10313 Cartesian)
Evaluating contribution to one-electron hamiltonian from nuclear
 Smallest overlap matrix eigenvalue = 5.23E-04
 Multipole matrices computed through 2nd order

  Scale SEOQF with 1.000000e-01/1.000000e+00/1.000000e-01

 Standard Electronic Orientation quadrupole field applied
 Nucleus-field energy     =    -0.0000000039 hartrees
 Guess from superposition of atomic densities
 Warning:  Energy on first SCF cycle will be non-variational
 Long-range K will be added via erf
 Coulomb attenuation parameter = 0.44 bohr**(-1)
 An unrestricted Kohn-Sham SCF calculation will be
 performed using Pulay DIIS extrapolation
 Exchange:  wPBE + LR-HF      Correlation:  PBE
 Using SG-1 standard quadrature grid
 SCF converges when DIIS error is below 1.0E-05
 Requested basis set is G3large
 There are 30 shells and 126 basis functions
 A cutoff of  1.0D-08 yielded    435 shell pairs
 There are   7848 function pairs ( 10313 Cartesian)
 Warning!  Inaccurate integrated density:
   Number of electrons =    23
   Numerical integral  =    23.999877269493
   Relative error      =     4.3472924761 %
 ---------------------------------------
  Cycle       Energy         DIIS Error
 ---------------------------------------
    1    -225.6845856846      3.85E-02
    2    -224.5946625308      1.21E-02
    3    -224.3472367181      1.93E-02
    4    -224.8299655458      3.77E-03
    5    -224.8487270443      1.74E-03
    6    -224.8552292208      6.16E-04
    7    -224.8577088600      2.50E-04
    8    -224.8597350862      1.25E-04
    9    -224.8606467421      8.11E-05
   10    -224.8614641717      5.69E-05
   11    -224.8624359111      4.69E-05
   12    -224.8633148486      4.88E-05
   13    -224.8646412109      6.18E-05
   14    -224.8650563377      6.34E-05
   15    -224.8652114594      5.64E-05
   16    -224.8673563980      1.14E-04
   17    -224.8676065052      7.83E-05
   18    -224.8676095339      4.84E-05
   19    -224.8677217137      2.85E-05
   20    -224.8677367745      5.05E-06 Convergence criterion met
 ---------------------------------------
 One-Electron    Energy =  -440.9591815298
 Total Coulomb   Energy =   169.9120177806
 Alpha Exchange  Energy =    -2.7071505960
 Beta  Exchange  Energy =    -2.4591262397
 DFT   Exchange  Energy =   -19.0930997034
 DFT Correlation Energy =    -0.7747533549
 Nuclear Repu.   Energy =    71.2135568688
 Nuclear Attr.   Energy =  -665.5334709824
 Kinetic         Energy =   224.5742894527
 <S^2> = 1.1397
 SCF time:  CPU 61.46 s  wall 62.70 s
 Final Alpha MO Eigenvalues
            1           2           3           4           5           6
    1 -19.6609837 -19.5868382 -19.4834393  -1.9504823  -1.6737345  -1.3085328
            7           8           9          10          11          12
    1  -1.1496407  -1.1473406  -1.1119377  -0.9463593  -0.9017763  -0.8289867
           13          14          15          16          17
    1  -0.4010071  -0.1500737  -0.0758374  -0.0623166  -0.0256631
 Final Beta MO Eigenvalues
            1           2           3           4           5           6
    1 -19.6532344 -19.5534626 -19.4965093  -1.9295276  -1.6497081  -1.2665889
            7           8           9          10          11          12
    1  -1.1218966  -1.1068761  -1.0849590  -0.8739894  -0.8360362  -0.4686561
           13          14          15          16
    1  -0.4253216  -0.1257870  -0.0705439  -0.0505003
 Analysis of SCF Wavefunction
 
 --------------------------------------------------------------
                    Orbital Energies (a.u.)
 --------------------------------------------------------------
 
 Alpha MOs
 -- Occupied --
-19.661 -19.587 -19.483  -1.950  -1.674  -1.309  -1.150  -1.147
 -1.112  -0.946  -0.902  -0.829
 -- Virtual --
 -0.401  -0.150  -0.076  -0.062  -0.026  -0.022   0.007   0.053
  0.057   0.058   0.070   0.081   0.141   0.172   0.216   0.633
  0.701   0.706   0.740   0.762   0.798   0.807   0.849   0.866
  0.922   0.934   0.950   1.023   1.145   1.214   1.243   1.273
  1.317   1.369   1.647   1.819   1.922   2.038   2.044   2.110
  2.282   2.322   3.963   4.058   4.081   4.162   4.174   4.257
  4.275   4.416   4.449   4.456   4.552   4.580   4.587   4.604
  4.672   4.702   4.723   4.767   4.800   4.843   4.890   5.149
  5.233   5.416   5.881   6.204   6.261   6.265   6.367   6.377
  6.391   6.395   6.476   6.514   6.560   6.567   6.714   6.875
  6.908   6.975   7.095   7.158   7.575   7.736   8.052  43.072
 43.110  43.128  43.155  43.203  43.220  43.237  43.240  43.261
 43.289  43.303  43.324  43.345  43.429  43.531  44.913  44.998
 45.046  45.114  45.146  45.227  45.229  46.116  46.980  49.265
 49.481  49.539
 
 Beta MOs
 -- Occupied --
-19.653 -19.553 -19.497  -1.930  -1.650  -1.267  -1.122  -1.107
 -1.085  -0.874  -0.836
 -- Virtual --
 -0.469  -0.425  -0.126  -0.071  -0.051  -0.025  -0.016   0.014
  0.055   0.058   0.065   0.070   0.081   0.142   0.174   0.216
  0.647   0.717   0.732   0.744   0.776   0.807   0.816   0.845
  0.887   0.932   0.946   0.956   1.036   1.175   1.230   1.274
  1.292   1.318   1.370   1.672   1.840   1.930   2.047   2.050
  2.126   2.289   2.338   3.976   4.066   4.107   4.182   4.191
  4.271   4.293   4.430   4.484   4.550   4.569   4.591   4.612
  4.639   4.705   4.710   4.752   4.761   4.809   4.861   4.897
  5.180   5.245   5.431   5.912   6.273   6.285   6.345   6.399
  6.399   6.405   6.411   6.469   6.531   6.571   6.590   6.765
  6.906   6.919   6.978   7.115   7.170   7.590   7.752   8.063
 43.132  43.146  43.172  43.192  43.194  43.238  43.255  43.258
 43.272  43.298  43.309  43.317  43.331  43.450  43.529  44.930
 45.020  45.073  45.128  45.179  45.216  45.231  46.125  46.987
 49.279  49.496  49.538
 --------------------------------------------------------------
 
          Ground-State Mulliken Net Atomic Charges

     Atom                 Charge (a.u.)    Spin (a.u.)
  --------------------------------------------------------
      1 O                     0.408966       1.278073
      2 O                     0.422961       0.249409
      3 O                     0.168073      -0.527482
  --------------------------------------------------------
  Sum of atomic charges =     1.000000
  Sum of spin   charges =     1.000000

 -----------------------------------------------------------------
                    Cartesian Multipole Moments
 -----------------------------------------------------------------
    Charge (ESU x 10^10)
                 4.8032
    Dipole Moment (Debye)
         X       1.1888      Y      -0.0001      Z       4.2789
       Tot       4.4410
    Quadrupole Moments (Debye-Ang)
        XX     -11.7743     XY      -0.0014     YY     -12.7279
        XZ       2.2582     YZ       0.0004     ZZ      -7.0179
    Octapole Moments (Debye-Ang^2)
       XXX     -13.9198    XXY      -0.0006    XYY      -4.7242
       YYY       0.0001    XXZ     -11.1784    XYZ       0.0012
       YYZ     -13.0463    XZZ      -0.7517    YZZ       0.0031
       ZZZ     -33.1104
    Hexadecapole Moments (Debye-Ang^3)
      XXXX     -38.9725   XXXY      -0.0017   XXYY      -7.7284
      XYYY      -0.0007   YYYY      -7.7540   XXXZ     -23.6363
      XXYZ       0.0003   XYYZ      -8.5376   YYYZ       0.0004
      XXZZ     -24.3277   XYZZ       0.0040   YYZZ     -23.4395
      XZZZ     -19.7943   YZZZ       0.0103   ZZZZ    -129.3569
 -----------------------------------------------------------------
 Total job time:  62.83s(wall), 61.58s(cpu) 
 Mon Jul  8 16:58:10 2013

        *************************************************************
        *                                                           *
        *  Thank you very much for using Q-Chem.  Have a nice day.  *
        *                                                           *
        *************************************************************


0 sent ACK to 0 
now end server 0 ... 
