Process 0 of 1 is on cl077.stfx.acenet.ca - thread support 1
initial socket setup ...start
initial socket setup ...done 
now start server 0 ... 

cmd = /usr/bin/ssh clhead /usr/local/qchem/bin/get_hostid 340325737 > /scratch/tmp/5956273.1.short.q/qchem10635/lic.dat
                  Welcome to Q-Chem
     A Quantum Leap Into The Future Of Chemistry

 Y. Shao, L. Fusti-Molnar, Y. Jung, J. Kussmann, C. Ochsenfeld,
 S. T. Brown, A. T. B. Gilbert, L. V. Slipchenko,S. V. Levchenko,
 D. P. O'Neill, R. A. DiStasio Jr., R. C. Lochan, T. Wang,
 G. J. O. Beran, N. A. Besley, J. M. Herbert, C. Y. Lin,
 T. Van Voorhis, S. H. Chien, A. Sodt, R. P. Steele, 
 V. A. Rassolov, P. E. Maslen, P. P. Korambath, R. D. Adamson,
 B. Austin, J. Baker, E. F. C. Byrd, H. Dachsel, R. J. Doerksen,
 A. Dreuw, B. D. Dunietz, A. D. Dutoi, T. R. Furlani,
 S. R. Gwaltney, A. Heyden, S. Hirata, C.-P. Hsu, G. Kedziora,
 R. Z. Khaliullin, P. Klunzinger, A. M. Lee, M. S. Lee, W. Liang,
 I. Lotan, N. Nair, B. Peters, E. I. Proynov, P. A. Pieniazek, 
 Y. M. Rhee, J. Ritchie, E. Rosta, C. D. Sherrill, 
 A. C. Simmonett, J. E. Subotnik, H. L. Woodcock III,
 W. Zhang, A. T. Bell, A. K. Chakraborty, D. M. Chipman,
 F. J. Keil, A. Warshel, W. J. Hehre, H. F. Schaefer III,
 J. Kong, A. I. Krylov, P. M. W. Gill, M. Head-Gordon,
 Q-Chem, Version 3.1, Q-Chem, Inc., Pittsburgh, PA (2007).

 Additional authors for Version 3.1: 
 Z. Gan, Y. Zhao, N. E. Schultz, D. Truhlar, E. Epifanovsky and M. Oana.

 Additional authors for Version 3.2: 
 R. Baer, B. R. Brooks, D. Casanova, J.-D. Chai, C.-L. Cheng, 
 C. Cramer, D. Crittenden, A. Ghysels, G. Hawkins, E. G. Hohenstein, 
 C. Kelley, W. Kurlancheek, D. Liotard, E. Livshits, P. Manohar, 
 A. Marenich, D. Neuhauser, R. Olson, M. A. Rohrdanz, K. S. Thanthiriwatte, 
 A. J. W. Thom, V. Vanovschi, C. F. Williams, Q. Wu and Z.-Q. You. 


 Intel X86 Linux Version

 Q-chem begins on Tue Apr 30 22:35:22 2013  

 Parallel job on  1  processors
Processing $rem in /usr/local/qchem/config/preferences.

theFileMan(): MAXOPENFILES=974 MAX_SUB_FILE_NUM=16
Maximum size of a physical file is 2.0 GB, maximum size of a tmp-file is 32.0 GB


--------------------------------------------------------------
User input:
--------------------------------------------------------------

$molecule
-1,2
C
H,1,R
Cl,1,R1,2,A
Cl,1,R1,2,A,3,120.,0
Cl,1,R1,2,A,3,-120.,0

R=1.08553635
R1=1.78773686
A=107.50826708

$end

$comment
negative
$end

$xc_functional
C PBE   1.00
X wPBE  1.00
$end

$rem
SYMMETRY_DECOMPOSITION	0
exchange 		general
LRC_DFT                 true
BASIS                   g3large
omega			380
mem_static              760
max_scf_cycles          200
scf_final_print         1
sym_ignore              true
$end

--------------------------------------------------------------
 Writing REM_CC_EA            5
 ----------------------------------------------------
       Standard Nuclear Orientation (Angstroms)
    I     Atom         X            Y            Z
 ----------------------------------------------------
    1      C       0.000000     0.000000     0.000000
    2      H       0.000000     0.000000     1.085536
    3      Cl      1.704917     0.000000    -0.537829
    4      Cl     -0.852459    -1.476502    -0.537829
    5      Cl     -0.852459     1.476502    -0.537829
 ----------------------------------------------------
 Nuclear Repulsion Energy =   260.3321865543 hartrees
 There are       30 alpha and       29 beta electrons
 Requested basis set is G3large
 There are 73 shells and 250 basis functions

Total QAlloc Memory Limit   2000 MB
Mega-Array Size       743 MB
MEM_STATIC part       760 MB

                       Distance Matrix (Angstroms)
             C (  1)   H (  2)   Cl(  3)   Cl(  4)
   H (  2)  1.085536
   Cl(  3)  1.787737  2.354158
   Cl(  4)  1.787737  2.354158  2.953003
   Cl(  5)  1.787737  2.354158  2.953003  2.953003
 
 A cutoff of  1.0D-08 yielded   2236 shell pairs
 There are  26872 function pairs ( 37270 Cartesian)
Evaluating contribution to one-electron hamiltonian from nuclear
 Smallest overlap matrix eigenvalue = 9.07E-05

 Q-Chem warning in module mkSTV.C, line 194:

 Overlap eigenvalue is smaller than square root of threshold

 Multipole matrices computed through 2nd order

  Scale SEOQF with 1.000000e-01/1.000000e-01/1.000000e-01

 Standard Electronic Orientation quadrupole field applied
 Nucleus-field energy     =     0.0000000062 hartrees
 Guess from superposition of atomic densities
 Warning:  Energy on first SCF cycle will be non-variational
 Long-range K will be added via erf
 Coulomb attenuation parameter = 0.38 bohr**(-1)
 An unrestricted Kohn-Sham SCF calculation will be
 performed using Pulay DIIS extrapolation
 Exchange:  wPBE + LR-HF      Correlation:  PBE
 Using SG-1 standard quadrature grid
 SCF converges when DIIS error is below 1.0E-05
 Requested basis set is G3large
 There are 73 shells and 250 basis functions
 A cutoff of  1.0D-08 yielded   2236 shell pairs
 There are  26872 function pairs ( 37270 Cartesian)
 Warning!  Inaccurate integrated density:
   Number of electrons =    59
   Numerical integral  =    57.999919144246
   Relative error      =    -1.6950522979 %
 ---------------------------------------
  Cycle       Energy         DIIS Error
 ---------------------------------------
    1   -1419.4351943999      2.06E-02
    2   -1418.7812970640      2.56E-03
    3   -1418.8140865056      2.30E-03
    4   -1418.8448209925      3.76E-04
    5   -1418.8461112036      1.73E-04
    6   -1418.8465207637      5.24E-05
    7   -1418.8466269752      2.10E-05
    8   -1418.8466655874      1.40E-05
    9   -1418.8466938966      9.76E-06 Convergence criterion met
 ---------------------------------------
 One-Electron    Energy = -2488.8424043201
 Total Coulomb   Energy =   899.9648518820
 Alpha Exchange  Energy =    -5.8808062067
 Beta  Exchange  Energy =    -5.7330238745
 DFT   Exchange  Energy =   -76.4259016482
 DFT Correlation Energy =    -2.2615962895
 Nuclear Repu.   Energy =   260.3321865605
 Nuclear Attr.   Energy = -3906.2234811408
 Kinetic         Energy =  1417.3810768207
 <S^2> = 0.7563
 SCF time:  CPU 257.03 s  wall 258.88 s
 Final Alpha MO Eigenvalues
            1           2           3           4           5           6
    1-100.6801333-100.6793534-100.6792124 -10.0325642  -9.2021299  -9.2013889
            7           8           9          10          11          12
    1  -9.2012671  -7.0208536  -7.0200553  -7.0199853  -7.0115318  -7.0114676
           13          14          15          16          17          18
    1  -7.0108405  -7.0107400  -7.0106663  -7.0106070  -0.8751194  -0.7738611
           19          20          21          22          23          24
    1  -0.7734784  -0.5888946  -0.4325396  -0.3924136  -0.3922704  -0.2763841
           25          26          27          28          29          30
    1  -0.2763242  -0.2473922  -0.2472039  -0.2415097  -0.2264162   0.0175772
           31          32          33          34          35
    1   0.1640619   0.2106979   0.2107440   0.2233170   0.2591213
 Final Beta MO Eigenvalues
            1           2           3           4           5           6
    1-100.6793187-100.6785167-100.6783782 -10.0229974  -9.2012833  -9.2005204
            7           8           9          10          11          12
    1  -9.2004002  -7.0187964  -7.0178828  -7.0178673  -7.0109324  -7.0108300
           13          14          15          16          17          18
    1  -7.0102984  -7.0100926  -7.0100514  -7.0099538  -0.8646127  -0.7669928
           19          20          21          22          23          24
    1  -0.7665172  -0.5769270  -0.4100299  -0.3786745  -0.3784985  -0.2719907
           25          26          27          28          29          30
    1  -0.2719763  -0.2398429  -0.2396113  -0.2369425  -0.2233400   0.1666602
           31          32          33          34
    1   0.2099221   0.2177542   0.2179324   0.2537031
 Analysis of SCF Wavefunction
 
 --------------------------------------------------------------
                    Orbital Energies (a.u.)
 --------------------------------------------------------------
 
 Alpha MOs
 -- Occupied --
*******-100.679-100.679 -10.033  -9.202  -9.201  -9.201  -7.021
 -7.020  -7.020  -7.012  -7.011  -7.011  -7.011  -7.011  -7.011
 -0.875  -0.774  -0.773  -0.589  -0.433  -0.392  -0.392  -0.276
 -0.276  -0.247  -0.247  -0.242  -0.226   0.018
 -- Virtual --
  0.164   0.211   0.211   0.223   0.259   0.259   0.272   0.275
  0.275   0.304   0.304   0.309   0.317   0.321   0.321   0.334
  0.361   0.381   0.381   0.478   0.516   0.516   0.546   0.546
  0.561   0.600   0.610   0.615   0.615   0.619   0.620   0.660
  0.681   0.683   0.683   0.729   0.729   0.730   0.761   0.761
  0.787   0.826   0.826   0.836   0.931   0.964   0.964   0.976
  1.108   1.150   1.150   1.181   1.181   1.233   1.282   1.282
  1.323   1.323   1.329   1.356   1.372   1.372   1.384   1.390
  1.393   1.393   1.405   1.405   1.427   1.439   1.439   1.442
  1.483   1.484   1.484   1.556   1.556   1.643   1.666   1.667
  1.706   1.727   1.727   1.735   1.762   1.836   1.837   1.898
  1.898   1.949   1.977   1.978   1.995   2.022   2.022   2.138
  2.473   2.474   2.474   2.514   2.559   2.559   2.603   2.604
  2.819   2.973   3.278   3.278   3.415   3.473   3.473   3.611
  3.636   3.691   3.691   3.746   3.890   3.890   4.055   4.056
  4.159   4.522   4.522   4.611   4.611   4.629   4.642   4.642
  4.651   4.661   4.691   4.691   4.715   4.715   4.719   4.779
  4.779   4.813   4.855   4.855   4.885   4.899   4.921   4.921
  5.317   5.326   5.327   5.343   5.344   5.350   5.420   5.496
  5.496   5.517   5.518   5.599   5.702   6.017   6.017   6.051
 10.047  10.047  10.073  20.775  20.775  20.785  20.791  20.820
 20.820  21.035  21.035  21.111  24.026  27.284  27.291  27.302
 27.305  27.339  27.351  27.364  27.368  27.372  27.380  27.404
 27.415  27.417  27.448  27.485  28.119  28.126  28.159  36.996
 36.997  36.997  36.999  36.999  36.999  37.002  37.004  37.004
 37.007  37.007  37.010  37.012  37.014  37.020  37.022  37.023
 37.026  37.028  37.029  37.033  41.008  41.055  41.259  41.262
 41.279 215.920 215.921 215.975
 
 Beta MOs
 -- Occupied --
*******-100.679-100.678 -10.023  -9.201  -9.201  -9.200  -7.019
 -7.018  -7.018  -7.011  -7.011  -7.010  -7.010  -7.010  -7.010
 -0.865  -0.767  -0.767  -0.577  -0.410  -0.379  -0.378  -0.272
 -0.272  -0.240  -0.240  -0.237  -0.223
 -- Virtual --
  0.167   0.210   0.218   0.218   0.254   0.266   0.266   0.277
  0.277   0.291   0.308   0.308   0.310   0.323   0.339   0.339
  0.344   0.369   0.382   0.382   0.481   0.521   0.521   0.553
  0.553   0.564   0.606   0.612   0.619   0.619   0.627   0.627
  0.669   0.687   0.689   0.689   0.733   0.733   0.736   0.763
  0.764   0.801   0.835   0.835   0.842   0.934   0.969   0.970
  0.989   1.117   1.155   1.155   1.187   1.187   1.238   1.286
  1.286   1.327   1.327   1.332   1.360   1.377   1.377   1.387
  1.393   1.397   1.397   1.409   1.409   1.432   1.444   1.445
  1.451   1.487   1.488   1.488   1.560   1.560   1.647   1.672
  1.672   1.713   1.731   1.731   1.741   1.769   1.845   1.845
  1.904   1.904   1.958   1.982   1.982   2.004   2.028   2.029
  2.143   2.475   2.477   2.477   2.518   2.562   2.562   2.611
  2.612   2.828   2.979   3.292   3.292   3.431   3.489   3.490
  3.618   3.653   3.698   3.698   3.756   3.916   3.916   4.071
  4.071   4.180   4.526   4.526   4.615   4.615   4.633   4.647
  4.647   4.656   4.664   4.695   4.695   4.720   4.720   4.724
  4.787   4.787   4.821   4.862   4.862   4.893   4.907   4.928
  4.928   5.318   5.327   5.328   5.344   5.345   5.351   5.424
  5.498   5.499   5.520   5.521   5.602   5.712   6.020   6.021
  6.055  10.049  10.049  10.074  20.776  20.776  20.786  20.792
 20.821  20.821  21.038  21.039  21.115  24.037  27.285  27.293
 27.303  27.306  27.343  27.353  27.365  27.369  27.372  27.381
 27.405  27.417  27.419  27.450  27.489  28.126  28.133  28.173
 36.997  36.997  36.998  36.999  36.999  37.000  37.002  37.004
 37.004  37.008  37.008  37.010  37.013  37.015  37.021  37.023
 37.024  37.027  37.029  37.030  37.034  41.011  41.064  41.264
 41.268  41.281 215.921 215.922 215.976
 --------------------------------------------------------------
 
          Ground-State Mulliken Net Atomic Charges

     Atom                 Charge (a.u.)    Spin (a.u.)
  --------------------------------------------------------
      1 C                     1.435799      -0.384562
      2 H                    -0.254395       0.263051
      3 Cl                   -0.728455       0.375881
      4 Cl                   -0.724303       0.369976
      5 Cl                   -0.728646       0.375654
  --------------------------------------------------------
  Sum of atomic charges =    -1.000000
  Sum of spin   charges =     1.000000

 -----------------------------------------------------------------
                    Cartesian Multipole Moments
 -----------------------------------------------------------------
    Charge (ESU x 10^10)
                -4.8032
    Dipole Moment (Debye)
         X      -0.0172      Y      -0.0267      Z       2.5636
       Tot       2.5638
    Quadrupole Moments (Debye-Ang)
        XX     -60.2775     XY       0.0567     YY     -60.2073
        XZ       0.0200     YZ       0.0325     ZZ     -51.6735
    Octapole Moments (Debye-Ang^2)
       XXX     -11.1114    XXY      -0.0937    XYY      10.8735
       YYY      -0.2812    XXZ      25.4115    XYZ      -0.0473
       YYZ      25.3520    XZZ      -0.0231    YZZ      -0.0409
       ZZZ      58.7987
    Hexadecapole Moments (Debye-Ang^3)
      XXXX    -491.4062   XXXY       0.3450   XXYY    -163.5552
      XYYY       0.5079   YYYY    -490.3555   XXXZ       5.3554
      XXYZ       0.0985   XYYZ      -5.1079   YYYZ       0.2956
      XXZZ    -106.2010   XYZZ       0.1021   YYZZ    -106.0732
      XZZZ       0.0873   YZZZ       0.1455   ZZZZ    -175.5097
 -----------------------------------------------------------------
 Total job time:  259.37s(wall), 257.43s(cpu) 
 Tue Apr 30 22:39:42 2013

        *************************************************************
        *                                                           *
        *  Thank you very much for using Q-Chem.  Have a nice day.  *
        *                                                           *
        *************************************************************


0 sent ACK to 0 
now end server 0 ... 
 
**********************************************************************
Job 2 of 3 
**********************************************************************
 
Process 0 of 1 is on cl077.stfx.acenet.ca - thread support 1
initial socket setup ...start
initial socket setup ...done 
now start server 0 ... 

cmd = /usr/bin/ssh clhead /usr/local/qchem/bin/get_hostid 1189478067 > /scratch/tmp/5956273.1.short.q/qchem10635/lic.dat
                  Welcome to Q-Chem
     A Quantum Leap Into The Future Of Chemistry

 Y. Shao, L. Fusti-Molnar, Y. Jung, J. Kussmann, C. Ochsenfeld,
 S. T. Brown, A. T. B. Gilbert, L. V. Slipchenko,S. V. Levchenko,
 D. P. O'Neill, R. A. DiStasio Jr., R. C. Lochan, T. Wang,
 G. J. O. Beran, N. A. Besley, J. M. Herbert, C. Y. Lin,
 T. Van Voorhis, S. H. Chien, A. Sodt, R. P. Steele, 
 V. A. Rassolov, P. E. Maslen, P. P. Korambath, R. D. Adamson,
 B. Austin, J. Baker, E. F. C. Byrd, H. Dachsel, R. J. Doerksen,
 A. Dreuw, B. D. Dunietz, A. D. Dutoi, T. R. Furlani,
 S. R. Gwaltney, A. Heyden, S. Hirata, C.-P. Hsu, G. Kedziora,
 R. Z. Khaliullin, P. Klunzinger, A. M. Lee, M. S. Lee, W. Liang,
 I. Lotan, N. Nair, B. Peters, E. I. Proynov, P. A. Pieniazek, 
 Y. M. Rhee, J. Ritchie, E. Rosta, C. D. Sherrill, 
 A. C. Simmonett, J. E. Subotnik, H. L. Woodcock III,
 W. Zhang, A. T. Bell, A. K. Chakraborty, D. M. Chipman,
 F. J. Keil, A. Warshel, W. J. Hehre, H. F. Schaefer III,
 J. Kong, A. I. Krylov, P. M. W. Gill, M. Head-Gordon,
 Q-Chem, Version 3.1, Q-Chem, Inc., Pittsburgh, PA (2007).

 Additional authors for Version 3.1: 
 Z. Gan, Y. Zhao, N. E. Schultz, D. Truhlar, E. Epifanovsky and M. Oana.

 Additional authors for Version 3.2: 
 R. Baer, B. R. Brooks, D. Casanova, J.-D. Chai, C.-L. Cheng, 
 C. Cramer, D. Crittenden, A. Ghysels, G. Hawkins, E. G. Hohenstein, 
 C. Kelley, W. Kurlancheek, D. Liotard, E. Livshits, P. Manohar, 
 A. Marenich, D. Neuhauser, R. Olson, M. A. Rohrdanz, K. S. Thanthiriwatte, 
 A. J. W. Thom, V. Vanovschi, C. F. Williams, Q. Wu and Z.-Q. You. 


 Intel X86 Linux Version

 Q-chem begins on Tue Apr 30 22:39:44 2013  

 Parallel job on  1  processors
Processing $rem in /usr/local/qchem/config/preferences.

theFileMan(): MAXOPENFILES=974 MAX_SUB_FILE_NUM=16
Maximum size of a physical file is 2.0 GB, maximum size of a tmp-file is 32.0 GB


--------------------------------------------------------------
User input:
--------------------------------------------------------------

$molecule
0,1
C
H,1,R
Cl,1,R1,2,A
Cl,1,R1,2,A,3,120.,0
Cl,1,R1,2,A,3,-120.,0

R=1.08553635
R1=1.78773686
A=107.50826708

$end

$comment
neutral
$end

$xc_functional
C PBE   1.00
X wPBE  1.00
$end


$rem
SYMMETRY_DECOMPOSITION	0
LRC_DFT                 true
exchange 		general
BASIS                   g3large
omega			380
mem_static              760
max_scf_cycles          200
scf_final_print         1
sym_ignore              true
$end

--------------------------------------------------------------
 Writing REM_CC_EA            5
 ----------------------------------------------------
       Standard Nuclear Orientation (Angstroms)
    I     Atom         X            Y            Z
 ----------------------------------------------------
    1      C       0.000000     0.000000     0.000000
    2      H       0.000000     0.000000     1.085536
    3      Cl      1.704917     0.000000    -0.537829
    4      Cl     -0.852459    -1.476502    -0.537829
    5      Cl     -0.852459     1.476502    -0.537829
 ----------------------------------------------------
 Nuclear Repulsion Energy =   260.3321865543 hartrees
 There are       29 alpha and       29 beta electrons
 Requested basis set is G3large
 There are 73 shells and 250 basis functions

Total QAlloc Memory Limit   2000 MB
Mega-Array Size       743 MB
MEM_STATIC part       760 MB

                       Distance Matrix (Angstroms)
             C (  1)   H (  2)   Cl(  3)   Cl(  4)
   H (  2)  1.085536
   Cl(  3)  1.787737  2.354158
   Cl(  4)  1.787737  2.354158  2.953003
   Cl(  5)  1.787737  2.354158  2.953003  2.953003
 
 A cutoff of  1.0D-08 yielded   2236 shell pairs
 There are  26872 function pairs ( 37270 Cartesian)
Evaluating contribution to one-electron hamiltonian from nuclear
 Smallest overlap matrix eigenvalue = 9.07E-05

 Q-Chem warning in module mkSTV.C, line 194:

 Overlap eigenvalue is smaller than square root of threshold

 Multipole matrices computed through 2nd order

  Scale SEOQF with 1.000000e-01/1.000000e-01/1.000000e-01

 Standard Electronic Orientation quadrupole field applied
 Nucleus-field energy     =     0.0000000062 hartrees
 Guess from superposition of atomic densities
 Warning:  Energy on first SCF cycle will be non-variational
 Long-range K will be added via erf
 Coulomb attenuation parameter = 0.38 bohr**(-1)
 A restricted Kohn-Sham SCF calculation will be
 performed using Pulay DIIS extrapolation
 Exchange:  wPBE + LR-HF      Correlation:  PBE
 Using SG-1 standard quadrature grid
 SCF converges when DIIS error is below 1.0E-05
 Requested basis set is G3large
 There are 73 shells and 250 basis functions
 A cutoff of  1.0D-08 yielded   2236 shell pairs
 There are  26872 function pairs ( 37270 Cartesian)
 ---------------------------------------
  Cycle       Energy         DIIS Error
 ---------------------------------------
    1   -1419.4351943999      2.06E-02
    2   -1418.7642196873      3.59E-03
    3   -1418.7455890061      4.50E-03
    4   -1418.8723112661      2.70E-04
    5   -1418.8732042160      1.01E-04
    6   -1418.8733477461      3.47E-05
    7   -1418.8733729965      1.01E-05
    8   -1418.8733727188      3.10E-06 Convergence criterion met
 ---------------------------------------
 One-Electron    Energy = -2476.4904561770
 Total Coulomb   Energy =   887.3168409612
 Alpha Exchange  Energy =    -5.7455008987
 Beta  Exchange  Energy =    -5.7455008987
 DFT   Exchange  Energy =   -76.3065558020
 DFT Correlation Energy =    -2.2343864641
 Nuclear Repu.   Energy =   260.3321865605
 Nuclear Attr.   Energy = -3893.2333452515
 Kinetic         Energy =  1416.7428890746
 SCF time:  CPU 176.18 s  wall 176.91 s
 Final Alpha MO Eigenvalues
            1           2           3           4           5           6
    1-100.8958701-100.8958604-100.8957764 -10.2908394  -9.4176627  -9.4176389
            7           8           9          10          11          12
    1  -9.4175644  -7.2379396  -7.2378648  -7.2377883  -7.2262578  -7.2260948
           13          14          15          16          17          18
    1  -7.2260429  -7.2260191  -7.2259852  -7.2259085  -1.0883757  -0.9826492
           19          20          21          22          23          24
    1  -0.9826287  -0.7899520  -0.6367148  -0.5976626  -0.5976456  -0.4785869
           25          26          27          28          29          30
    1  -0.4785775  -0.4481993  -0.4481841  -0.4427947  -0.4304715   0.0339452
           31          32          33          34
    1   0.0441501   0.0719729   0.0719856   0.0940075
 Analysis of SCF Wavefunction
 
 --------------------------------------------------------------
                    Orbital Energies (a.u.)
 --------------------------------------------------------------
 
 Alpha MOs
 -- Occupied --
*******-100.896-100.896 -10.291  -9.418  -9.418  -9.418  -7.238
 -7.238  -7.238  -7.226  -7.226  -7.226  -7.226  -7.226  -7.226
 -1.088  -0.983  -0.983  -0.790  -0.637  -0.598  -0.598  -0.479
 -0.479  -0.448  -0.448  -0.443  -0.430
 -- Virtual --
  0.034   0.044   0.072   0.072   0.094   0.108   0.108   0.138
  0.138   0.142   0.152   0.152   0.175   0.179   0.181   0.181
  0.188   0.200   0.229   0.229   0.316   0.327   0.327   0.365
  0.365   0.382   0.422   0.426   0.430   0.430   0.439   0.439
  0.499   0.501   0.521   0.521   0.552   0.552   0.557   0.585
  0.585   0.610   0.639   0.639   0.659   0.748   0.775   0.776
  0.788   0.915   0.956   0.956   0.985   0.985   1.039   1.088
  1.088   1.127   1.127   1.134   1.166   1.178   1.178   1.188
  1.193   1.198   1.198   1.211   1.211   1.234   1.242   1.242
  1.245   1.290   1.290   1.291   1.362   1.362   1.446   1.469
  1.469   1.519   1.531   1.531   1.546   1.563   1.639   1.639
  1.703   1.703   1.753   1.783   1.783   1.796   1.821   1.821
  1.934   2.275   2.275   2.276   2.312   2.359   2.359   2.397
  2.397   2.612   2.770   3.064   3.064   3.200   3.258   3.258
  3.396   3.421   3.472   3.472   3.534   3.676   3.676   3.840
  3.840   3.948   4.316   4.317   4.402   4.402   4.421   4.434
  4.434   4.443   4.454   4.483   4.483   4.507   4.507   4.510
  4.569   4.569   4.604   4.645   4.645   4.675   4.688   4.711
  4.711   5.106   5.116   5.116   5.133   5.133   5.140   5.206
  5.282   5.283   5.302   5.303   5.386   5.494   5.801   5.802
  5.836   9.834   9.835   9.860  20.561  20.561  20.571  20.577
 20.606  20.607  20.819  20.820  20.895  23.771  27.066  27.073
 27.087  27.089  27.114  27.135  27.149  27.153  27.157  27.164
 27.187  27.197  27.201  27.231  27.265  27.876  27.883  27.911
 36.780  36.781  36.781  36.783  36.783  36.784  36.787  36.789
 36.789  36.792  36.792  36.795  36.795  36.797  36.803  36.805
 36.805  36.809  36.811  36.812  36.816  40.752  40.801  41.003
 41.006  41.022 215.704 215.704 215.760
 --------------------------------------------------------------
 
          Ground-State Mulliken Net Atomic Charges

     Atom                 Charge (a.u.)
  ----------------------------------------
      1 C                     0.799446
      2 H                     0.048218
      3 Cl                   -0.282445
      4 Cl                   -0.282550
      5 Cl                   -0.282669
  ----------------------------------------
  Sum of atomic charges =     0.000000

 -----------------------------------------------------------------
                    Cartesian Multipole Moments
 -----------------------------------------------------------------
    Charge (ESU x 10^10)
                 0.0000
    Dipole Moment (Debye)
         X       0.0004      Y      -0.0007      Z       1.1091
       Tot       1.1091
    Quadrupole Moments (Debye-Ang)
        XX     -43.9953     XY      -0.0001     YY     -43.9964
        XZ      -0.0007     YZ       0.0004     ZZ     -42.9166
    Octapole Moments (Debye-Ang^2)
       XXX       3.9764    XXY      -0.0011    XYY      -3.9747
       YYY      -0.0032    XXZ      17.0818    XYZ       0.0005
       YYZ      17.0801    XZZ       0.0011    YZZ      -0.0001
       ZZZ      61.0810
    Hexadecapole Moments (Debye-Ang^3)
      XXXX    -357.9246   XXXY      -0.0047   XXYY    -119.3138
      XYYY       0.0014   YYYY    -357.9366   XXXZ      -5.7153
      XXYZ       0.0005   XYYZ       5.7134   YYYZ       0.0016
      XXZZ     -80.7069   XYZZ      -0.0010   YYZZ     -80.7046
      XZZZ      -0.0030   YZZZ      -0.0002   ZZZZ    -117.9648
 -----------------------------------------------------------------
 Total job time:  177.28s(wall), 176.53s(cpu) 
 Tue Apr 30 22:42:42 2013

        *************************************************************
        *                                                           *
        *  Thank you very much for using Q-Chem.  Have a nice day.  *
        *                                                           *
        *************************************************************


0 sent ACK to 0 
now end server 0 ... 
 
**********************************************************************
Job 3 of 3 
**********************************************************************
 
Process 0 of 1 is on cl077.stfx.acenet.ca - thread support 1
initial socket setup ...start
initial socket setup ...done 
now start server 0 ... 

cmd = /usr/bin/ssh clhead /usr/local/qchem/bin/get_hostid 132538685 > /scratch/tmp/5956273.1.short.q/qchem10635/lic.dat
                  Welcome to Q-Chem
     A Quantum Leap Into The Future Of Chemistry

 Y. Shao, L. Fusti-Molnar, Y. Jung, J. Kussmann, C. Ochsenfeld,
 S. T. Brown, A. T. B. Gilbert, L. V. Slipchenko,S. V. Levchenko,
 D. P. O'Neill, R. A. DiStasio Jr., R. C. Lochan, T. Wang,
 G. J. O. Beran, N. A. Besley, J. M. Herbert, C. Y. Lin,
 T. Van Voorhis, S. H. Chien, A. Sodt, R. P. Steele, 
 V. A. Rassolov, P. E. Maslen, P. P. Korambath, R. D. Adamson,
 B. Austin, J. Baker, E. F. C. Byrd, H. Dachsel, R. J. Doerksen,
 A. Dreuw, B. D. Dunietz, A. D. Dutoi, T. R. Furlani,
 S. R. Gwaltney, A. Heyden, S. Hirata, C.-P. Hsu, G. Kedziora,
 R. Z. Khaliullin, P. Klunzinger, A. M. Lee, M. S. Lee, W. Liang,
 I. Lotan, N. Nair, B. Peters, E. I. Proynov, P. A. Pieniazek, 
 Y. M. Rhee, J. Ritchie, E. Rosta, C. D. Sherrill, 
 A. C. Simmonett, J. E. Subotnik, H. L. Woodcock III,
 W. Zhang, A. T. Bell, A. K. Chakraborty, D. M. Chipman,
 F. J. Keil, A. Warshel, W. J. Hehre, H. F. Schaefer III,
 J. Kong, A. I. Krylov, P. M. W. Gill, M. Head-Gordon,
 Q-Chem, Version 3.1, Q-Chem, Inc., Pittsburgh, PA (2007).

 Additional authors for Version 3.1: 
 Z. Gan, Y. Zhao, N. E. Schultz, D. Truhlar, E. Epifanovsky and M. Oana.

 Additional authors for Version 3.2: 
 R. Baer, B. R. Brooks, D. Casanova, J.-D. Chai, C.-L. Cheng, 
 C. Cramer, D. Crittenden, A. Ghysels, G. Hawkins, E. G. Hohenstein, 
 C. Kelley, W. Kurlancheek, D. Liotard, E. Livshits, P. Manohar, 
 A. Marenich, D. Neuhauser, R. Olson, M. A. Rohrdanz, K. S. Thanthiriwatte, 
 A. J. W. Thom, V. Vanovschi, C. F. Williams, Q. Wu and Z.-Q. You. 


 Intel X86 Linux Version

 Q-chem begins on Tue Apr 30 22:42:44 2013  

 Parallel job on  1  processors
Processing $rem in /usr/local/qchem/config/preferences.

theFileMan(): MAXOPENFILES=974 MAX_SUB_FILE_NUM=16
Maximum size of a physical file is 2.0 GB, maximum size of a tmp-file is 32.0 GB


--------------------------------------------------------------
User input:
--------------------------------------------------------------

$molecule
1,2
C
H,1,R
Cl,1,R1,2,A
Cl,1,R1,2,A,3,120.,0
Cl,1,R1,2,A,3,-120.,0

R=1.08553635
R1=1.78773686
A=107.50826708

$end

$comment
positive
$end

$xc_functional
C PBE   1.00
X wPBE  1.00
$end

$rem
SYMMETRY_DECOMPOSITION	0
LRC_DFT                 true
exchange 		general
BASIS                   g3large
omega			380
mem_static              760
max_scf_cycles          200
scf_final_print         1
sym_ignore              true
$end

--------------------------------------------------------------
 Writing REM_CC_EA            5
 ----------------------------------------------------
       Standard Nuclear Orientation (Angstroms)
    I     Atom         X            Y            Z
 ----------------------------------------------------
    1      C       0.000000     0.000000     0.000000
    2      H       0.000000     0.000000     1.085536
    3      Cl      1.704917     0.000000    -0.537829
    4      Cl     -0.852459    -1.476502    -0.537829
    5      Cl     -0.852459     1.476502    -0.537829
 ----------------------------------------------------
 Nuclear Repulsion Energy =   260.3321865543 hartrees
 There are       29 alpha and       28 beta electrons
 Requested basis set is G3large
 There are 73 shells and 250 basis functions

Total QAlloc Memory Limit   2000 MB
Mega-Array Size       743 MB
MEM_STATIC part       760 MB

                       Distance Matrix (Angstroms)
             C (  1)   H (  2)   Cl(  3)   Cl(  4)
   H (  2)  1.085536
   Cl(  3)  1.787737  2.354158
   Cl(  4)  1.787737  2.354158  2.953003
   Cl(  5)  1.787737  2.354158  2.953003  2.953003
 
 A cutoff of  1.0D-08 yielded   2236 shell pairs
 There are  26872 function pairs ( 37270 Cartesian)
Evaluating contribution to one-electron hamiltonian from nuclear
 Smallest overlap matrix eigenvalue = 9.07E-05

 Q-Chem warning in module mkSTV.C, line 194:

 Overlap eigenvalue is smaller than square root of threshold

 Multipole matrices computed through 2nd order

  Scale SEOQF with 1.000000e-01/1.000000e-01/1.000000e-01

 Standard Electronic Orientation quadrupole field applied
 Nucleus-field energy     =     0.0000000062 hartrees
 Guess from superposition of atomic densities
 Warning:  Energy on first SCF cycle will be non-variational
 Long-range K will be added via erf
 Coulomb attenuation parameter = 0.38 bohr**(-1)
 An unrestricted Kohn-Sham SCF calculation will be
 performed using Pulay DIIS extrapolation
 Exchange:  wPBE + LR-HF      Correlation:  PBE
 Using SG-1 standard quadrature grid
 SCF converges when DIIS error is below 1.0E-05
 Requested basis set is G3large
 There are 73 shells and 250 basis functions
 A cutoff of  1.0D-08 yielded   2236 shell pairs
 There are  26872 function pairs ( 37270 Cartesian)
 Warning!  Inaccurate integrated density:
   Number of electrons =    57
   Numerical integral  =    57.999919144246
   Relative error      =     1.7542441127 %
 ---------------------------------------
  Cycle       Energy         DIIS Error
 ---------------------------------------
    1   -1419.4351943999      2.06E-02
    2   -1418.2436304851      4.39E-03
    3   -1418.2288667021      5.58E-03
    4   -1418.4337364261      4.38E-04
    5   -1418.4357378851      1.79E-04
    6   -1418.4363465909      6.62E-05
    7   -1418.4366678220      4.36E-05
    8   -1418.4369468351      4.51E-05
    9   -1418.4372023302      4.10E-05
   10   -1418.4377753678      4.07E-05
   11   -1418.4383286046      3.91E-05
   12   -1418.4389390084      2.99E-05
   13   -1418.4397852259      2.10E-05
   14   -1418.4398321063      1.87E-05
   15   -1418.4403134742      6.66E-05
   16   -1418.4403366596      3.57E-05
   17   -1418.4404225988      6.19E-05
   18   -1418.4404689033      4.43E-05
   19   -1418.4405218013      4.18E-05
   20   -1418.4405806410      1.40E-05
   21   -1418.4406176567      1.11E-05
   22   -1418.4406318441      3.41E-06 Convergence criterion met
 ---------------------------------------
 One-Electron    Energy = -2462.0430007425
 Total Coulomb   Energy =   872.8968134150
 Alpha Exchange  Energy =    -5.7622296172
 Beta  Exchange  Energy =    -5.5251935843
 DFT   Exchange  Energy =   -76.1440310363
 DFT Correlation Energy =    -2.1951768392
 Nuclear Repu.   Energy =   260.3321865605
 Nuclear Attr.   Energy = -3878.3109268632
 Kinetic         Energy =  1416.2679261207
 <S^2> = 0.7592
 SCF time:  CPU 617.42 s  wall 620.67 s
 Final Alpha MO Eigenvalues
            1           2           3           4           5           6
    1-101.1637736-101.1610451-101.1572823 -10.5179186  -9.6819887  -9.6793435
            7           8           9          10          11          12
    1  -9.6757028  -7.5003205  -7.4978054  -7.4975480  -7.4946313  -7.4941423
           13          14          15          16          17          18
    1  -7.4908376  -7.4878651  -7.4852770  -7.4816969  -1.3305538  -1.2339835
           19          20          21          22          23          24
    1  -1.2308500  -1.0230784  -0.8642438  -0.8374539  -0.8368067  -0.7293570
           25          26          27          28          29          30
    1  -0.7275735  -0.6930416  -0.6899010  -0.6877833  -0.6744022  -0.1855523
           31          32          33          34
    1  -0.1365253  -0.1357184  -0.0992582  -0.0546478
 Final Beta MO Eigenvalues
            1           2           3           4           5           6
    1-101.1612500-101.1586172-101.1549905 -10.5181600  -9.6797577  -9.6771969
            7           8           9          10          11          12
    1  -9.6736798  -7.4987932  -7.4963329  -7.4930382  -7.4908190  -7.4881507
           13          14          15          16          17          18
    1  -7.4865482  -7.4844194  -7.4840198  -7.4805343  -1.3224864  -1.2153007
           19          20          21          22          23          24
    1  -1.2133138  -1.0148770  -0.8620680  -0.8248535  -0.8229689  -0.6967321
           25          26          27          28          29          30
    1  -0.6938390  -0.6700600  -0.6518049  -0.6515742  -0.4350440  -0.1815962
           31          32          33
    1  -0.1311287  -0.1302765  -0.0990641
 Analysis of SCF Wavefunction
 
 --------------------------------------------------------------
                    Orbital Energies (a.u.)
 --------------------------------------------------------------
 
 Alpha MOs
 -- Occupied --
*******-101.161-101.157 -10.518  -9.682  -9.679  -9.676  -7.500
 -7.498  -7.498  -7.495  -7.494  -7.491  -7.488  -7.485  -7.482
 -1.331  -1.234  -1.231  -1.023  -0.864  -0.837  -0.837  -0.729
 -0.728  -0.693  -0.690  -0.688  -0.674
 -- Virtual --
 -0.186  -0.137  -0.136  -0.099  -0.055  -0.046  -0.046  -0.012
 -0.012  -0.011   0.001   0.001   0.018   0.028   0.033   0.033
  0.038   0.042   0.055   0.056   0.109   0.109   0.138   0.159
  0.159   0.183   0.199   0.213   0.215   0.240   0.240   0.244
  0.284   0.324   0.343   0.344   0.352   0.352   0.364   0.383
  0.384   0.410   0.430   0.431   0.479   0.533   0.572   0.573
  0.574   0.707   0.740   0.741   0.765   0.766   0.825   0.861
  0.862   0.902   0.903   0.914   0.949   0.950   0.951   0.955
  0.957   0.966   0.967   0.988   0.988   1.008   1.014   1.015
  1.019   1.063   1.064   1.066   1.142   1.143   1.217   1.240
  1.241   1.312   1.313   1.315   1.340   1.348   1.419   1.419
  1.480   1.481   1.535   1.556   1.558   1.579   1.600   1.601
  1.696   2.030   2.039   2.039   2.082   2.122   2.123   2.166
  2.168   2.384   2.552   2.840   2.840   2.973   3.032   3.033
  3.167   3.203   3.242   3.244   3.309   3.451   3.451   3.613
  3.613   3.729   4.085   4.085   4.142   4.145   4.161   4.176
  4.176   4.187   4.190   4.225   4.226   4.254   4.259   4.261
  4.320   4.321   4.360   4.394   4.394   4.418   4.442   4.468
  4.470   4.847   4.857   4.860   4.874   4.877   4.882   4.963
  5.028   5.030   5.052   5.052   5.129   5.275   5.551   5.554
  5.592   9.577   9.580   9.605  20.298  20.298  20.304  20.320
 20.344  20.344  20.559  20.563  20.637  23.544  26.807  26.811
 26.823  26.829  26.860  26.874  26.886  26.889  26.894  26.900
 26.930  26.936  26.940  26.970  27.009  27.640  27.646  27.681
 36.517  36.519  36.520  36.520  36.522  36.522  36.525  36.525
 36.528  36.529  36.530  36.533  36.535  36.538  36.543  36.546
 36.547  36.549  36.553  36.554  36.556  40.525  40.574  40.776
 40.779  40.795 215.439 215.442 215.496
 
 Beta MOs
 -- Occupied --
*******-101.159-101.155 -10.518  -9.680  -9.677  -9.674  -7.499
 -7.496  -7.493  -7.491  -7.488  -7.487  -7.484  -7.484  -7.481
 -1.322  -1.215  -1.213  -1.015  -0.862  -0.825  -0.823  -0.697
 -0.694  -0.670  -0.652  -0.652
 -- Virtual --
 -0.435  -0.182  -0.131  -0.130  -0.099  -0.055  -0.045  -0.045
 -0.011  -0.011  -0.011   0.002   0.002   0.018   0.029   0.033
  0.034   0.041   0.042   0.061   0.061   0.120   0.120   0.140
  0.167   0.168   0.188   0.216   0.224   0.225   0.244   0.244
  0.245   0.301   0.326   0.345   0.346   0.358   0.359   0.365
  0.392   0.392   0.413   0.434   0.435   0.479   0.545   0.573
  0.574   0.576   0.708   0.744   0.744   0.769   0.769   0.827
  0.870   0.870   0.909   0.909   0.918   0.956   0.959   0.960
  0.967   0.969   0.979   0.979   0.994   0.994   1.018   1.022
  1.023   1.024   1.072   1.074   1.077   1.147   1.148   1.225
  1.249   1.250   1.317   1.318   1.319   1.342   1.350   1.422
  1.423   1.486   1.487   1.539   1.566   1.568   1.581   1.601
  1.602   1.706   2.048   2.049   2.051   2.086   2.133   2.134
  2.169   2.170   2.386   2.553   2.840   2.840   2.972   3.032
  3.032   3.168   3.202   3.243   3.244   3.309   3.450   3.450
  3.613   3.613   3.728   4.094   4.094   4.161   4.162   4.180
  4.193   4.193   4.204   4.213   4.243   4.243   4.268   4.269
  4.271   4.330   4.332   4.364   4.405   4.405   4.434   4.447
  4.476   4.478   4.854   4.863   4.866   4.881   4.883   4.889
  4.963   5.033   5.034   5.054   5.055   5.137   5.275   5.555
  5.557   5.595   9.581   9.584   9.610  20.304  20.304  20.314
 20.321  20.349  20.350  20.562  20.565  20.639  23.544  26.812
 26.816  26.828  26.832  26.862  26.878  26.891  26.894  26.899
 26.904  26.931  26.939  26.942  26.975  27.011  27.641  27.647
 27.681  36.519  36.520  36.522  36.522  36.524  36.524  36.527
 36.527  36.530  36.531  36.532  36.535  36.537  36.539  36.544
 36.546  36.548  36.550  36.553  36.555  36.557  40.525  40.574
 40.776  40.779  40.794 215.441 215.445 215.498
 --------------------------------------------------------------
 
          Ground-State Mulliken Net Atomic Charges

     Atom                 Charge (a.u.)    Spin (a.u.)
  --------------------------------------------------------
      1 C                     0.795902      -0.025326
      2 H                     0.088869       0.003131
      3 Cl                    0.028256       0.323479
      4 Cl                    0.039819       0.342822
      5 Cl                    0.047154       0.355893
  --------------------------------------------------------
  Sum of atomic charges =     1.000000
  Sum of spin   charges =     1.000000

 -----------------------------------------------------------------
                    Cartesian Multipole Moments
 -----------------------------------------------------------------
    Charge (ESU x 10^10)
                 4.8032
    Dipole Moment (Debye)
         X      -0.1028      Y       0.0430      Z      -1.1646
       Tot       1.1699
    Quadrupole Moments (Debye-Ang)
        XX     -31.5429     XY      -0.0527     YY     -31.2943
        XZ       0.0658     YZ      -0.0273     ZZ     -38.1959
    Octapole Moments (Debye-Ang^2)
       XXX       9.5670    XXY       0.0463    XYY      -9.9897
       YYY       0.1306    XXZ      10.8246    XYZ       0.0137
       YYZ      10.7620    XZZ      -0.0867    YZZ       0.0370
       ZZZ      56.0802
    Hexadecapole Moments (Debye-Ang^3)
      XXXX    -294.6823   XXXY      -0.2380   XXYY     -98.2173
      XYYY      -0.0782   YYYY    -293.1998   XXXZ      -8.2455
      XXYZ      -0.0589   XYYZ       8.4834   YYYZ      -0.0384
      XXZZ     -69.4858   XYZZ      -0.0273   YYZZ     -69.3623
      XZZZ       0.1126   YZZZ      -0.0492   ZZZZ    -103.9623
 -----------------------------------------------------------------
 Total job time:  621.04s(wall), 617.78s(cpu) 
 Tue Apr 30 22:53:05 2013

        *************************************************************
        *                                                           *
        *  Thank you very much for using Q-Chem.  Have a nice day.  *
        *                                                           *
        *************************************************************


0 sent ACK to 0 
now end server 0 ... 
