Process 0 of 1 is on cl200.stfx.acenet.ca - thread support 1
initial socket setup ...start
initial socket setup ...done 
now start server 0 ... 

cmd = /usr/bin/ssh clhead /usr/local/qchem/bin/get_hostid 116514852 > /scratch/tmp/6064093.1.medium.q/qchem22072/lic.dat
                  Welcome to Q-Chem
     A Quantum Leap Into The Future Of Chemistry

 Y. Shao, L. Fusti-Molnar, Y. Jung, J. Kussmann, C. Ochsenfeld,
 S. T. Brown, A. T. B. Gilbert, L. V. Slipchenko,S. V. Levchenko,
 D. P. O'Neill, R. A. DiStasio Jr., R. C. Lochan, T. Wang,
 G. J. O. Beran, N. A. Besley, J. M. Herbert, C. Y. Lin,
 T. Van Voorhis, S. H. Chien, A. Sodt, R. P. Steele, 
 V. A. Rassolov, P. E. Maslen, P. P. Korambath, R. D. Adamson,
 B. Austin, J. Baker, E. F. C. Byrd, H. Dachsel, R. J. Doerksen,
 A. Dreuw, B. D. Dunietz, A. D. Dutoi, T. R. Furlani,
 S. R. Gwaltney, A. Heyden, S. Hirata, C.-P. Hsu, G. Kedziora,
 R. Z. Khaliullin, P. Klunzinger, A. M. Lee, M. S. Lee, W. Liang,
 I. Lotan, N. Nair, B. Peters, E. I. Proynov, P. A. Pieniazek, 
 Y. M. Rhee, J. Ritchie, E. Rosta, C. D. Sherrill, 
 A. C. Simmonett, J. E. Subotnik, H. L. Woodcock III,
 W. Zhang, A. T. Bell, A. K. Chakraborty, D. M. Chipman,
 F. J. Keil, A. Warshel, W. J. Hehre, H. F. Schaefer III,
 J. Kong, A. I. Krylov, P. M. W. Gill, M. Head-Gordon,
 Q-Chem, Version 3.1, Q-Chem, Inc., Pittsburgh, PA (2007).

 Additional authors for Version 3.1: 
 Z. Gan, Y. Zhao, N. E. Schultz, D. Truhlar, E. Epifanovsky and M. Oana.

 Additional authors for Version 3.2: 
 R. Baer, B. R. Brooks, D. Casanova, J.-D. Chai, C.-L. Cheng, 
 C. Cramer, D. Crittenden, A. Ghysels, G. Hawkins, E. G. Hohenstein, 
 C. Kelley, W. Kurlancheek, D. Liotard, E. Livshits, P. Manohar, 
 A. Marenich, D. Neuhauser, R. Olson, M. A. Rohrdanz, K. S. Thanthiriwatte, 
 A. J. W. Thom, V. Vanovschi, C. F. Williams, Q. Wu and Z.-Q. You. 


 Intel X86 Linux Version

 Q-chem begins on Sun Jul  7 09:41:19 2013  

 Parallel job on  1  processors
Processing $rem in /usr/local/qchem/config/preferences.

theFileMan(): MAXOPENFILES=974 MAX_SUB_FILE_NUM=16
Maximum size of a physical file is 2.0 GB, maximum size of a tmp-file is 32.0 GB


--------------------------------------------------------------
User input:
--------------------------------------------------------------

$molecule
-1,2
C          0.74096        0.79405        0.00000
S          0.00000       -0.83481        0.00000
C         -0.74096        0.79405        0.00000
H          1.24877        1.08067       -0.91461
H          1.24877        1.08067        0.91461
H         -1.24877        1.08067        0.91461
H         -1.24877        1.08067       -0.91461
$end

$comment
negative
$end

$xc_functional
C PBE   1.00
X wPBE  1.00
$end

$rem
SYMMETRY_DECOMPOSITION	0
exchange 		general
LRC_DFT                 true
BASIS                   g3large
omega			260
mem_static              760
max_scf_cycles          200
scf_final_print         1
sym_ignore              true
$end

--------------------------------------------------------------
 Writing REM_CC_EA            7
 ----------------------------------------------------
       Standard Nuclear Orientation (Angstroms)
    I     Atom         X            Y            Z
 ----------------------------------------------------
    1      C       0.740960     0.794050     0.000000
    2      S       0.000000    -0.834810     0.000000
    3      C      -0.740960     0.794050     0.000000
    4      H       1.248770     1.080670    -0.914610
    5      H       1.248770     1.080670     0.914610
    6      H      -1.248770     1.080670     0.914610
    7      H      -1.248770     1.080670    -0.914610
 ----------------------------------------------------
 Nuclear Repulsion Energy =   102.1883315095 hartrees
 There are       17 alpha and       16 beta electrons
 Requested basis set is G3large
 There are 63 shells and 190 basis functions

Total QAlloc Memory Limit   2000 MB
Mega-Array Size       743 MB
MEM_STATIC part       760 MB

                       Distance Matrix (Angstroms)
             C (  1)   S (  2)   C (  3)   H (  4)   H (  5)   H (  6)
   S (  2)  1.789471
   C (  3)  1.481920  1.789471
   H (  4)  1.084681  2.462722  2.208549
   H (  5)  1.084681  2.462722  2.208549  1.829220
   H (  6)  2.208549  2.462722  1.084681  3.095764  2.497540
   H (  7)  2.208549  2.462722  1.084681  2.497540  3.095764  1.829220

 
 A cutoff of  1.0D-08 yielded   1930 shell pairs
 There are  17755 function pairs ( 22821 Cartesian)
Evaluating contribution to one-electron hamiltonian from nuclear
 Smallest overlap matrix eigenvalue = 7.57E-05

 Q-Chem warning in module mkSTV.C, line 194:

 Overlap eigenvalue is smaller than square root of threshold

 Multipole matrices computed through 2nd order

  Scale SEOQF with 1.000000e-01/1.000000e-01/1.000000e-01

 Standard Electronic Orientation quadrupole field applied
 Nucleus-field energy     =     0.0000000018 hartrees
 Guess from superposition of atomic densities
 Warning:  Energy on first SCF cycle will be non-variational
 Long-range K will be added via erf
 Coulomb attenuation parameter = 0.26 bohr**(-1)
 An unrestricted Kohn-Sham SCF calculation will be
 performed using Pulay DIIS extrapolation
 Exchange:  wPBE + LR-HF      Correlation:  PBE
 Using SG-1 standard quadrature grid
 SCF converges when DIIS error is below 1.0E-05
 Requested basis set is G3large
 There are 63 shells and 190 basis functions
 A cutoff of  1.0D-08 yielded   1930 shell pairs
 There are  17755 function pairs ( 22821 Cartesian)
 Warning!  Inaccurate integrated density:
   Number of electrons =    33
   Numerical integral  =    32.000168574254
   Relative error      =    -3.0297921992 %
 ---------------------------------------
  Cycle       Energy         DIIS Error
 ---------------------------------------
    1    -477.3036945356      3.20E-02
    2    -476.4196277732      4.03E-03
    3    -476.4444161070      4.74E-03
    4    -476.5489439431      5.71E-04
    5    -476.5529609012      3.60E-04
    6    -476.5556949379      2.25E-04
    7    -476.5574110991      1.44E-04
    8    -476.5591565571      7.61E-05
    9    -476.5599738346      3.39E-05
   10    -476.5602559019      3.23E-05
   11    -476.5603481310      3.22E-05
   12    -476.5602044456      3.07E-05
   13    -476.5598469427      1.50E-05
   14    -476.5598095648      1.01E-05
   15    -476.5598049332      2.53E-06 Convergence criterion met
 ---------------------------------------
 One-Electron    Energy =  -862.2086049656
 Total Coulomb   Energy =   321.3765001361
 Alpha Exchange  Energy =    -2.2774060366
 Beta  Exchange  Energy =    -2.2155720283
 DFT   Exchange  Energy =   -32.2753690353
 DFT Correlation Energy =    -1.1476845147
 Nuclear Repu.   Energy =   102.1883315112
 Nuclear Attr.   Energy = -1338.0433613330
 Kinetic         Energy =   475.8347563674
 <S^2> = 0.7505
 SCF time:  CPU 217.09 s  wall 217.88 s
 Final Alpha MO Eigenvalues
            1           2           3           4           5           6
    1 -88.0358860  -9.9207139  -9.9205679  -7.6700724  -5.6900204  -5.6874926
            7           8           9          10          11          12
    1  -5.6796421  -0.8100762  -0.5630581  -0.5608907  -0.4407539  -0.3955908
           13          14          15          16          17          18
    1  -0.3242071  -0.2681341  -0.2664759  -0.1742818   0.0394269   0.1267070
           19          20          21          22
    1   0.1516228   0.1680139   0.1776869   0.1904659
 Final Beta MO Eigenvalues
            1           2           3           4           5           6
    1 -88.0358432  -9.9198610  -9.9197135  -7.6700021  -5.6900394  -5.6871917
            7           8           9          10          11          12
    1  -5.6796518  -0.8086166  -0.5607816  -0.5598833  -0.4398352  -0.3935528
           13          14          15          16          17          18
    1  -0.3230205  -0.2656965  -0.2626630  -0.1737693   0.1449629   0.1499589
           19          20          21
    1   0.1566193   0.1799441   0.1807890
 Analysis of SCF Wavefunction
 
 --------------------------------------------------------------
                    Orbital Energies (a.u.)
 --------------------------------------------------------------
 
 Alpha MOs
 -- Occupied --
-88.036  -9.921  -9.921  -7.670  -5.690  -5.687  -5.680  -0.810
 -0.563  -0.561  -0.441  -0.396  -0.324  -0.268  -0.266  -0.174
  0.039
 -- Virtual --
  0.127   0.152   0.168   0.178   0.190   0.228   0.231   0.236
  0.237   0.267   0.279   0.290   0.301   0.303   0.306   0.311
  0.331   0.360   0.398   0.413   0.439   0.461   0.503   0.513
  0.539   0.539   0.558   0.603   0.609   0.641   0.660   0.684
  0.747   0.753   0.766   0.769   0.788   0.790   0.811   0.842
  0.885   0.943   0.992   1.003   1.067   1.073   1.092   1.094
  1.134   1.183   1.189   1.195   1.215   1.225   1.265   1.276
  1.341   1.377   1.403   1.416   1.449   1.456   1.488   1.511
  1.517   1.555   1.556   1.582   1.620   1.637   1.661   1.677
  1.711   1.716   1.749   1.791   1.821   2.111   2.315   2.378
  2.684   2.690   2.859   2.861   2.970   3.006   3.014   3.064
  3.098   3.161   3.232   3.234   3.280   3.308   3.315   3.328
  3.344   3.454   3.513   3.551   3.566   3.583   3.602   3.701
  3.712   3.738   3.758   3.833   3.849   3.851   3.855   3.944
  3.990   4.020   4.164   4.172   4.187   4.276   4.368   4.398
  4.402   4.421   4.495   4.498   4.612   4.705   4.710   4.826
  4.868   4.988   5.158   5.275   5.308   5.512   5.572   5.740
  5.797   5.837   8.596  17.242  17.447  17.610  23.545  23.660
 23.705  23.739  23.810  24.155  24.338  27.538  27.851  28.080
 28.150  28.208  28.520  30.986  30.987  30.993  30.999  31.004
 31.014  31.038  40.938  41.004  41.024  41.125  41.213  41.227
 41.235  41.237  41.314  41.334 189.139
 
 Beta MOs
 -- Occupied --
-88.036  -9.920  -9.920  -7.670  -5.690  -5.687  -5.680  -0.809
 -0.561  -0.560  -0.440  -0.394  -0.323  -0.266  -0.263  -0.174
 -- Virtual --
  0.145   0.150   0.157   0.180   0.181   0.206   0.233   0.235
  0.236   0.237   0.267   0.280   0.293   0.302   0.304   0.305
  0.314   0.331   0.361   0.400   0.415   0.440   0.460   0.503
  0.514   0.539   0.539   0.559   0.605   0.609   0.641   0.660
  0.685   0.746   0.754   0.769   0.769   0.788   0.789   0.811
  0.844   0.886   0.944   0.995   1.004   1.070   1.074   1.092
  1.096   1.134   1.185   1.190   1.197   1.217   1.226   1.267
  1.277   1.342   1.379   1.404   1.416   1.450   1.457   1.489
  1.512   1.520   1.557   1.558   1.585   1.621   1.638   1.662
  1.679   1.713   1.718   1.750   1.793   1.823   2.112   2.317
  2.379   2.685   2.691   2.860   2.862   2.971   3.007   3.014
  3.067   3.099   3.163   3.234   3.235   3.282   3.309   3.316
  3.329   3.345   3.455   3.516   3.553   3.568   3.585   3.604
  3.702   3.714   3.739   3.760   3.833   3.850   3.852   3.857
  3.945   3.990   4.021   4.165   4.173   4.188   4.277   4.369
  4.399   4.404   4.421   4.496   4.499   4.614   4.706   4.711
  4.826   4.869   4.989   5.158   5.276   5.309   5.514   5.573
  5.741   5.798   5.839   8.596  17.242  17.447  17.610  23.545
 23.660  23.705  23.739  23.810  24.156  24.339  27.539  27.852
 28.081  28.151  28.209  28.521  30.987  30.987  30.993  30.999
 31.004  31.014  31.038  40.939  41.005  41.025  41.125  41.213
 41.228  41.235  41.238  41.314  41.334 189.139
 --------------------------------------------------------------
 
          Ground-State Mulliken Net Atomic Charges

     Atom                 Charge (a.u.)    Spin (a.u.)
  --------------------------------------------------------
      1 C                     1.037811      -1.018856
      2 S                    -0.805348       0.444147
      3 C                     1.024817      -1.005682
      4 H                    -0.566613       0.647425
      5 H                    -0.566054       0.646859
      6 H                    -0.562642       0.643397
      7 H                    -0.561972       0.642710
  --------------------------------------------------------
  Sum of atomic charges =    -1.000000
  Sum of spin   charges =     1.000000

 -----------------------------------------------------------------
                    Cartesian Multipole Moments
 -----------------------------------------------------------------
    Charge (ESU x 10^10)
                -4.8032
    Dipole Moment (Debye)
         X      -0.0258      Y      -2.2035      Z       0.0000
       Tot       2.2037
    Quadrupole Moments (Debye-Ang)
        XX     -71.6819     XY      -0.0088     YY     -47.7868
        XZ       0.0097     YZ      -0.0004     ZZ     -45.5592
    Octapole Moments (Debye-Ang^2)
       XXX      -0.3138    XXY     -49.9581    XYY      -0.1101
       YYY     -45.9021    XXZ      -0.0023    XYZ       0.0117
       YYZ      -0.0009    XZZ      -0.1294    YZZ     -16.8234
       ZZZ      -0.0022
    Hexadecapole Moments (Debye-Ang^3)
      XXXX    -843.5065   XXXY      -0.1904   XXYY    -235.6022
      XYYY      -0.1013   YYYY    -374.4508   XXXZ       0.1043
      XXYZ      -0.0033   XYYZ       0.0406   YYYZ      -0.0035
      XXZZ    -197.4229   XYZZ      -0.0928   YYZZ    -111.5419
      XZZZ       0.0911   YZZZ      -0.0035   ZZZZ    -246.6024
 -----------------------------------------------------------------
 Total job time:  218.13s(wall), 217.33s(cpu) 
 Sun Jul  7 09:44:57 2013

        *************************************************************
        *                                                           *
        *  Thank you very much for using Q-Chem.  Have a nice day.  *
        *                                                           *
        *************************************************************


0 sent ACK to 0 
now end server 0 ... 
 
**********************************************************************
Job 2 of 3 
**********************************************************************
 
Process 0 of 1 is on cl200.stfx.acenet.ca - thread support 1
initial socket setup ...start
initial socket setup ...done 
now start server 0 ... 

cmd = /usr/bin/ssh clhead /usr/local/qchem/bin/get_hostid 546954196 > /scratch/tmp/6064093.1.medium.q/qchem22072/lic.dat
                  Welcome to Q-Chem
     A Quantum Leap Into The Future Of Chemistry

 Y. Shao, L. Fusti-Molnar, Y. Jung, J. Kussmann, C. Ochsenfeld,
 S. T. Brown, A. T. B. Gilbert, L. V. Slipchenko,S. V. Levchenko,
 D. P. O'Neill, R. A. DiStasio Jr., R. C. Lochan, T. Wang,
 G. J. O. Beran, N. A. Besley, J. M. Herbert, C. Y. Lin,
 T. Van Voorhis, S. H. Chien, A. Sodt, R. P. Steele, 
 V. A. Rassolov, P. E. Maslen, P. P. Korambath, R. D. Adamson,
 B. Austin, J. Baker, E. F. C. Byrd, H. Dachsel, R. J. Doerksen,
 A. Dreuw, B. D. Dunietz, A. D. Dutoi, T. R. Furlani,
 S. R. Gwaltney, A. Heyden, S. Hirata, C.-P. Hsu, G. Kedziora,
 R. Z. Khaliullin, P. Klunzinger, A. M. Lee, M. S. Lee, W. Liang,
 I. Lotan, N. Nair, B. Peters, E. I. Proynov, P. A. Pieniazek, 
 Y. M. Rhee, J. Ritchie, E. Rosta, C. D. Sherrill, 
 A. C. Simmonett, J. E. Subotnik, H. L. Woodcock III,
 W. Zhang, A. T. Bell, A. K. Chakraborty, D. M. Chipman,
 F. J. Keil, A. Warshel, W. J. Hehre, H. F. Schaefer III,
 J. Kong, A. I. Krylov, P. M. W. Gill, M. Head-Gordon,
 Q-Chem, Version 3.1, Q-Chem, Inc., Pittsburgh, PA (2007).

 Additional authors for Version 3.1: 
 Z. Gan, Y. Zhao, N. E. Schultz, D. Truhlar, E. Epifanovsky and M. Oana.

 Additional authors for Version 3.2: 
 R. Baer, B. R. Brooks, D. Casanova, J.-D. Chai, C.-L. Cheng, 
 C. Cramer, D. Crittenden, A. Ghysels, G. Hawkins, E. G. Hohenstein, 
 C. Kelley, W. Kurlancheek, D. Liotard, E. Livshits, P. Manohar, 
 A. Marenich, D. Neuhauser, R. Olson, M. A. Rohrdanz, K. S. Thanthiriwatte, 
 A. J. W. Thom, V. Vanovschi, C. F. Williams, Q. Wu and Z.-Q. You. 


 Intel X86 Linux Version

 Q-chem begins on Sun Jul  7 09:44:59 2013  

 Parallel job on  1  processors
Processing $rem in /usr/local/qchem/config/preferences.

theFileMan(): MAXOPENFILES=974 MAX_SUB_FILE_NUM=16
Maximum size of a physical file is 2.0 GB, maximum size of a tmp-file is 32.0 GB


--------------------------------------------------------------
User input:
--------------------------------------------------------------

$molecule
0,1
C          0.74096        0.79405        0.00000
S          0.00000       -0.83481        0.00000
C         -0.74096        0.79405        0.00000
H          1.24877        1.08067       -0.91461
H          1.24877        1.08067        0.91461
H         -1.24877        1.08067        0.91461
H         -1.24877        1.08067       -0.91461
$end

$comment
neutral
$end

$xc_functional
C PBE   1.00
X wPBE  1.00
$end


$rem
SYMMETRY_DECOMPOSITION	0
LRC_DFT                 true
exchange 		general
BASIS                   g3large
omega			260
mem_static              760
max_scf_cycles          200
scf_final_print         1
sym_ignore              true
$end

--------------------------------------------------------------
 Writing REM_CC_EA            7
 ----------------------------------------------------
       Standard Nuclear Orientation (Angstroms)
    I     Atom         X            Y            Z
 ----------------------------------------------------
    1      C       0.740960     0.794050     0.000000
    2      S       0.000000    -0.834810     0.000000
    3      C      -0.740960     0.794050     0.000000
    4      H       1.248770     1.080670    -0.914610
    5      H       1.248770     1.080670     0.914610
    6      H      -1.248770     1.080670     0.914610
    7      H      -1.248770     1.080670    -0.914610
 ----------------------------------------------------
 Nuclear Repulsion Energy =   102.1883315095 hartrees
 There are       16 alpha and       16 beta electrons
 Requested basis set is G3large
 There are 63 shells and 190 basis functions

Total QAlloc Memory Limit   2000 MB
Mega-Array Size       743 MB
MEM_STATIC part       760 MB

                       Distance Matrix (Angstroms)
             C (  1)   S (  2)   C (  3)   H (  4)   H (  5)   H (  6)
   S (  2)  1.789471
   C (  3)  1.481920  1.789471
   H (  4)  1.084681  2.462722  2.208549
   H (  5)  1.084681  2.462722  2.208549  1.829220
   H (  6)  2.208549  2.462722  1.084681  3.095764  2.497540
   H (  7)  2.208549  2.462722  1.084681  2.497540  3.095764  1.829220

 
 A cutoff of  1.0D-08 yielded   1930 shell pairs
 There are  17755 function pairs ( 22821 Cartesian)
Evaluating contribution to one-electron hamiltonian from nuclear
 Smallest overlap matrix eigenvalue = 7.57E-05

 Q-Chem warning in module mkSTV.C, line 194:

 Overlap eigenvalue is smaller than square root of threshold

 Multipole matrices computed through 2nd order

  Scale SEOQF with 1.000000e-01/1.000000e-01/1.000000e-01

 Standard Electronic Orientation quadrupole field applied
 Nucleus-field energy     =     0.0000000018 hartrees
 Guess from superposition of atomic densities
 Warning:  Energy on first SCF cycle will be non-variational
 Long-range K will be added via erf
 Coulomb attenuation parameter = 0.26 bohr**(-1)
 A restricted Kohn-Sham SCF calculation will be
 performed using Pulay DIIS extrapolation
 Exchange:  wPBE + LR-HF      Correlation:  PBE
 Using SG-1 standard quadrature grid
 SCF converges when DIIS error is below 1.0E-05
 Requested basis set is G3large
 There are 63 shells and 190 basis functions
 A cutoff of  1.0D-08 yielded   1930 shell pairs
 There are  17755 function pairs ( 22821 Cartesian)
 ---------------------------------------
  Cycle       Energy         DIIS Error
 ---------------------------------------
    1    -477.3036945356      3.20E-02
    2    -476.5695928296      2.39E-03
    3    -476.5918681209      1.53E-03
    4    -476.6006804169      4.29E-04
    5    -476.6015426887      1.27E-04
    6    -476.6016416374      4.41E-05
    7    -476.6016549623      1.52E-05
    8    -476.6016558178      5.73E-06 Convergence criterion met
 ---------------------------------------
 One-Electron    Energy =  -857.7015677841
 Total Coulomb   Energy =   316.7393071485
 Alpha Exchange  Energy =    -2.2168366451
 Beta  Exchange  Energy =    -2.2168366451
 DFT   Exchange  Energy =   -32.2552362474
 DFT Correlation Energy =    -1.1388171558
 Nuclear Repu.   Energy =   102.1883315112
 Nuclear Attr.   Energy = -1333.4416306511
 Kinetic         Energy =   475.7400628670
 SCF time:  CPU 91.16 s  wall 91.62 s
 Final Alpha MO Eigenvalues
            1           2           3           4           5           6
    1 -88.1763765 -10.0671865 -10.0670208  -7.8113206  -5.8312799  -5.8290071
            7           8           9          10          11          12
    1  -5.8203866  -0.9528014  -0.7058782  -0.7023215  -0.5828256  -0.5374861
           13          14          15          16          17          18
    1  -0.4666922  -0.4090714  -0.4072542  -0.3132094   0.0395073   0.0454405
           19          20          21
    1   0.0546905   0.0717715   0.0813211
 Analysis of SCF Wavefunction
 
 --------------------------------------------------------------
                    Orbital Energies (a.u.)
 --------------------------------------------------------------
 
 Alpha MOs
 -- Occupied --
-88.176 -10.067 -10.067  -7.811  -5.831  -5.829  -5.820  -0.953
 -0.706  -0.702  -0.583  -0.537  -0.467  -0.409  -0.407  -0.313
 -- Virtual --
  0.040   0.045   0.055   0.072   0.081   0.085   0.121   0.123
  0.128   0.131   0.162   0.163   0.183   0.183   0.189   0.195
  0.195   0.203   0.230   0.269   0.282   0.308   0.333   0.369
  0.383   0.411   0.411   0.434   0.473   0.479   0.506   0.529
  0.555   0.615   0.619   0.632   0.635   0.654   0.655   0.677
  0.705   0.749   0.805   0.854   0.863   0.929   0.937   0.953
  0.957   0.996   1.047   1.051   1.058   1.081   1.087   1.127
  1.138   1.202   1.239   1.267   1.276   1.311   1.318   1.349
  1.375   1.378   1.417   1.418   1.445   1.482   1.497   1.525
  1.538   1.573   1.578   1.611   1.654   1.681   1.974   2.176
  2.238   2.542   2.549   2.716   2.721   2.827   2.864   2.872
  2.923   2.957   3.018   3.090   3.092   3.139   3.166   3.172
  3.186   3.201   3.312   3.371   3.409   3.424   3.440   3.461
  3.559   3.571   3.596   3.616   3.692   3.707   3.709   3.713
  3.802   3.847   3.877   4.022   4.029   4.044   4.134   4.225
  4.256   4.260   4.278   4.352   4.355   4.470   4.562   4.567
  4.684   4.726   4.845   5.016   5.132   5.166   5.370   5.430
  5.597   5.654   5.695   8.455  17.101  17.306  17.469  23.404
 23.519  23.564  23.597  23.668  24.009  24.192  27.392  27.705
 27.934  28.004  28.063  28.374  30.845  30.845  30.851  30.858
 30.863  30.873  30.896  40.792  40.858  40.878  40.978  41.066
 41.081  41.088  41.091  41.168  41.188 188.998
 --------------------------------------------------------------
 
          Ground-State Mulliken Net Atomic Charges

     Atom                 Charge (a.u.)
  ----------------------------------------
      1 C                    -0.008203
      2 S                    -0.327643
      3 C                    -0.007403
      4 H                     0.085849
      5 H                     0.085841
      6 H                     0.085772
      7 H                     0.085787
  ----------------------------------------
  Sum of atomic charges =     0.000000

 -----------------------------------------------------------------
                    Cartesian Multipole Moments
 -----------------------------------------------------------------
    Charge (ESU x 10^10)
                 0.0000
    Dipole Moment (Debye)
         X      -0.0005      Y       1.8541      Z       0.0000
       Tot       1.8541
    Quadrupole Moments (Debye-Ang)
        XX     -24.4652     XY       0.0000     YY     -26.2926
        XZ       0.0001     YZ      -0.0001     ZZ     -26.1872
    Octapole Moments (Debye-Ang^2)
       XXX      -0.0004    XXY       1.3364    XYY      -0.0012
       YYY      -3.0998    XXZ       0.0001    XYZ      -0.0005
       YYZ       0.0004    XZZ       0.0001    YZZ       3.5650
       ZZZ       0.0001
    Hexadecapole Moments (Debye-Ang^3)
      XXXX     -90.7011   XXXY       0.0009   XXYY     -36.8658
      XYYY      -0.0002   YYYY    -146.7360   XXXZ       0.0001
      XXYZ      -0.0001   XYYZ       0.0003   YYYZ      -0.0004
      XXZZ     -19.9939   XYZZ       0.0003   YYZZ     -32.7580
      XZZZ       0.0002   YZZZ      -0.0001   ZZZZ     -47.4705
 -----------------------------------------------------------------
 Total job time:  91.85s(wall), 91.37s(cpu) 
 Sun Jul  7 09:46:31 2013

        *************************************************************
        *                                                           *
        *  Thank you very much for using Q-Chem.  Have a nice day.  *
        *                                                           *
        *************************************************************


0 sent ACK to 0 
now end server 0 ... 
 
**********************************************************************
Job 3 of 3 
**********************************************************************
 
Process 0 of 1 is on cl200.stfx.acenet.ca - thread support 1
initial socket setup ...start
initial socket setup ...done 
now start server 0 ... 

cmd = /usr/bin/ssh clhead /usr/local/qchem/bin/get_hostid 1722171142 > /scratch/tmp/6064093.1.medium.q/qchem22072/lic.dat
                  Welcome to Q-Chem
     A Quantum Leap Into The Future Of Chemistry

 Y. Shao, L. Fusti-Molnar, Y. Jung, J. Kussmann, C. Ochsenfeld,
 S. T. Brown, A. T. B. Gilbert, L. V. Slipchenko,S. V. Levchenko,
 D. P. O'Neill, R. A. DiStasio Jr., R. C. Lochan, T. Wang,
 G. J. O. Beran, N. A. Besley, J. M. Herbert, C. Y. Lin,
 T. Van Voorhis, S. H. Chien, A. Sodt, R. P. Steele, 
 V. A. Rassolov, P. E. Maslen, P. P. Korambath, R. D. Adamson,
 B. Austin, J. Baker, E. F. C. Byrd, H. Dachsel, R. J. Doerksen,
 A. Dreuw, B. D. Dunietz, A. D. Dutoi, T. R. Furlani,
 S. R. Gwaltney, A. Heyden, S. Hirata, C.-P. Hsu, G. Kedziora,
 R. Z. Khaliullin, P. Klunzinger, A. M. Lee, M. S. Lee, W. Liang,
 I. Lotan, N. Nair, B. Peters, E. I. Proynov, P. A. Pieniazek, 
 Y. M. Rhee, J. Ritchie, E. Rosta, C. D. Sherrill, 
 A. C. Simmonett, J. E. Subotnik, H. L. Woodcock III,
 W. Zhang, A. T. Bell, A. K. Chakraborty, D. M. Chipman,
 F. J. Keil, A. Warshel, W. J. Hehre, H. F. Schaefer III,
 J. Kong, A. I. Krylov, P. M. W. Gill, M. Head-Gordon,
 Q-Chem, Version 3.1, Q-Chem, Inc., Pittsburgh, PA (2007).

 Additional authors for Version 3.1: 
 Z. Gan, Y. Zhao, N. E. Schultz, D. Truhlar, E. Epifanovsky and M. Oana.

 Additional authors for Version 3.2: 
 R. Baer, B. R. Brooks, D. Casanova, J.-D. Chai, C.-L. Cheng, 
 C. Cramer, D. Crittenden, A. Ghysels, G. Hawkins, E. G. Hohenstein, 
 C. Kelley, W. Kurlancheek, D. Liotard, E. Livshits, P. Manohar, 
 A. Marenich, D. Neuhauser, R. Olson, M. A. Rohrdanz, K. S. Thanthiriwatte, 
 A. J. W. Thom, V. Vanovschi, C. F. Williams, Q. Wu and Z.-Q. You. 


 Intel X86 Linux Version

 Q-chem begins on Sun Jul  7 09:46:34 2013  

 Parallel job on  1  processors
Processing $rem in /usr/local/qchem/config/preferences.

theFileMan(): MAXOPENFILES=974 MAX_SUB_FILE_NUM=16
Maximum size of a physical file is 2.0 GB, maximum size of a tmp-file is 32.0 GB


--------------------------------------------------------------
User input:
--------------------------------------------------------------

$molecule
1,2
C          0.74096        0.79405        0.00000
S          0.00000       -0.83481        0.00000
C         -0.74096        0.79405        0.00000
H          1.24877        1.08067       -0.91461
H          1.24877        1.08067        0.91461
H         -1.24877        1.08067        0.91461
H         -1.24877        1.08067       -0.91461
$end

$comment
positive
$end

$xc_functional
C PBE   1.00
X wPBE  1.00
$end

$rem
SYMMETRY_DECOMPOSITION	0
LRC_DFT                 true
exchange 		general
BASIS                   g3large
omega			260
mem_static              760
max_scf_cycles          200
scf_final_print         1
sym_ignore              true
$end

--------------------------------------------------------------
 Writing REM_CC_EA            7
 ----------------------------------------------------
       Standard Nuclear Orientation (Angstroms)
    I     Atom         X            Y            Z
 ----------------------------------------------------
    1      C       0.740960     0.794050     0.000000
    2      S       0.000000    -0.834810     0.000000
    3      C      -0.740960     0.794050     0.000000
    4      H       1.248770     1.080670    -0.914610
    5      H       1.248770     1.080670     0.914610
    6      H      -1.248770     1.080670     0.914610
    7      H      -1.248770     1.080670    -0.914610
 ----------------------------------------------------
 Nuclear Repulsion Energy =   102.1883315095 hartrees
 There are       16 alpha and       15 beta electrons
 Requested basis set is G3large
 There are 63 shells and 190 basis functions

Total QAlloc Memory Limit   2000 MB
Mega-Array Size       743 MB
MEM_STATIC part       760 MB

                       Distance Matrix (Angstroms)
             C (  1)   S (  2)   C (  3)   H (  4)   H (  5)   H (  6)
   S (  2)  1.789471
   C (  3)  1.481920  1.789471
   H (  4)  1.084681  2.462722  2.208549
   H (  5)  1.084681  2.462722  2.208549  1.829220
   H (  6)  2.208549  2.462722  1.084681  3.095764  2.497540
   H (  7)  2.208549  2.462722  1.084681  2.497540  3.095764  1.829220

 
 A cutoff of  1.0D-08 yielded   1930 shell pairs
 There are  17755 function pairs ( 22821 Cartesian)
Evaluating contribution to one-electron hamiltonian from nuclear
 Smallest overlap matrix eigenvalue = 7.57E-05

 Q-Chem warning in module mkSTV.C, line 194:

 Overlap eigenvalue is smaller than square root of threshold

 Multipole matrices computed through 2nd order

  Scale SEOQF with 1.000000e-01/1.000000e-01/1.000000e-01

 Standard Electronic Orientation quadrupole field applied
 Nucleus-field energy     =     0.0000000018 hartrees
 Guess from superposition of atomic densities
 Warning:  Energy on first SCF cycle will be non-variational
 Long-range K will be added via erf
 Coulomb attenuation parameter = 0.26 bohr**(-1)
 An unrestricted Kohn-Sham SCF calculation will be
 performed using Pulay DIIS extrapolation
 Exchange:  wPBE + LR-HF      Correlation:  PBE
 Using SG-1 standard quadrature grid
 SCF converges when DIIS error is below 1.0E-05
 Requested basis set is G3large
 There are 63 shells and 190 basis functions
 A cutoff of  1.0D-08 yielded   1930 shell pairs
 There are  17755 function pairs ( 22821 Cartesian)
 Warning!  Inaccurate integrated density:
   Number of electrons =    31
   Numerical integral  =    32.000168574254
   Relative error      =     3.2263502395 %
 ---------------------------------------
  Cycle       Energy         DIIS Error
 ---------------------------------------
    1    -477.3036945356      3.20E-02
    2    -476.2124499974      3.06E-03
    3    -476.2446772700      2.42E-03
    4    -476.2688403042      4.47E-04
    5    -476.2699923040      1.96E-04
    6    -476.2702385296      4.57E-05
    7    -476.2702827904      1.72E-05
    8    -476.2702902795      9.68E-06 Convergence criterion met
 ---------------------------------------
 One-Electron    Energy =  -848.5776397389
 Total Coulomb   Energy =   307.6451347209
 Alpha Exchange  Energy =    -2.2241329676
 Beta  Exchange  Energy =    -2.0871801712
 DFT   Exchange  Energy =   -32.1147242758
 DFT Correlation Energy =    -1.1000793580
 Nuclear Repu.   Energy =   102.1883315112
 Nuclear Attr.   Energy = -1324.0202413256
 Kinetic         Energy =   475.4426015867
 <S^2> = 0.7553
 SCF time:  CPU 112.20 s  wall 112.53 s
 Final Alpha MO Eigenvalues
            1           2           3           4           5           6
    1 -88.5263587 -10.3131370 -10.3129626  -8.1559048  -6.1793277  -6.1713285
            7           8           9          10          11          12
    1  -6.1684023  -1.2350178  -0.9875260  -0.9482281  -0.8360408  -0.7971296
           13          14          15          16          17          18
    1  -0.7033815  -0.6866915  -0.6706579  -0.6472969  -0.1828793  -0.1386286
           19          20          21
    1  -0.1085129  -0.0933774  -0.0807907
 Final Beta MO Eigenvalues
            1           2           3           4           5           6
    1 -88.5212484 -10.3133083 -10.3131345  -8.1511458  -6.1687232  -6.1655455
            7           8           9          10          11          12
    1  -6.1646988  -1.2214080  -0.9604205  -0.9462299  -0.8196089  -0.7894421
           13          14          15          16          17          18
    1  -0.6976801  -0.6769330  -0.6663624  -0.3462965  -0.1787978  -0.1233782
           19          20
    1  -0.1059488  -0.0898549
 Analysis of SCF Wavefunction
 
 --------------------------------------------------------------
                    Orbital Energies (a.u.)
 --------------------------------------------------------------
 
 Alpha MOs
 -- Occupied --
-88.526 -10.313 -10.313  -8.156  -6.179  -6.171  -6.168  -1.235
 -0.988  -0.948  -0.836  -0.797  -0.703  -0.687  -0.671  -0.647
 -- Virtual --
 -0.183  -0.139  -0.109  -0.093  -0.081  -0.056  -0.038  -0.036
 -0.028  -0.024  -0.023   0.002   0.007   0.015   0.026   0.029
  0.031   0.039   0.049   0.058   0.085   0.106   0.128   0.149
  0.155   0.189   0.199   0.224   0.254   0.259   0.300   0.322
  0.356   0.406   0.409   0.412   0.433   0.451   0.453   0.475
  0.479   0.516   0.561   0.610   0.653   0.671   0.674   0.690
  0.721   0.722   0.776   0.778   0.817   0.844   0.853   0.879
  0.904   0.979   1.004   1.017   1.050   1.056   1.062   1.094
  1.122   1.152   1.186   1.188   1.233   1.249   1.257   1.302
  1.310   1.333   1.352   1.389   1.434   1.451   1.658   1.905
  1.958   2.298   2.312   2.472   2.490   2.583   2.621   2.636
  2.677   2.702   2.766   2.832   2.838   2.876   2.893   2.932
  2.940   2.957   3.065   3.129   3.163   3.174   3.204   3.204
  3.232   3.233   3.342   3.343   3.367   3.425   3.427   3.450
  3.497   3.605   3.639   3.762   3.762   3.806   3.885   3.989
  3.999   4.008   4.048   4.104   4.111   4.219   4.304   4.328
  4.360   4.408   4.603   4.711   4.887   4.892   5.069   5.144
  5.360   5.418   5.456   8.122  16.742  16.968  17.132  23.056
 23.169  23.213  23.260  23.333  23.757  23.946  27.146  27.458
 27.687  27.758  27.817  28.128  30.498  30.498  30.510  30.514
 30.519  30.527  30.560  40.546  40.611  40.632  40.733  40.820
 40.835  40.842  40.844  40.922  40.942 188.650
 
 Beta MOs
 -- Occupied --
-88.521 -10.313 -10.313  -8.151  -6.169  -6.166  -6.165  -1.221
 -0.960  -0.946  -0.820  -0.789  -0.698  -0.677  -0.666
 -- Virtual --
 -0.346  -0.179  -0.123  -0.106  -0.090  -0.080  -0.048  -0.036
 -0.035  -0.027  -0.023  -0.018   0.014   0.016   0.023   0.030
  0.030   0.032   0.044   0.050   0.070   0.093   0.107   0.148
  0.150   0.176   0.202   0.205   0.229   0.263   0.273   0.305
  0.328   0.359   0.409   0.414   0.415   0.437   0.453   0.456
  0.481   0.481   0.522   0.577   0.619   0.656   0.692   0.694
  0.711   0.723   0.750   0.791   0.803   0.829   0.847   0.860
  0.888   0.913   0.990   1.017   1.036   1.055   1.072   1.072
  1.109   1.145   1.153   1.190   1.190   1.236   1.254   1.260
  1.306   1.319   1.341   1.356   1.393   1.437   1.452   1.703
  1.912   1.966   2.300   2.314   2.473   2.494   2.586   2.623
  2.639   2.677   2.710   2.769   2.835   2.844   2.877   2.910
  2.935   2.945   2.959   3.074   3.130   3.170   3.177   3.204
  3.220   3.267   3.280   3.346   3.361   3.410   3.429   3.440
  3.454   3.523   3.609   3.642   3.763   3.767   3.808   3.889
  3.992   4.007   4.011   4.053   4.108   4.113   4.224   4.311
  4.330   4.373   4.422   4.603   4.727   4.891   4.904   5.073
  5.154   5.364   5.422   5.459   8.132  16.769  16.973  17.136
 23.066  23.179  23.223  23.267  23.334  23.757  23.946  27.146
 27.457  27.687  27.758  27.817  28.128  30.503  30.503  30.515
 30.516  30.523  30.530  30.562  40.545  40.611  40.632  40.733
 40.820  40.834  40.841  40.844  40.922  40.942 188.656
 --------------------------------------------------------------
 
          Ground-State Mulliken Net Atomic Charges

     Atom                 Charge (a.u.)    Spin (a.u.)
  --------------------------------------------------------
      1 C                     0.046961      -0.020909
      2 S                     0.304383       0.959523
      3 C                     0.047441      -0.020692
      4 H                     0.150282       0.020397
      5 H                     0.150378       0.020725
      6 H                     0.150263       0.020382
      7 H                     0.150291       0.020572
  --------------------------------------------------------
  Sum of atomic charges =     1.000000
  Sum of spin   charges =     1.000000

 -----------------------------------------------------------------
                    Cartesian Multipole Moments
 -----------------------------------------------------------------
    Charge (ESU x 10^10)
                 4.8032
    Dipole Moment (Debye)
         X      -0.0004      Y       0.9879      Z       0.0011
       Tot       0.9879
    Quadrupole Moments (Debye-Ang)
        XX     -19.0485     XY       0.0004     YY     -17.5957
        XZ       0.0037     YZ      -0.0032     ZZ     -19.8516
    Octapole Moments (Debye-Ang^2)
       XXX      -0.0004    XXY       4.2056    XYY       0.0004
       YYY      -3.5638    XXZ       0.0009    XYZ      -0.0001
       YYZ       0.0036    XZZ       0.0004    YZZ       1.9368
       ZZZ       0.0011
    Hexadecapole Moments (Debye-Ang^3)
      XXXX     -73.2466   XXXY       0.0011   XXYY     -26.4896
      XYYY       0.0010   YYYY    -115.5412   XXXZ       0.0051
      XXYZ      -0.0003   XYYZ       0.0056   YYYZ      -0.0101
      XXZZ     -13.0137   XYZZ       0.0007   YYZZ     -21.7005
      XZZZ       0.0035   YZZZ      -0.0030   ZZZZ     -31.0453
 -----------------------------------------------------------------
 Total job time:  112.77s(wall), 112.42s(cpu) 
 Sun Jul  7 09:48:27 2013

        *************************************************************
        *                                                           *
        *  Thank you very much for using Q-Chem.  Have a nice day.  *
        *                                                           *
        *************************************************************


0 sent ACK to 0 
now end server 0 ... 
