Process 0 of 1 is on cl212.stfx.acenet.ca - thread support 1
initial socket setup ...start
initial socket setup ...done 
now start server 0 ... 

cmd = /usr/bin/ssh clhead /usr/local/qchem/bin/get_hostid 390848900 > /scratch/tmp/6064129.1.medium.q/qchem23245/lic.dat
                  Welcome to Q-Chem
     A Quantum Leap Into The Future Of Chemistry

 Y. Shao, L. Fusti-Molnar, Y. Jung, J. Kussmann, C. Ochsenfeld,
 S. T. Brown, A. T. B. Gilbert, L. V. Slipchenko,S. V. Levchenko,
 D. P. O'Neill, R. A. DiStasio Jr., R. C. Lochan, T. Wang,
 G. J. O. Beran, N. A. Besley, J. M. Herbert, C. Y. Lin,
 T. Van Voorhis, S. H. Chien, A. Sodt, R. P. Steele, 
 V. A. Rassolov, P. E. Maslen, P. P. Korambath, R. D. Adamson,
 B. Austin, J. Baker, E. F. C. Byrd, H. Dachsel, R. J. Doerksen,
 A. Dreuw, B. D. Dunietz, A. D. Dutoi, T. R. Furlani,
 S. R. Gwaltney, A. Heyden, S. Hirata, C.-P. Hsu, G. Kedziora,
 R. Z. Khaliullin, P. Klunzinger, A. M. Lee, M. S. Lee, W. Liang,
 I. Lotan, N. Nair, B. Peters, E. I. Proynov, P. A. Pieniazek, 
 Y. M. Rhee, J. Ritchie, E. Rosta, C. D. Sherrill, 
 A. C. Simmonett, J. E. Subotnik, H. L. Woodcock III,
 W. Zhang, A. T. Bell, A. K. Chakraborty, D. M. Chipman,
 F. J. Keil, A. Warshel, W. J. Hehre, H. F. Schaefer III,
 J. Kong, A. I. Krylov, P. M. W. Gill, M. Head-Gordon,
 Q-Chem, Version 3.1, Q-Chem, Inc., Pittsburgh, PA (2007).

 Additional authors for Version 3.1: 
 Z. Gan, Y. Zhao, N. E. Schultz, D. Truhlar, E. Epifanovsky and M. Oana.

 Additional authors for Version 3.2: 
 R. Baer, B. R. Brooks, D. Casanova, J.-D. Chai, C.-L. Cheng, 
 C. Cramer, D. Crittenden, A. Ghysels, G. Hawkins, E. G. Hohenstein, 
 C. Kelley, W. Kurlancheek, D. Liotard, E. Livshits, P. Manohar, 
 A. Marenich, D. Neuhauser, R. Olson, M. A. Rohrdanz, K. S. Thanthiriwatte, 
 A. J. W. Thom, V. Vanovschi, C. F. Williams, Q. Wu and Z.-Q. You. 


 Intel X86 Linux Version

 Q-chem begins on Sun Jul  7 09:42:04 2013  

 Parallel job on  1  processors
Processing $rem in /usr/local/qchem/config/preferences.

theFileMan(): MAXOPENFILES=974 MAX_SUB_FILE_NUM=16
Maximum size of a physical file is 2.0 GB, maximum size of a tmp-file is 32.0 GB


--------------------------------------------------------------
User input:
--------------------------------------------------------------

$molecule
-1,1
C          0.00034        0.00000       -0.00234
C          0.00795        0.00000        1.30335
H          0.93102        0.00000       -0.58577
H         -0.92815        0.00000       -0.57958
H          0.72652        0.00000        2.11724
$end

$comment
negative
$end

$xc_functional
C PBE   1.00
X wPBE  1.00
$end

$rem
SYMMETRY_DECOMPOSITION	0
exchange 		general
LRC_DFT                 true
BASIS                   g3large
omega			230
mem_static              760
max_scf_cycles          200
scf_final_print         1
sym_ignore              true
$end

--------------------------------------------------------------
 Writing REM_CC_EA            5
 ----------------------------------------------------
       Standard Nuclear Orientation (Angstroms)
    I     Atom         X            Y            Z
 ----------------------------------------------------
    1      C       0.000340     0.000000    -0.002340
    2      C       0.007950     0.000000     1.303350
    3      H       0.931020     0.000000    -0.585770
    4      H      -0.928150     0.000000    -0.579580
    5      H       0.726520     0.000000     2.117240
 ----------------------------------------------------
 Nuclear Repulsion Energy =    28.3933182935 hartrees
 There are        8 alpha and        8 beta electrons
 Requested basis set is G3large
 There are 38 shells and 114 basis functions

Total QAlloc Memory Limit   2000 MB
Mega-Array Size       743 MB
MEM_STATIC part       760 MB

                       Distance Matrix (Angstroms)
             C (  1)   C (  2)   H (  3)   H (  4)
   C (  2)  1.305712
   H (  3)  1.098433  2.102578
   H (  4)  1.093298  2.102786  1.859180
   H (  5)  2.240526  1.085707  2.710735  3.163980
 
 A cutoff of  1.0D-08 yielded    732 shell pairs
 There are   6640 function pairs (  8147 Cartesian)
Evaluating contribution to one-electron hamiltonian from nuclear
 Smallest overlap matrix eigenvalue = 1.16E-04
 Multipole matrices computed through 2nd order

  Scale SEOQF with 1.000000e-01/1.000000e-01/1.000000e-01

 Standard Electronic Orientation quadrupole field applied
 Nucleus-field energy     =    -0.0000000016 hartrees
 Guess from superposition of atomic densities
 Warning:  Energy on first SCF cycle will be non-variational
 Long-range K will be added via erf
 Coulomb attenuation parameter = 0.23 bohr**(-1)
 A restricted Kohn-Sham SCF calculation will be
 performed using Pulay DIIS extrapolation
 Exchange:  wPBE + LR-HF      Correlation:  PBE
 Using SG-1 standard quadrature grid
 SCF converges when DIIS error is below 1.0E-05
 Requested basis set is G3large
 There are 38 shells and 114 basis functions
 A cutoff of  1.0D-08 yielded    732 shell pairs
 There are   6640 function pairs (  8147 Cartesian)
 Warning!  Inaccurate integrated density:
   Number of electrons =    16
   Numerical integral  =    14.999948730966
   Relative error      =    -6.2503204315 %
 ---------------------------------------
  Cycle       Energy         DIIS Error
 ---------------------------------------
    1     -78.0487357244      3.64E-02
    2     -77.6715303503      8.96E-03
    3     -77.5567777850      1.15E-02
    4     -77.8373097507      1.78E-03
    5     -77.8429374319      1.00E-03
    6     -77.8450762451      1.63E-04
    7     -77.8454959886      8.00E-05
    8     -77.8456470329      3.50E-05
    9     -77.8456856762      1.30E-05
   10     -77.8456892820      5.25E-06 Convergence criterion met
 ---------------------------------------
 One-Electron    Energy =  -163.5846267660
 Total Coulomb   Energy =    69.3441736779
 Alpha Exchange  Energy =    -0.9679695373
 Beta  Exchange  Energy =    -0.9679695373
 DFT   Exchange  Energy =    -9.5767654930
 DFT Correlation Energy =    -0.4858499183
 Nuclear Repu.   Energy =    28.3933182919
 Nuclear Attr.   Energy =  -241.2147348603
 Kinetic         Energy =    77.6301080943
 SCF time:  CPU 26.51 s  wall 26.83 s
 Final Alpha MO Eigenvalues
            1           2           3           4           5           6
    1  -9.7739622  -9.7377358  -0.5652982  -0.3835846  -0.2791812  -0.2468720
            7           8           9          10          11          12
    1  -0.1150127   0.0049182   0.1743442   0.1809076   0.1857640   0.2580061
           13
    1   0.2761251
 Analysis of SCF Wavefunction
 
 --------------------------------------------------------------
                    Orbital Energies (a.u.)
 --------------------------------------------------------------
 
 Alpha MOs
 -- Occupied --
 -9.774  -9.738  -0.565  -0.384  -0.279  -0.247  -0.115   0.005
 -- Virtual --
  0.174   0.181   0.186   0.258   0.276   0.277   0.296   0.334
  0.337   0.353   0.365   0.366   0.402   0.424   0.518   0.623
  0.711   0.737   0.765   0.800   0.811   0.834   0.877   0.885
  0.892   0.924   0.946   0.956   1.032   1.038   1.079   1.187
  1.226   1.257   1.332   1.391   1.449   1.485   1.600   1.627
  1.665   1.697   1.746   1.773   1.808   1.986   2.690   2.736
  2.903   2.929   2.936   2.959   3.023   3.040   3.085   3.141
  3.153   3.222   3.332   3.349   3.394   3.409   3.456   3.491
  3.494   3.571   3.584   3.637   3.675   3.757   3.871   3.967
  3.967   4.023   4.174   4.373   4.388   4.436   4.567   4.681
  4.721   4.867   5.060   5.377   5.507   5.649   5.800   6.394
 23.899  24.877  27.387  27.585  27.741  28.282  28.434  28.561
 40.999  41.064  41.100  41.290  41.292  41.333  41.407  41.437
 41.482  41.501
 --------------------------------------------------------------
 
          Ground-State Mulliken Net Atomic Charges

     Atom                 Charge (a.u.)
  ----------------------------------------
      1 C                    -0.658815
      2 C                    -0.298407
      3 H                    -0.116266
      4 H                     0.044588
      5 H                     0.028901
  ----------------------------------------
  Sum of atomic charges =    -1.000000

 -----------------------------------------------------------------
                    Cartesian Multipole Moments
 -----------------------------------------------------------------
    Charge (ESU x 10^10)
                -4.8032
    Dipole Moment (Debye)
         X       1.8307      Y      -0.0003      Z      -5.3258
       Tot       5.6317
    Quadrupole Moments (Debye-Ang)
        XX     -21.5783     XY       0.0011     YY     -19.9694
        XZ       5.8106     YZ      -0.0016     ZZ     -28.6122
    Octapole Moments (Debye-Ang^2)
       XXX       3.0996    XXY       0.0003    XYY       1.4637
       YYY       0.0003    XXZ     -18.8730    XYZ       0.0011
       YYZ     -13.9670    XZZ      11.0090    YZZ      -0.0026
       ZZZ     -56.0659
    Hexadecapole Moments (Debye-Ang^3)
      XXXX     -68.3849   XXXY       0.0028   XXYY     -18.3181
      XYYY       0.0024   YYYY     -40.5098   XXXZ      15.4909
      XXYZ      -0.0016   XYYZ       5.2593   YYYZ      -0.0056
      XXZZ     -54.5981   XYZZ       0.0049   YYZZ     -38.2768
      XZZZ      35.3474   YZZZ      -0.0109   ZZZZ    -212.3428
 -----------------------------------------------------------------
 Total job time:  26.95s(wall), 26.62s(cpu) 
 Sun Jul  7 09:42:31 2013

        *************************************************************
        *                                                           *
        *  Thank you very much for using Q-Chem.  Have a nice day.  *
        *                                                           *
        *************************************************************


0 sent ACK to 0 
now end server 0 ... 
 
**********************************************************************
Job 2 of 3 
**********************************************************************
 
Process 0 of 1 is on cl212.stfx.acenet.ca - thread support 1
initial socket setup ...start
initial socket setup ...done 
now start server 0 ... 

cmd = /usr/bin/ssh clhead /usr/local/qchem/bin/get_hostid 625817960 > /scratch/tmp/6064129.1.medium.q/qchem23245/lic.dat
                  Welcome to Q-Chem
     A Quantum Leap Into The Future Of Chemistry

 Y. Shao, L. Fusti-Molnar, Y. Jung, J. Kussmann, C. Ochsenfeld,
 S. T. Brown, A. T. B. Gilbert, L. V. Slipchenko,S. V. Levchenko,
 D. P. O'Neill, R. A. DiStasio Jr., R. C. Lochan, T. Wang,
 G. J. O. Beran, N. A. Besley, J. M. Herbert, C. Y. Lin,
 T. Van Voorhis, S. H. Chien, A. Sodt, R. P. Steele, 
 V. A. Rassolov, P. E. Maslen, P. P. Korambath, R. D. Adamson,
 B. Austin, J. Baker, E. F. C. Byrd, H. Dachsel, R. J. Doerksen,
 A. Dreuw, B. D. Dunietz, A. D. Dutoi, T. R. Furlani,
 S. R. Gwaltney, A. Heyden, S. Hirata, C.-P. Hsu, G. Kedziora,
 R. Z. Khaliullin, P. Klunzinger, A. M. Lee, M. S. Lee, W. Liang,
 I. Lotan, N. Nair, B. Peters, E. I. Proynov, P. A. Pieniazek, 
 Y. M. Rhee, J. Ritchie, E. Rosta, C. D. Sherrill, 
 A. C. Simmonett, J. E. Subotnik, H. L. Woodcock III,
 W. Zhang, A. T. Bell, A. K. Chakraborty, D. M. Chipman,
 F. J. Keil, A. Warshel, W. J. Hehre, H. F. Schaefer III,
 J. Kong, A. I. Krylov, P. M. W. Gill, M. Head-Gordon,
 Q-Chem, Version 3.1, Q-Chem, Inc., Pittsburgh, PA (2007).

 Additional authors for Version 3.1: 
 Z. Gan, Y. Zhao, N. E. Schultz, D. Truhlar, E. Epifanovsky and M. Oana.

 Additional authors for Version 3.2: 
 R. Baer, B. R. Brooks, D. Casanova, J.-D. Chai, C.-L. Cheng, 
 C. Cramer, D. Crittenden, A. Ghysels, G. Hawkins, E. G. Hohenstein, 
 C. Kelley, W. Kurlancheek, D. Liotard, E. Livshits, P. Manohar, 
 A. Marenich, D. Neuhauser, R. Olson, M. A. Rohrdanz, K. S. Thanthiriwatte, 
 A. J. W. Thom, V. Vanovschi, C. F. Williams, Q. Wu and Z.-Q. You. 


 Intel X86 Linux Version

 Q-chem begins on Sun Jul  7 09:42:34 2013  

 Parallel job on  1  processors
Processing $rem in /usr/local/qchem/config/preferences.

theFileMan(): MAXOPENFILES=974 MAX_SUB_FILE_NUM=16
Maximum size of a physical file is 2.0 GB, maximum size of a tmp-file is 32.0 GB


--------------------------------------------------------------
User input:
--------------------------------------------------------------

$molecule
0,2
C          0.00034        0.00000       -0.00234
C          0.00795        0.00000        1.30335
H          0.93102        0.00000       -0.58577
H         -0.92815        0.00000       -0.57958
H          0.72652        0.00000        2.11724
$end

$comment
neutral
$end

$xc_functional
C PBE   1.00
X wPBE  1.00
$end


$rem
SYMMETRY_DECOMPOSITION	0
LRC_DFT                 true
exchange 		general
BASIS                   g3large
omega			230
mem_static              760
max_scf_cycles          200
scf_final_print         1
sym_ignore              true
$end

--------------------------------------------------------------
 Writing REM_CC_EA            5
 ----------------------------------------------------
       Standard Nuclear Orientation (Angstroms)
    I     Atom         X            Y            Z
 ----------------------------------------------------
    1      C       0.000340     0.000000    -0.002340
    2      C       0.007950     0.000000     1.303350
    3      H       0.931020     0.000000    -0.585770
    4      H      -0.928150     0.000000    -0.579580
    5      H       0.726520     0.000000     2.117240
 ----------------------------------------------------
 Nuclear Repulsion Energy =    28.3933182935 hartrees
 There are        8 alpha and        7 beta electrons
 Requested basis set is G3large
 There are 38 shells and 114 basis functions

Total QAlloc Memory Limit   2000 MB
Mega-Array Size       743 MB
MEM_STATIC part       760 MB

                       Distance Matrix (Angstroms)
             C (  1)   C (  2)   H (  3)   H (  4)
   C (  2)  1.305712
   H (  3)  1.098433  2.102578
   H (  4)  1.093298  2.102786  1.859180
   H (  5)  2.240526  1.085707  2.710735  3.163980
 
 A cutoff of  1.0D-08 yielded    732 shell pairs
 There are   6640 function pairs (  8147 Cartesian)
Evaluating contribution to one-electron hamiltonian from nuclear
 Smallest overlap matrix eigenvalue = 1.16E-04
 Multipole matrices computed through 2nd order

  Scale SEOQF with 1.000000e-01/1.000000e-01/1.000000e-01

 Standard Electronic Orientation quadrupole field applied
 Nucleus-field energy     =    -0.0000000016 hartrees
 Guess from superposition of atomic densities
 Warning:  Energy on first SCF cycle will be non-variational
 Long-range K will be added via erf
 Coulomb attenuation parameter = 0.23 bohr**(-1)
 An unrestricted Kohn-Sham SCF calculation will be
 performed using Pulay DIIS extrapolation
 Exchange:  wPBE + LR-HF      Correlation:  PBE
 Using SG-1 standard quadrature grid
 SCF converges when DIIS error is below 1.0E-05
 Requested basis set is G3large
 There are 38 shells and 114 basis functions
 A cutoff of  1.0D-08 yielded    732 shell pairs
 There are   6640 function pairs (  8147 Cartesian)
 ---------------------------------------
  Cycle       Energy         DIIS Error
 ---------------------------------------
    1     -78.0487357244      3.64E-02
    2     -77.8022162059      4.20E-03
    3     -77.8247276353      3.03E-03
    4     -77.8406908856      4.35E-04
    5     -77.8419216935      3.25E-04
    6     -77.8425368600      8.56E-05
    7     -77.8428112638      2.60E-05
    8     -77.8428644892      1.05E-05
    9     -77.8428786687      5.41E-06 Convergence criterion met
 ---------------------------------------
 One-Electron    Energy =  -159.7018839702
 Total Coulomb   Energy =    65.2592466896
 Alpha Exchange  Energy =    -0.9799653615
 Beta  Exchange  Energy =    -0.8587034213
 DFT   Exchange  Energy =    -9.4997192548
 DFT Correlation Energy =    -0.4551716424
 Nuclear Repu.   Energy =    28.3933182919
 Nuclear Attr.   Energy =  -237.1998066890
 Kinetic         Energy =    77.4979227189
 <S^2> = 0.7598
 SCF time:  CPU 27.49 s  wall 27.98 s
 Final Alpha MO Eigenvalues
            1           2           3           4           5           6
    1 -10.0405070 -10.0188338  -0.8317898  -0.6465112  -0.5361270  -0.5038603
            7           8           9          10          11          12
    1  -0.3708850  -0.3120426   0.0413501   0.0529696   0.0539390   0.0621647
           13
    1   0.1155692
 Final Beta MO Eigenvalues
            1           2           3           4           5           6
    1 -10.0263474 -10.0202424  -0.8165025  -0.6259454  -0.5212920  -0.4896565
            7           8           9          10          11          12
    1  -0.3624140  -0.0117052   0.0430225   0.0550810   0.0629466   0.0637286
 Analysis of SCF Wavefunction
 
 --------------------------------------------------------------
                    Orbital Energies (a.u.)
 --------------------------------------------------------------
 
 Alpha MOs
 -- Occupied --
-10.041 -10.019  -0.832  -0.647  -0.536  -0.504  -0.371  -0.312
 -- Virtual --
  0.041   0.053   0.054   0.062   0.116   0.127   0.133   0.168
  0.170   0.176   0.195   0.204   0.214   0.227   0.330   0.407
  0.493   0.512   0.551   0.566   0.585   0.607   0.648   0.652
  0.673   0.698   0.708   0.722   0.783   0.795   0.838   0.967
  0.990   1.036   1.102   1.150   1.211   1.247   1.364   1.388
  1.422   1.466   1.511   1.538   1.577   1.729   2.439   2.492
  2.635   2.671   2.678   2.698   2.752   2.764   2.796   2.868
  2.887   2.943   3.077   3.080   3.141   3.145   3.182   3.193
  3.229   3.308   3.311   3.351   3.399   3.485   3.605   3.692
  3.706   3.757   3.916   4.122   4.136   4.191   4.301   4.423
  4.456   4.596   4.791   5.110   5.238   5.383   5.555   6.119
 23.621  24.608  27.115  27.315  27.424  28.037  28.187  28.264
 40.726  40.755  40.854  41.007  41.024  41.062  41.122  41.164
 41.207  41.233
 
 Beta MOs
 -- Occupied --
-10.026 -10.020  -0.817  -0.626  -0.521  -0.490  -0.362
 -- Virtual --
 -0.012   0.043   0.055   0.063   0.064   0.117   0.131   0.141
  0.172   0.172   0.179   0.196   0.208   0.220   0.237   0.340
  0.418   0.505   0.528   0.557   0.576   0.591   0.629   0.658
  0.674   0.686   0.710   0.716   0.741   0.807   0.814   0.861
  0.976   1.002   1.041   1.108   1.171   1.228   1.258   1.378
  1.400   1.449   1.477   1.520   1.550   1.589   1.757   2.449
  2.504   2.665   2.683   2.689   2.708   2.771   2.794   2.840
  2.893   2.899   2.982   3.086   3.096   3.150   3.167   3.214
  3.247   3.250   3.330   3.340   3.391   3.432   3.516   3.623
  3.714   3.719   3.778   3.935   4.139   4.148   4.199   4.320
  4.436   4.477   4.618   4.801   5.132   5.252   5.405   5.566
  6.140  23.631  24.614  27.120  27.318  27.461  28.036  28.187
 28.273  40.734  40.782  40.852  41.025  41.030  41.064  41.139
 41.167  41.216  41.238
 --------------------------------------------------------------
 
          Ground-State Mulliken Net Atomic Charges

     Atom                 Charge (a.u.)    Spin (a.u.)
  --------------------------------------------------------
      1 C                    -0.229424      -0.117081
      2 C                    -0.072124       0.974824
      3 H                     0.081466       0.083720
      4 H                     0.105437       0.037912
      5 H                     0.114645       0.020625
  --------------------------------------------------------
  Sum of atomic charges =     0.000000
  Sum of spin   charges =     1.000000

 -----------------------------------------------------------------
                    Cartesian Multipole Moments
 -----------------------------------------------------------------
    Charge (ESU x 10^10)
                 0.0000
    Dipole Moment (Debye)
         X       0.6441      Y       0.0002      Z      -0.3528
       Tot       0.7344
    Quadrupole Moments (Debye-Ang)
        XX     -12.4121     XY       0.0007     YY     -14.9224
        XZ       1.6182     YZ      -0.0004     ZZ     -11.8082
    Octapole Moments (Debye-Ang^2)
       XXX      -0.9280    XXY       0.0002    XYY      -0.4447
       YYY       0.0006    XXZ      -8.7088    XYZ       0.0000
       YYZ      -8.9984    XZZ       3.1807    YZZ      -0.0004
       ZZZ     -20.4812
    Hexadecapole Moments (Debye-Ang^3)
      XXXX     -24.2990   XXXY       0.0013   XXYY      -7.7024
      XYYY       0.0008   YYYY     -19.0594   XXXZ      -1.4601
      XXYZ      -0.0002   XYYZ      -0.8301   YYYZ      -0.0008
      XXZZ     -18.7975   XYZZ       0.0022   YYZZ     -20.2342
      XZZZ       5.7693   YZZZ      -0.0024   ZZZZ     -86.2311
 -----------------------------------------------------------------
 Total job time:  28.10s(wall), 27.60s(cpu) 
 Sun Jul  7 09:43:02 2013

        *************************************************************
        *                                                           *
        *  Thank you very much for using Q-Chem.  Have a nice day.  *
        *                                                           *
        *************************************************************


0 sent ACK to 0 
now end server 0 ... 
 
**********************************************************************
Job 3 of 3 
**********************************************************************
 
Process 0 of 1 is on cl212.stfx.acenet.ca - thread support 1
initial socket setup ...start
initial socket setup ...done 
now start server 0 ... 

cmd = /usr/bin/ssh clhead /usr/local/qchem/bin/get_hostid 1935725830 > /scratch/tmp/6064129.1.medium.q/qchem23245/lic.dat
                  Welcome to Q-Chem
     A Quantum Leap Into The Future Of Chemistry

 Y. Shao, L. Fusti-Molnar, Y. Jung, J. Kussmann, C. Ochsenfeld,
 S. T. Brown, A. T. B. Gilbert, L. V. Slipchenko,S. V. Levchenko,
 D. P. O'Neill, R. A. DiStasio Jr., R. C. Lochan, T. Wang,
 G. J. O. Beran, N. A. Besley, J. M. Herbert, C. Y. Lin,
 T. Van Voorhis, S. H. Chien, A. Sodt, R. P. Steele, 
 V. A. Rassolov, P. E. Maslen, P. P. Korambath, R. D. Adamson,
 B. Austin, J. Baker, E. F. C. Byrd, H. Dachsel, R. J. Doerksen,
 A. Dreuw, B. D. Dunietz, A. D. Dutoi, T. R. Furlani,
 S. R. Gwaltney, A. Heyden, S. Hirata, C.-P. Hsu, G. Kedziora,
 R. Z. Khaliullin, P. Klunzinger, A. M. Lee, M. S. Lee, W. Liang,
 I. Lotan, N. Nair, B. Peters, E. I. Proynov, P. A. Pieniazek, 
 Y. M. Rhee, J. Ritchie, E. Rosta, C. D. Sherrill, 
 A. C. Simmonett, J. E. Subotnik, H. L. Woodcock III,
 W. Zhang, A. T. Bell, A. K. Chakraborty, D. M. Chipman,
 F. J. Keil, A. Warshel, W. J. Hehre, H. F. Schaefer III,
 J. Kong, A. I. Krylov, P. M. W. Gill, M. Head-Gordon,
 Q-Chem, Version 3.1, Q-Chem, Inc., Pittsburgh, PA (2007).

 Additional authors for Version 3.1: 
 Z. Gan, Y. Zhao, N. E. Schultz, D. Truhlar, E. Epifanovsky and M. Oana.

 Additional authors for Version 3.2: 
 R. Baer, B. R. Brooks, D. Casanova, J.-D. Chai, C.-L. Cheng, 
 C. Cramer, D. Crittenden, A. Ghysels, G. Hawkins, E. G. Hohenstein, 
 C. Kelley, W. Kurlancheek, D. Liotard, E. Livshits, P. Manohar, 
 A. Marenich, D. Neuhauser, R. Olson, M. A. Rohrdanz, K. S. Thanthiriwatte, 
 A. J. W. Thom, V. Vanovschi, C. F. Williams, Q. Wu and Z.-Q. You. 


 Intel X86 Linux Version

 Q-chem begins on Sun Jul  7 09:43:05 2013  

 Parallel job on  1  processors
Processing $rem in /usr/local/qchem/config/preferences.

theFileMan(): MAXOPENFILES=974 MAX_SUB_FILE_NUM=16
Maximum size of a physical file is 2.0 GB, maximum size of a tmp-file is 32.0 GB


--------------------------------------------------------------
User input:
--------------------------------------------------------------

$molecule
1,1
C          0.00034        0.00000       -0.00234
C          0.00795        0.00000        1.30335
H          0.93102        0.00000       -0.58577
H         -0.92815        0.00000       -0.57958
H          0.72652        0.00000        2.11724
$end

$comment
positive
$end

$xc_functional
C PBE   1.00
X wPBE  1.00
$end

$rem
SYMMETRY_DECOMPOSITION	0
LRC_DFT                 true
exchange 		general
BASIS                   g3large
omega			230
mem_static              760
max_scf_cycles          200
scf_final_print         1
sym_ignore              true
$end

--------------------------------------------------------------
 Writing REM_CC_EA            5
 ----------------------------------------------------
       Standard Nuclear Orientation (Angstroms)
    I     Atom         X            Y            Z
 ----------------------------------------------------
    1      C       0.000340     0.000000    -0.002340
    2      C       0.007950     0.000000     1.303350
    3      H       0.931020     0.000000    -0.585770
    4      H      -0.928150     0.000000    -0.579580
    5      H       0.726520     0.000000     2.117240
 ----------------------------------------------------
 Nuclear Repulsion Energy =    28.3933182935 hartrees
 There are        7 alpha and        7 beta electrons
 Requested basis set is G3large
 There are 38 shells and 114 basis functions

Total QAlloc Memory Limit   2000 MB
Mega-Array Size       743 MB
MEM_STATIC part       760 MB

                       Distance Matrix (Angstroms)
             C (  1)   C (  2)   H (  3)   H (  4)
   C (  2)  1.305712
   H (  3)  1.098433  2.102578
   H (  4)  1.093298  2.102786  1.859180
   H (  5)  2.240526  1.085707  2.710735  3.163980
 
 A cutoff of  1.0D-08 yielded    732 shell pairs
 There are   6640 function pairs (  8147 Cartesian)
Evaluating contribution to one-electron hamiltonian from nuclear
 Smallest overlap matrix eigenvalue = 1.16E-04
 Multipole matrices computed through 2nd order

  Scale SEOQF with 1.000000e-01/1.000000e-01/1.000000e-01

 Standard Electronic Orientation quadrupole field applied
 Nucleus-field energy     =    -0.0000000016 hartrees
 Guess from superposition of atomic densities
 Warning:  Energy on first SCF cycle will be non-variational
 Long-range K will be added via erf
 Coulomb attenuation parameter = 0.23 bohr**(-1)
 A restricted Kohn-Sham SCF calculation will be
 performed using Pulay DIIS extrapolation
 Exchange:  wPBE + LR-HF      Correlation:  PBE
 Using SG-1 standard quadrature grid
 SCF converges when DIIS error is below 1.0E-05
 Requested basis set is G3large
 There are 38 shells and 114 basis functions
 A cutoff of  1.0D-08 yielded    732 shell pairs
 There are   6640 function pairs (  8147 Cartesian)
 Warning!  Inaccurate integrated density:
   Number of electrons =    14
   Numerical integral  =    14.999948730966
   Relative error      =     7.1424909355 %
 ---------------------------------------
  Cycle       Energy         DIIS Error
 ---------------------------------------
    1     -78.0487357244      3.64E-02
    2     -77.4462618172      4.43E-03
    3     -77.4279021936      6.10E-03
    4     -77.4863306300      5.11E-04
    5     -77.4878077290      1.84E-04
    6     -77.4883696092      1.18E-04
    7     -77.4887901738      4.92E-05
    8     -77.4888351661      1.40E-05
    9     -77.4888397002      2.81E-06 Convergence criterion met
 ---------------------------------------
 One-Electron    Energy =  -154.8938068816
 Total Coulomb   Energy =    60.4551644756
 Alpha Exchange  Energy =    -0.8608286116
 Beta  Exchange  Energy =    -0.8608286116
 DFT   Exchange  Energy =    -9.2949288634
 DFT Correlation Energy =    -0.4269294996
 Nuclear Repu.   Energy =    28.3933182919
 Nuclear Attr.   Energy =  -231.9758361458
 Kinetic         Energy =    77.0820292642
 SCF time:  CPU 22.74 s  wall 23.24 s
 Final Alpha MO Eigenvalues
            1           2           3           4           5           6
    1 -10.4228420 -10.3358618  -1.1481060  -0.9492200  -0.8422408  -0.8016256
            7           8           9          10          11          12
    1  -0.6777472  -0.3891753  -0.2297256  -0.1225259  -0.1061807  -0.0888314
 Analysis of SCF Wavefunction
 
 --------------------------------------------------------------
                    Orbital Energies (a.u.)
 --------------------------------------------------------------
 
 Alpha MOs
 -- Occupied --
-10.423 -10.336  -1.148  -0.949  -0.842  -0.802  -0.678
 -- Virtual --
 -0.389  -0.230  -0.123  -0.106  -0.089  -0.060  -0.046  -0.030
 -0.022  -0.005   0.000   0.014   0.026   0.030   0.044   0.127
  0.164   0.261   0.279   0.293   0.314   0.336   0.364   0.402
  0.410   0.430   0.440   0.452   0.483   0.515   0.538   0.588
  0.711   0.737   0.786   0.842   0.889   0.952   0.981   1.102
  1.124   1.158   1.211   1.244   1.275   1.318   1.460   2.147
  2.209   2.339   2.352   2.384   2.386   2.450   2.454   2.492
  2.560   2.577   2.640   2.765   2.778   2.837   2.843   2.880
  2.883   2.925   3.000   3.011   3.043   3.094   3.181   3.296
  3.377   3.399   3.452   3.619   3.831   3.836   3.901   3.993
  4.123   4.150   4.288   4.472   4.802   4.921   5.076   5.261
  5.804  23.269  24.268  26.758  26.977  27.051  27.721  27.869
 27.888  40.372  40.380  40.535  40.633  40.664  40.740  40.751
 40.825  40.865  40.904
 --------------------------------------------------------------
 
          Ground-State Mulliken Net Atomic Charges

     Atom                 Charge (a.u.)
  ----------------------------------------
      1 C                    -0.000709
      2 C                     0.341252
      3 H                     0.218772
      4 H                     0.200401
      5 H                     0.240284
  ----------------------------------------
  Sum of atomic charges =     1.000000

 -----------------------------------------------------------------
                    Cartesian Multipole Moments
 -----------------------------------------------------------------
    Charge (ESU x 10^10)
                 4.8032
    Dipole Moment (Debye)
         X       0.5682      Y       0.0000      Z       3.2049
       Tot       3.2549
    Quadrupole Moments (Debye-Ang)
        XX      -7.3056     XY       0.0000     YY     -12.3114
        XZ       1.1320     YZ       0.0001     ZZ      -0.9677
    Octapole Moments (Debye-Ang^2)
       XXX      -0.5594    XXY       0.0000    XYY      -0.5385
       YYY       0.0000    XXZ      -5.4469    XYZ      -0.0001
       YYZ      -7.4481    XZZ       3.1120    YZZ       0.0001
       ZZZ      -2.1749
    Hexadecapole Moments (Debye-Ang^3)
      XXXX     -12.7077   XXXY       0.0000   XXYY      -4.9495
      XYYY       0.0000   YYYY     -12.5689   XXXZ      -1.4027
      XXYZ       0.0000   XYYZ      -1.1294   YYYZ       0.0001
      XXZZ      -7.4209   XYZZ      -0.0001   YYZZ     -15.1349
      XZZZ       5.8939   YZZZ       0.0003   ZZZZ     -36.6120
 -----------------------------------------------------------------
 Total job time:  23.35s(wall), 22.84s(cpu) 
 Sun Jul  7 09:43:28 2013

        *************************************************************
        *                                                           *
        *  Thank you very much for using Q-Chem.  Have a nice day.  *
        *                                                           *
        *************************************************************


0 sent ACK to 0 
now end server 0 ... 
