Process 0 of 1 is on cl167.stfx.acenet.ca - thread support 1
initial socket setup ...start
initial socket setup ...done 
now start server 0 ... 

cmd = /usr/bin/ssh clhead /usr/local/qchem/bin/get_hostid 254254869 > /scratch/tmp/6022208.1.medium.q/qchem16693/lic.dat
                  Welcome to Q-Chem
     A Quantum Leap Into The Future Of Chemistry

 Y. Shao, L. Fusti-Molnar, Y. Jung, J. Kussmann, C. Ochsenfeld,
 S. T. Brown, A. T. B. Gilbert, L. V. Slipchenko,S. V. Levchenko,
 D. P. O'Neill, R. A. DiStasio Jr., R. C. Lochan, T. Wang,
 G. J. O. Beran, N. A. Besley, J. M. Herbert, C. Y. Lin,
 T. Van Voorhis, S. H. Chien, A. Sodt, R. P. Steele, 
 V. A. Rassolov, P. E. Maslen, P. P. Korambath, R. D. Adamson,
 B. Austin, J. Baker, E. F. C. Byrd, H. Dachsel, R. J. Doerksen,
 A. Dreuw, B. D. Dunietz, A. D. Dutoi, T. R. Furlani,
 S. R. Gwaltney, A. Heyden, S. Hirata, C.-P. Hsu, G. Kedziora,
 R. Z. Khaliullin, P. Klunzinger, A. M. Lee, M. S. Lee, W. Liang,
 I. Lotan, N. Nair, B. Peters, E. I. Proynov, P. A. Pieniazek, 
 Y. M. Rhee, J. Ritchie, E. Rosta, C. D. Sherrill, 
 A. C. Simmonett, J. E. Subotnik, H. L. Woodcock III,
 W. Zhang, A. T. Bell, A. K. Chakraborty, D. M. Chipman,
 F. J. Keil, A. Warshel, W. J. Hehre, H. F. Schaefer III,
 J. Kong, A. I. Krylov, P. M. W. Gill, M. Head-Gordon,
 Q-Chem, Version 3.1, Q-Chem, Inc., Pittsburgh, PA (2007).

 Additional authors for Version 3.1: 
 Z. Gan, Y. Zhao, N. E. Schultz, D. Truhlar, E. Epifanovsky and M. Oana.

 Additional authors for Version 3.2: 
 R. Baer, B. R. Brooks, D. Casanova, J.-D. Chai, C.-L. Cheng, 
 C. Cramer, D. Crittenden, A. Ghysels, G. Hawkins, E. G. Hohenstein, 
 C. Kelley, W. Kurlancheek, D. Liotard, E. Livshits, P. Manohar, 
 A. Marenich, D. Neuhauser, R. Olson, M. A. Rohrdanz, K. S. Thanthiriwatte, 
 A. J. W. Thom, V. Vanovschi, C. F. Williams, Q. Wu and Z.-Q. You. 


 Intel X86 Linux Version

 Q-chem begins on Wed May 29 17:04:51 2013  

 Parallel job on  1  processors
Processing $rem in /usr/local/qchem/config/preferences.

theFileMan(): MAXOPENFILES=974 MAX_SUB_FILE_NUM=16
Maximum size of a physical file is 2.0 GB, maximum size of a tmp-file is 32.0 GB


--------------------------------------------------------------
User input:
--------------------------------------------------------------

$molecule
-1,2
C          0.00015        0.00000       -0.00006
Cl        -0.00020        0.00000        1.75444
Cl         1.65491        0.00000       -0.58494
Cl        -0.82743       -1.43231       -0.58472
Cl        -0.82743        1.43231       -0.58472
$end

$comment
negative
$end

$xc_functional
C PBE   1.00
X wPBE  1.00
$end

$rem
SYMMETRY_DECOMPOSITION	0
exchange 		general
LRC_DFT                 true
BASIS                   g3large
omega			410
mem_static              760
max_scf_cycles          200
scf_final_print         1
sym_ignore              true
$end

--------------------------------------------------------------
 Writing REM_CC_EA            5
 ----------------------------------------------------
       Standard Nuclear Orientation (Angstroms)
    I     Atom         X            Y            Z
 ----------------------------------------------------
    1      C       0.000150     0.000000    -0.000060
    2      Cl     -0.000200     0.000000     1.754440
    3      Cl      1.654910     0.000000    -0.584940
    4      Cl     -0.827430    -1.432310    -0.584720
    5      Cl     -0.827430     1.432310    -0.584720
 ----------------------------------------------------
 Nuclear Repulsion Energy =   443.2894061578 hartrees
 There are       38 alpha and       37 beta electrons
 Requested basis set is G3large
 There are 86 shells and 306 basis functions

Total QAlloc Memory Limit   2000 MB
Mega-Array Size       743 MB
MEM_STATIC part       760 MB

                       Distance Matrix (Angstroms)
             C (  1)   Cl(  2)   Cl(  3)   Cl(  4)
   Cl(  2)  1.754500
   Cl(  3)  1.755083  2.865674
   Cl(  4)  1.754488  2.864872  2.865925
   Cl(  5)  1.754488  2.864872  2.865925  2.864620
 
 A cutoff of  1.0D-08 yielded   2931 shell pairs
 There are  38903 function pairs ( 54927 Cartesian)
Evaluating contribution to one-electron hamiltonian from nuclear
 Smallest overlap matrix eigenvalue = 3.52E-05

 Q-Chem warning in module mkSTV.C, line 194:

 Overlap eigenvalue is smaller than square root of threshold

 Multipole matrices computed through 2nd order

  Scale SEOQF with 1.000000e-01/1.000000e-01/1.000000e-01

 Standard Electronic Orientation quadrupole field applied
 Guess from superposition of atomic densities
 Warning:  Energy on first SCF cycle will be non-variational
 Long-range K will be added via erf
 Coulomb attenuation parameter = 0.41 bohr**(-1)
 An unrestricted Kohn-Sham SCF calculation will be
 performed using Pulay DIIS extrapolation
 Exchange:  wPBE + LR-HF      Correlation:  PBE
 Using SG-1 standard quadrature grid
 SCF converges when DIIS error is below 1.0E-05
 Requested basis set is G3large
 There are 86 shells and 306 basis functions
 A cutoff of  1.0D-08 yielded   2931 shell pairs
 There are  38903 function pairs ( 54927 Cartesian)
 Warning!  Inaccurate integrated density:
   Number of electrons =    75
   Numerical integral  =    74.000007602611
   Relative error      =    -1.3333231965 %
 ---------------------------------------
  Cycle       Energy         DIIS Error
 ---------------------------------------
    1   -1879.3065388238      1.95E-02
    2   -1878.2119414013      2.84E-03
    3   -1878.2178913918      3.24E-03
    4   -1878.3148639134      3.77E-04
    5   -1878.3165775200      1.44E-04
    6   -1878.3170044122      3.90E-05
    7   -1878.3170856736      1.66E-05
    8   -1878.3170977527      7.37E-06 Convergence criterion met
 ---------------------------------------
 One-Electron    Energy = -3491.3478988998
 Total Coulomb   Energy =  1287.8453295323
 Alpha Exchange  Energy =    -8.0032312596
 Beta  Exchange  Energy =    -7.8475215409
 DFT   Exchange  Energy =   -99.3343047808
 DFT Correlation Energy =    -2.9188769617
 Nuclear Repu.   Energy =   443.2894061578
 Nuclear Attr.   Energy = -5367.8915281148
 Kinetic         Energy =  1876.5436292150
 <S^2> = 0.7548
 SCF time:  CPU 428.70 s  wall 429.60 s
 Final Alpha MO Eigenvalues
            1           2           3           4           5           6
    1-100.7129529-100.7117927-100.7117237-100.7113976 -10.1080350  -9.2363441
            7           8           9          10          11          12
    1  -9.2351586  -9.2350825  -9.2347512  -7.0545286  -7.0533415  -7.0530726
           13          14          15          16          17          18
    1  -7.0528670  -7.0443357  -7.0442171  -7.0431601  -7.0431361  -7.0431243
           19          20          21          22          23          24
    1  -7.0430514  -7.0427860  -7.0427020  -0.9484073  -0.8103990  -0.8097161
           25          26          27          28          29          30
    1  -0.8094870  -0.5823861  -0.4405339  -0.4402786  -0.4402210  -0.3163275
           31          32          33          34          35          36
    1  -0.3163040  -0.2813976  -0.2813218  -0.2811947  -0.2444158  -0.2443577
           37          38          39          40          41          42
    1  -0.2439351   0.0085632   0.2025472   0.2070587   0.2071343   0.2071558
           43
    1   0.2400949
 Final Beta MO Eigenvalues
            1           2           3           4           5           6
    1-100.7122409-100.7110422-100.7109704-100.7106362 -10.0980620  -9.2356055
            7           8           9          10          11          12
    1  -9.2343806  -9.2343017  -9.2339615  -7.0526491  -7.0513682  -7.0509786
           13          14          15          16          17          18
    1  -7.0507993  -7.0438557  -7.0436881  -7.0426580  -7.0426509  -7.0426466
           19          20          21          22          23          24
    1  -7.0424917  -7.0423016  -7.0421698  -0.9381684  -0.8038551  -0.8029756
           25          26          27          28          29          30
    1  -0.8026987  -0.5588873  -0.4273455  -0.4270199  -0.4269422  -0.3123136
           31          32          33          34          35          36
    1  -0.3122933  -0.2739039  -0.2738514  -0.2738337  -0.2417212  -0.2416473
           37          38          39          40          41          42
    1  -0.2411796   0.1925941   0.2161232   0.2165246   0.2166189   0.2435221
 Analysis of SCF Wavefunction
 
 --------------------------------------------------------------
                    Orbital Energies (a.u.)
 --------------------------------------------------------------
 
 Alpha MOs
 -- Occupied --
*******-100.712-100.712-100.711 -10.108  -9.236  -9.235  -9.235
 -9.235  -7.055  -7.053  -7.053  -7.053  -7.044  -7.044  -7.043
 -7.043  -7.043  -7.043  -7.043  -7.043  -0.948  -0.810  -0.810
 -0.809  -0.582  -0.441  -0.440  -0.440  -0.316  -0.316  -0.281
 -0.281  -0.281  -0.244  -0.244  -0.244   0.009
 -- Virtual --
  0.203   0.207   0.207   0.207   0.240   0.240   0.240   0.274
  0.274   0.305   0.305   0.305   0.306   0.306   0.306   0.310
  0.333   0.333   0.333   0.385   0.385   0.385   0.482   0.496
  0.496   0.552   0.552   0.552   0.580   0.580   0.580   0.606
  0.606   0.606   0.618   0.618   0.641   0.673   0.673   0.673
  0.680   0.680   0.680   0.728   0.728   0.728   0.781   0.782
  0.782   0.809   0.809   0.809   0.933   0.933   0.934   1.017
  1.131   1.131   1.131   1.137   1.137   1.220   1.220   1.220
  1.295   1.295   1.295   1.317   1.329   1.329   1.329   1.379
  1.379   1.390   1.390   1.390   1.393   1.393   1.393   1.441
  1.444   1.444   1.444   1.461   1.461   1.466   1.466   1.466
  1.503   1.503   1.503   1.541   1.706   1.707   1.707   1.718
  1.718   1.718   1.744   1.744   1.749   1.874   1.874   1.875
  1.967   1.967   1.967   1.995   1.998   1.998   1.998   2.048
  2.048   2.202   2.203   2.203   2.469   2.469   2.469   2.569
  2.569   2.569   2.582   2.582   2.755   2.756   2.756   2.966
  3.378   3.378   3.378   3.586   3.594   3.594   3.594   3.683
  3.684   3.684   3.913   3.913   4.117   4.117   4.117   4.618
  4.618   4.618   4.620   4.620   4.621   4.624   4.658   4.658
  4.671   4.671   4.672   4.694   4.748   4.748   4.748   4.783
  4.783   4.860   4.861   4.861   4.907   4.908   4.908   4.916
  4.916   4.916   4.938   5.347   5.347   5.349   5.350   5.351
  5.361   5.362   5.363   5.484   5.484   5.485   5.616   5.617
  5.617   5.632   5.632   5.988   6.122   6.123   6.123  10.086
 10.139  10.140  10.140  20.789  20.790  20.790  20.817  20.817
 20.817  20.833  20.834  21.131  21.132  21.132  21.152  23.883
 27.288  27.292  27.298  27.304  27.314  27.320  27.340  27.367
 27.370  27.375  27.376  27.396  27.412  27.435  27.440  27.447
 27.459  27.460  27.471  27.526  28.154  28.162  28.169  36.994
 36.996  36.996  36.997  36.998  36.998  36.998  37.000  37.000
 37.004  37.006  37.006  37.007  37.011  37.012  37.013  37.015
 37.016  37.023  37.023  37.024  37.029  37.032  37.033  37.033
 37.038  37.040  37.041  40.976  40.985  41.226  41.235  41.252
216.000 216.029 216.030 216.030
 
 Beta MOs
 -- Occupied --
*******-100.711-100.711-100.711 -10.098  -9.236  -9.234  -9.234
 -9.234  -7.053  -7.051  -7.051  -7.051  -7.044  -7.044  -7.043
 -7.043  -7.043  -7.042  -7.042  -7.042  -0.938  -0.804  -0.803
 -0.803  -0.559  -0.427  -0.427  -0.427  -0.312  -0.312  -0.274
 -0.274  -0.274  -0.242  -0.242  -0.241
 -- Virtual --
  0.193   0.216   0.217   0.217   0.244   0.247   0.247   0.247
  0.274   0.274   0.307   0.307   0.307   0.318   0.318   0.319
  0.322   0.342   0.342   0.342   0.388   0.388   0.388   0.487
  0.500   0.500   0.559   0.559   0.559   0.586   0.587   0.587
  0.608   0.608   0.609   0.620   0.620   0.648   0.678   0.679
  0.679   0.684   0.684   0.685   0.731   0.731   0.731   0.784
  0.784   0.795   0.821   0.822   0.822   0.936   0.936   0.936
  1.031   1.135   1.135   1.135   1.143   1.143   1.227   1.227
  1.228   1.300   1.300   1.300   1.319   1.331   1.332   1.332
  1.383   1.383   1.393   1.393   1.393   1.396   1.396   1.397
  1.449   1.449   1.449   1.449   1.466   1.466   1.471   1.471
  1.471   1.507   1.507   1.507   1.543   1.710   1.711   1.711
  1.721   1.721   1.721   1.749   1.749   1.752   1.880   1.881
  1.881   1.971   1.971   1.971   2.005   2.005   2.005   2.006
  2.055   2.055   2.206   2.207   2.207   2.471   2.471   2.471
  2.573   2.574   2.574   2.586   2.586   2.762   2.762   2.763
  2.973   3.388   3.389   3.389   3.596   3.605   3.605   3.605
  3.692   3.692   3.692   3.936   3.936   4.138   4.138   4.139
  4.623   4.623   4.623   4.623   4.623   4.624   4.627   4.664
  4.664   4.674   4.675   4.675   4.696   4.753   4.753   4.753
  4.789   4.789   4.867   4.867   4.868   4.915   4.915   4.915
  4.921   4.922   4.922   4.946   5.348   5.348   5.350   5.351
  5.352   5.362   5.363   5.364   5.487   5.487   5.488   5.619
  5.619   5.620   5.634   5.635   5.993   6.126   6.126   6.127
 10.088  10.141  10.142  10.142  20.790  20.791  20.791  20.817
 20.818  20.818  20.834  20.835  21.134  21.135  21.136  21.155
 23.894  27.291  27.294  27.299  27.305  27.315  27.322  27.342
 27.368  27.371  27.376  27.377  27.397  27.415  27.437  27.441
 27.449  27.461  27.462  27.472  27.529  28.163  28.170  28.177
 36.995  36.996  36.997  36.997  36.998  36.998  36.999  37.000
 37.000  37.004  37.006  37.006  37.008  37.011  37.012  37.013
 37.016  37.016  37.024  37.024  37.025  37.030  37.032  37.034
 37.034  37.039  37.041  37.041  40.980  40.989  41.228  41.237
 41.254 216.001 216.030 216.030 216.031
 --------------------------------------------------------------
 
          Ground-State Mulliken Net Atomic Charges

     Atom                 Charge (a.u.)    Spin (a.u.)
  --------------------------------------------------------
      1 C                     1.759873      -0.177579
      2 Cl                   -0.691190       0.296381
      3 Cl                   -0.692790       0.298486
      4 Cl                   -0.684611       0.286708
      5 Cl                   -0.691281       0.296003
  --------------------------------------------------------
  Sum of atomic charges =    -1.000000
  Sum of spin   charges =     1.000000

 -----------------------------------------------------------------
                    Cartesian Multipole Moments
 -----------------------------------------------------------------
    Charge (ESU x 10^10)
                -4.8032
    Dipole Moment (Debye)
         X      -0.0479      Y      -0.0493      Z      -0.0173
       Tot       0.0709
    Quadrupole Moments (Debye-Ang)
        XX     -68.3852     XY       0.0913     YY     -68.2083
        XZ       0.0614     YZ       0.0646     ZZ     -68.3637
    Octapole Moments (Debye-Ang^2)
       XXX      -7.5420    XXY      -0.1399    XYY       7.0136
       YYY      -0.4190    XXZ       5.1436    XYZ      -0.0960
       YYZ       4.9560    XZZ      -0.0654    YZZ      -0.0718
       ZZZ     -10.3324
    Hexadecapole Moments (Debye-Ang^3)
      XXXX    -453.4396   XXXY       0.5181   XXYY    -150.5820
      XYYY       0.7075   YYYY    -450.7504   XXXZ       5.2270
      XXYZ       0.1671   XYYZ      -4.5678   YYYZ       0.5006
      XXZZ    -147.6179   XYZZ       0.1883   YYZZ    -147.1984
      XZZZ       0.3400   YZZZ       0.3332   ZZZZ    -456.2159
 -----------------------------------------------------------------
 Total job time:  430.18s(wall), 429.27s(cpu) 
 Wed May 29 17:12:01 2013

        *************************************************************
        *                                                           *
        *  Thank you very much for using Q-Chem.  Have a nice day.  *
        *                                                           *
        *************************************************************


0 sent ACK to 0 
now end server 0 ... 
 
**********************************************************************
Job 2 of 3 
**********************************************************************
 
Process 0 of 1 is on cl167.stfx.acenet.ca - thread support 1
initial socket setup ...start
initial socket setup ...done 
now start server 0 ... 

cmd = /usr/bin/ssh clhead /usr/local/qchem/bin/get_hostid 339386341 > /scratch/tmp/6022208.1.medium.q/qchem16693/lic.dat
                  Welcome to Q-Chem
     A Quantum Leap Into The Future Of Chemistry

 Y. Shao, L. Fusti-Molnar, Y. Jung, J. Kussmann, C. Ochsenfeld,
 S. T. Brown, A. T. B. Gilbert, L. V. Slipchenko,S. V. Levchenko,
 D. P. O'Neill, R. A. DiStasio Jr., R. C. Lochan, T. Wang,
 G. J. O. Beran, N. A. Besley, J. M. Herbert, C. Y. Lin,
 T. Van Voorhis, S. H. Chien, A. Sodt, R. P. Steele, 
 V. A. Rassolov, P. E. Maslen, P. P. Korambath, R. D. Adamson,
 B. Austin, J. Baker, E. F. C. Byrd, H. Dachsel, R. J. Doerksen,
 A. Dreuw, B. D. Dunietz, A. D. Dutoi, T. R. Furlani,
 S. R. Gwaltney, A. Heyden, S. Hirata, C.-P. Hsu, G. Kedziora,
 R. Z. Khaliullin, P. Klunzinger, A. M. Lee, M. S. Lee, W. Liang,
 I. Lotan, N. Nair, B. Peters, E. I. Proynov, P. A. Pieniazek, 
 Y. M. Rhee, J. Ritchie, E. Rosta, C. D. Sherrill, 
 A. C. Simmonett, J. E. Subotnik, H. L. Woodcock III,
 W. Zhang, A. T. Bell, A. K. Chakraborty, D. M. Chipman,
 F. J. Keil, A. Warshel, W. J. Hehre, H. F. Schaefer III,
 J. Kong, A. I. Krylov, P. M. W. Gill, M. Head-Gordon,
 Q-Chem, Version 3.1, Q-Chem, Inc., Pittsburgh, PA (2007).

 Additional authors for Version 3.1: 
 Z. Gan, Y. Zhao, N. E. Schultz, D. Truhlar, E. Epifanovsky and M. Oana.

 Additional authors for Version 3.2: 
 R. Baer, B. R. Brooks, D. Casanova, J.-D. Chai, C.-L. Cheng, 
 C. Cramer, D. Crittenden, A. Ghysels, G. Hawkins, E. G. Hohenstein, 
 C. Kelley, W. Kurlancheek, D. Liotard, E. Livshits, P. Manohar, 
 A. Marenich, D. Neuhauser, R. Olson, M. A. Rohrdanz, K. S. Thanthiriwatte, 
 A. J. W. Thom, V. Vanovschi, C. F. Williams, Q. Wu and Z.-Q. You. 


 Intel X86 Linux Version

 Q-chem begins on Wed May 29 17:12:04 2013  

 Parallel job on  1  processors
Processing $rem in /usr/local/qchem/config/preferences.

theFileMan(): MAXOPENFILES=974 MAX_SUB_FILE_NUM=16
Maximum size of a physical file is 2.0 GB, maximum size of a tmp-file is 32.0 GB


--------------------------------------------------------------
User input:
--------------------------------------------------------------

$molecule
0,1
C          0.00015        0.00000       -0.00006
Cl        -0.00020        0.00000        1.75444
Cl         1.65491        0.00000       -0.58494
Cl        -0.82743       -1.43231       -0.58472
Cl        -0.82743        1.43231       -0.58472
$end

$comment
neutral
$end

$xc_functional
C PBE   1.00
X wPBE  1.00
$end


$rem
SYMMETRY_DECOMPOSITION	0
LRC_DFT                 true
exchange 		general
BASIS                   g3large
omega			410
mem_static              760
max_scf_cycles          200
scf_final_print         1
sym_ignore              true
$end

--------------------------------------------------------------
 Writing REM_CC_EA            5
 ----------------------------------------------------
       Standard Nuclear Orientation (Angstroms)
    I     Atom         X            Y            Z
 ----------------------------------------------------
    1      C       0.000150     0.000000    -0.000060
    2      Cl     -0.000200     0.000000     1.754440
    3      Cl      1.654910     0.000000    -0.584940
    4      Cl     -0.827430    -1.432310    -0.584720
    5      Cl     -0.827430     1.432310    -0.584720
 ----------------------------------------------------
 Nuclear Repulsion Energy =   443.2894061578 hartrees
 There are       37 alpha and       37 beta electrons
 Requested basis set is G3large
 There are 86 shells and 306 basis functions

Total QAlloc Memory Limit   2000 MB
Mega-Array Size       743 MB
MEM_STATIC part       760 MB

                       Distance Matrix (Angstroms)
             C (  1)   Cl(  2)   Cl(  3)   Cl(  4)
   Cl(  2)  1.754500
   Cl(  3)  1.755083  2.865674
   Cl(  4)  1.754488  2.864872  2.865925
   Cl(  5)  1.754488  2.864872  2.865925  2.864620
 
 A cutoff of  1.0D-08 yielded   2931 shell pairs
 There are  38903 function pairs ( 54927 Cartesian)
Evaluating contribution to one-electron hamiltonian from nuclear
 Smallest overlap matrix eigenvalue = 3.52E-05

 Q-Chem warning in module mkSTV.C, line 194:

 Overlap eigenvalue is smaller than square root of threshold

 Multipole matrices computed through 2nd order

  Scale SEOQF with 1.000000e-01/1.000000e-01/1.000000e-01

 Standard Electronic Orientation quadrupole field applied
 Guess from superposition of atomic densities
 Warning:  Energy on first SCF cycle will be non-variational
 Long-range K will be added via erf
 Coulomb attenuation parameter = 0.41 bohr**(-1)
 A restricted Kohn-Sham SCF calculation will be
 performed using Pulay DIIS extrapolation
 Exchange:  wPBE + LR-HF      Correlation:  PBE
 Using SG-1 standard quadrature grid
 SCF converges when DIIS error is below 1.0E-05
 Requested basis set is G3large
 There are 86 shells and 306 basis functions
 A cutoff of  1.0D-08 yielded   2931 shell pairs
 There are  38903 function pairs ( 54927 Cartesian)
 ---------------------------------------
  Cycle       Energy         DIIS Error
 ---------------------------------------
    1   -1879.3065388238      1.95E-02
    2   -1878.1536474895      3.91E-03
    3   -1878.0695452735      5.48E-03
    4   -1878.3367831711      3.11E-04
    5   -1878.3381891819      9.63E-05
    6   -1878.3383691687      3.15E-05
    7   -1878.3383949997      9.42E-06 Convergence criterion met
 ---------------------------------------
 One-Electron    Energy = -3476.1737871480
 Total Coulomb   Energy =  1272.3700327422
 Alpha Exchange  Energy =    -7.8620652355
 Beta  Exchange  Energy =    -7.8620652355
 DFT   Exchange  Energy =   -99.2115335345
 DFT Correlation Energy =    -2.8883827462
 Nuclear Repu.   Energy =   443.2894061578
 Nuclear Attr.   Energy = -5351.9822400719
 Kinetic         Energy =  1875.8084529240
 SCF time:  CPU 307.39 s  wall 308.30 s
 Final Alpha MO Eigenvalues
            1           2           3           4           5           6
    1-100.9200148-100.9198508-100.9198320-100.9196398 -10.3625035  -9.4430796
            7           8           9          10          11          12
    1  -9.4429552  -9.4429371  -9.4427727  -7.2626355  -7.2623410  -7.2623165
           13          14          15          16          17          18
    1  -7.2621422  -7.2502797  -7.2502269  -7.2502225  -7.2502161  -7.2500963
           19          20          21          22          23          24
    1  -7.2500730  -7.2499694  -7.2497894  -1.1535714  -1.0114908  -1.0114115
           25          26          27          28          29          30
    1  -1.0113698  -0.7710575  -0.6392318  -0.6392091  -0.6391854  -0.5118886
           31          32          33          34          35          36
    1  -0.5118725  -0.4749714  -0.4749279  -0.4749219  -0.4411990  -0.4411432
           37          38          39          40          41          42
    1  -0.4411076   0.0323737   0.0693131   0.0693723   0.0693964   0.0739315
 Analysis of SCF Wavefunction
 
 --------------------------------------------------------------
                    Orbital Energies (a.u.)
 --------------------------------------------------------------
 
 Alpha MOs
 -- Occupied --
*******-100.920-100.920-100.920 -10.363  -9.443  -9.443  -9.443
 -9.443  -7.263  -7.262  -7.262  -7.262  -7.250  -7.250  -7.250
 -7.250  -7.250  -7.250  -7.250  -7.250  -1.154  -1.011  -1.011
 -1.011  -0.771  -0.639  -0.639  -0.639  -0.512  -0.512  -0.475
 -0.475  -0.475  -0.441  -0.441  -0.441
 -- Virtual --
  0.032   0.069   0.069   0.069   0.074   0.099   0.099   0.099
  0.140   0.140   0.152   0.152   0.152   0.178   0.178   0.178
  0.178   0.191   0.191   0.191   0.234   0.234   0.234   0.309
  0.309   0.331   0.381   0.381   0.381   0.408   0.408   0.408
  0.423   0.423   0.423   0.438   0.438   0.488   0.504   0.504
  0.504   0.516   0.516   0.516   0.561   0.561   0.561   0.608
  0.608   0.610   0.626   0.626   0.626   0.755   0.755   0.755
  0.831   0.942   0.942   0.942   0.949   0.949   1.031   1.031
  1.031   1.109   1.109   1.109   1.131   1.140   1.140   1.140
  1.191   1.191   1.202   1.202   1.202   1.203   1.203   1.203
  1.253   1.253   1.254   1.254   1.266   1.266   1.280   1.280
  1.280   1.316   1.316   1.317   1.356   1.524   1.524   1.524
  1.526   1.526   1.527   1.549   1.550   1.568   1.683   1.683
  1.683   1.776   1.777   1.777   1.799   1.803   1.803   1.803
  1.859   1.859   2.008   2.008   2.009   2.277   2.277   2.277
  2.373   2.373   2.374   2.388   2.388   2.557   2.557   2.557
  2.768   3.168   3.168   3.168   3.378   3.386   3.387   3.387
  3.471   3.471   3.471   3.706   3.706   3.909   3.910   3.910
  4.416   4.416   4.417   4.420   4.420   4.420   4.424   4.456
  4.456   4.471   4.471   4.471   4.494   4.546   4.546   4.547
  4.581   4.581   4.659   4.659   4.659   4.705   4.705   4.705
  4.714   4.714   4.714   4.734   5.144   5.145   5.147   5.148
  5.148   5.159   5.160   5.160   5.278   5.278   5.279   5.412
  5.412   5.413   5.426   5.426   5.783   5.914   5.915   5.916
  9.882   9.935   9.935   9.935  20.584  20.584  20.584  20.611
 20.611  20.611  20.628  20.628  20.924  20.925  20.925  20.944
 23.630  27.072  27.081  27.089  27.097  27.106  27.112  27.126
 27.161  27.163  27.169  27.170  27.188  27.202  27.227  27.232
 27.236  27.249  27.250  27.263  27.318  27.918  27.926  27.933
 36.787  36.788  36.789  36.790  36.791  36.791  36.791  36.792
 36.793  36.797  36.799  36.799  36.801  36.804  36.805  36.805
 36.807  36.807  36.814  36.815  36.815  36.821  36.823  36.824
 36.825  36.830  36.832  36.832  40.725  40.734  40.974  40.983
 40.999 215.792 215.822 215.822 215.822
 --------------------------------------------------------------
 
          Ground-State Mulliken Net Atomic Charges

     Atom                 Charge (a.u.)
  ----------------------------------------
      1 C                     1.392019
      2 Cl                   -0.347809
      3 Cl                   -0.347854
      4 Cl                   -0.348226
      5 Cl                   -0.348129
  ----------------------------------------
  Sum of atomic charges =     0.000000

 -----------------------------------------------------------------
                    Cartesian Multipole Moments
 -----------------------------------------------------------------
    Charge (ESU x 10^10)
                 0.0000
    Dipole Moment (Debye)
         X      -0.0011      Y       0.0014      Z       0.0010
       Tot       0.0020
    Quadrupole Moments (Debye-Ang)
        XX     -54.4416     XY       0.0007     YY     -54.4456
        XZ      -0.0005     YZ       0.0007     ZZ     -54.4413
    Octapole Moments (Debye-Ang^2)
       XXX       4.6253    XXY      -0.0015    XYY      -4.6344
       YYY      -0.0044    XXZ      -3.2740    XYZ       0.0006
       YYZ      -3.2741    XZZ      -0.0024    YZZ      -0.0019
       ZZZ       6.5531
    Hexadecapole Moments (Debye-Ang^3)
      XXXX    -346.7971   XXXY      -0.0046   XXYY    -115.5385
      XYYY       0.0029   YYYY    -346.4888   XXXZ      -6.0810
      XXYZ       0.0021   XYYZ       6.1183   YYYZ       0.0063
      XXZZ    -119.8757   XYZZ      -0.0001   YYZZ    -119.8203
      XZZZ       0.0202   YZZZ       0.0014   ZZZZ    -342.1993
 -----------------------------------------------------------------
 Total job time:  308.85s(wall), 307.93s(cpu) 
 Wed May 29 17:17:13 2013

        *************************************************************
        *                                                           *
        *  Thank you very much for using Q-Chem.  Have a nice day.  *
        *                                                           *
        *************************************************************


0 sent ACK to 0 
now end server 0 ... 
 
**********************************************************************
Job 3 of 3 
**********************************************************************
 
Process 0 of 1 is on cl167.stfx.acenet.ca - thread support 1
initial socket setup ...start
initial socket setup ...done 
now start server 0 ... 

cmd = /usr/bin/ssh clhead /usr/local/qchem/bin/get_hostid 2091152032 > /scratch/tmp/6022208.1.medium.q/qchem16693/lic.dat
                  Welcome to Q-Chem
     A Quantum Leap Into The Future Of Chemistry

 Y. Shao, L. Fusti-Molnar, Y. Jung, J. Kussmann, C. Ochsenfeld,
 S. T. Brown, A. T. B. Gilbert, L. V. Slipchenko,S. V. Levchenko,
 D. P. O'Neill, R. A. DiStasio Jr., R. C. Lochan, T. Wang,
 G. J. O. Beran, N. A. Besley, J. M. Herbert, C. Y. Lin,
 T. Van Voorhis, S. H. Chien, A. Sodt, R. P. Steele, 
 V. A. Rassolov, P. E. Maslen, P. P. Korambath, R. D. Adamson,
 B. Austin, J. Baker, E. F. C. Byrd, H. Dachsel, R. J. Doerksen,
 A. Dreuw, B. D. Dunietz, A. D. Dutoi, T. R. Furlani,
 S. R. Gwaltney, A. Heyden, S. Hirata, C.-P. Hsu, G. Kedziora,
 R. Z. Khaliullin, P. Klunzinger, A. M. Lee, M. S. Lee, W. Liang,
 I. Lotan, N. Nair, B. Peters, E. I. Proynov, P. A. Pieniazek, 
 Y. M. Rhee, J. Ritchie, E. Rosta, C. D. Sherrill, 
 A. C. Simmonett, J. E. Subotnik, H. L. Woodcock III,
 W. Zhang, A. T. Bell, A. K. Chakraborty, D. M. Chipman,
 F. J. Keil, A. Warshel, W. J. Hehre, H. F. Schaefer III,
 J. Kong, A. I. Krylov, P. M. W. Gill, M. Head-Gordon,
 Q-Chem, Version 3.1, Q-Chem, Inc., Pittsburgh, PA (2007).

 Additional authors for Version 3.1: 
 Z. Gan, Y. Zhao, N. E. Schultz, D. Truhlar, E. Epifanovsky and M. Oana.

 Additional authors for Version 3.2: 
 R. Baer, B. R. Brooks, D. Casanova, J.-D. Chai, C.-L. Cheng, 
 C. Cramer, D. Crittenden, A. Ghysels, G. Hawkins, E. G. Hohenstein, 
 C. Kelley, W. Kurlancheek, D. Liotard, E. Livshits, P. Manohar, 
 A. Marenich, D. Neuhauser, R. Olson, M. A. Rohrdanz, K. S. Thanthiriwatte, 
 A. J. W. Thom, V. Vanovschi, C. F. Williams, Q. Wu and Z.-Q. You. 


 Intel X86 Linux Version

 Q-chem begins on Wed May 29 17:17:16 2013  

 Parallel job on  1  processors
Processing $rem in /usr/local/qchem/config/preferences.

theFileMan(): MAXOPENFILES=974 MAX_SUB_FILE_NUM=16
Maximum size of a physical file is 2.0 GB, maximum size of a tmp-file is 32.0 GB


--------------------------------------------------------------
User input:
--------------------------------------------------------------

$molecule
1,2
C          0.00015        0.00000       -0.00006
Cl        -0.00020        0.00000        1.75444
Cl         1.65491        0.00000       -0.58494
Cl        -0.82743       -1.43231       -0.58472
Cl        -0.82743        1.43231       -0.58472
$end

$comment
positive
$end

$xc_functional
C PBE   1.00
X wPBE  1.00
$end

$rem
SYMMETRY_DECOMPOSITION	0
LRC_DFT                 true
exchange 		general
BASIS                   g3large
omega			410
mem_static              760
max_scf_cycles          200
scf_final_print         1
sym_ignore              true
$end

--------------------------------------------------------------
 Writing REM_CC_EA            5
 ----------------------------------------------------
       Standard Nuclear Orientation (Angstroms)
    I     Atom         X            Y            Z
 ----------------------------------------------------
    1      C       0.000150     0.000000    -0.000060
    2      Cl     -0.000200     0.000000     1.754440
    3      Cl      1.654910     0.000000    -0.584940
    4      Cl     -0.827430    -1.432310    -0.584720
    5      Cl     -0.827430     1.432310    -0.584720
 ----------------------------------------------------
 Nuclear Repulsion Energy =   443.2894061578 hartrees
 There are       37 alpha and       36 beta electrons
 Requested basis set is G3large
 There are 86 shells and 306 basis functions

Total QAlloc Memory Limit   2000 MB
Mega-Array Size       743 MB
MEM_STATIC part       760 MB

                       Distance Matrix (Angstroms)
             C (  1)   Cl(  2)   Cl(  3)   Cl(  4)
   Cl(  2)  1.754500
   Cl(  3)  1.755083  2.865674
   Cl(  4)  1.754488  2.864872  2.865925
   Cl(  5)  1.754488  2.864872  2.865925  2.864620
 
 A cutoff of  1.0D-08 yielded   2931 shell pairs
 There are  38903 function pairs ( 54927 Cartesian)
Evaluating contribution to one-electron hamiltonian from nuclear
 Smallest overlap matrix eigenvalue = 3.52E-05

 Q-Chem warning in module mkSTV.C, line 194:

 Overlap eigenvalue is smaller than square root of threshold

 Multipole matrices computed through 2nd order

  Scale SEOQF with 1.000000e-01/1.000000e-01/1.000000e-01

 Standard Electronic Orientation quadrupole field applied
 Guess from superposition of atomic densities
 Warning:  Energy on first SCF cycle will be non-variational
 Long-range K will be added via erf
 Coulomb attenuation parameter = 0.41 bohr**(-1)
 An unrestricted Kohn-Sham SCF calculation will be
 performed using Pulay DIIS extrapolation
 Exchange:  wPBE + LR-HF      Correlation:  PBE
 Using SG-1 standard quadrature grid
 SCF converges when DIIS error is below 1.0E-05
 Requested basis set is G3large
 There are 86 shells and 306 basis functions
 A cutoff of  1.0D-08 yielded   2931 shell pairs
 There are  38903 function pairs ( 54927 Cartesian)
 Warning!  Inaccurate integrated density:
   Number of electrons =    73
   Numerical integral  =    74.000007602611
   Relative error      =     1.3698734282 %
 ---------------------------------------
  Cycle       Energy         DIIS Error
 ---------------------------------------
    1   -1879.3065388238      1.95E-02
    2   -1877.6182318722      4.54E-03
    3   -1877.5106820987      6.47E-03
    4   -1877.8962279204      4.56E-04
    5   -1877.8993264381      1.63E-04
    6   -1877.8999972516      6.94E-05
    7   -1877.9003219618      3.77E-05
    8   -1877.9005734935      3.93E-05
    9   -1877.9007916353      2.86E-05
   10   -1877.9010470631      2.43E-05
   11   -1877.9011928064      1.70E-05
   12   -1877.9013086661      1.20E-05
   13   -1877.9013970038      9.05E-06 Convergence criterion met
 ---------------------------------------
 One-Electron    Energy = -3459.0431825247
 Total Coulomb   Energy =  1255.2690637803
 Alpha Exchange  Energy =    -7.8803523605
 Beta  Exchange  Energy =    -7.6329729865
 DFT   Exchange  Energy =   -99.0545921200
 DFT Correlation Energy =    -2.8487669502
 Nuclear Repu.   Energy =   443.2894061578
 Nuclear Attr.   Energy = -5334.3513460832
 Kinetic         Energy =  1875.3081635585
 <S^2> = 0.7596
 SCF time:  CPU 691.42 s  wall 692.95 s
 Final Alpha MO Eigenvalues
            1           2           3           4           5           6
    1-101.2045144-101.1948647-101.1279033-101.1222192 -10.5809669  -9.7233588
            7           8           9          10          11          12
    1  -9.7139951  -9.6492167  -9.6438142  -7.5406646  -7.5390826  -7.5315657
           13          14          15          16          17          18
    1  -7.5289218  -7.5274334  -7.5183158  -7.4686249  -7.4636512  -7.4581981
           19          20          21          22          23          24
    1  -7.4555522  -7.4522117  -7.4501100  -1.3845244  -1.2719180  -1.2389292
           25          26          27          28          29          30
    1  -1.2120612  -0.9973372  -0.8756866  -0.8647580  -0.8493238  -0.7615347
           31          32          33          34          35          36
    1  -0.7418745  -0.7306389  -0.7028646  -0.6844674  -0.6696595  -0.6567676
           37          38          39          40          41          42
    1  -0.6402607  -0.1814561  -0.1398084  -0.1256885  -0.1203765  -0.0752217
 Final Beta MO Eigenvalues
            1           2           3           4           5           6
    1-101.2012312-101.1919066-101.1272771-101.1217880 -10.5811774  -9.7204206
            7           8           9          10          11          12
    1  -9.7113515  -9.6486631  -9.6434338  -7.5377759  -7.5314303  -7.5290711
           13          14          15          16          17          18
    1  -7.5254462  -7.5219300  -7.5165282  -7.4683464  -7.4634624  -7.4564218
           19          20          21          22          23          24
    1  -7.4552334  -7.4509647  -7.4499144  -1.3768207  -1.2472962  -1.2269926
           25          26          27          28          29          30
    1  -1.2088497  -0.9882229  -0.8655970  -0.8477139  -0.8471065  -0.7334491
           31          32          33          34          35          36
    1  -0.6991501  -0.6964691  -0.6655744  -0.6649752  -0.6407799  -0.6388022
           37          38          39          40          41
    1  -0.4311801  -0.1763280  -0.1345765  -0.1218198  -0.1197218
 Analysis of SCF Wavefunction
 
 --------------------------------------------------------------
                    Orbital Energies (a.u.)
 --------------------------------------------------------------
 
 Alpha MOs
 -- Occupied --
*******-101.195-101.128-101.122 -10.581  -9.723  -9.714  -9.649
 -9.644  -7.541  -7.539  -7.532  -7.529  -7.527  -7.518  -7.469
 -7.464  -7.458  -7.456  -7.452  -7.450  -1.385  -1.272  -1.239
 -1.212  -0.997  -0.876  -0.865  -0.849  -0.762  -0.742  -0.731
 -0.703  -0.684  -0.670  -0.657  -0.640
 -- Virtual --
 -0.181  -0.140  -0.126  -0.120  -0.075  -0.043  -0.040  -0.037
 -0.005  -0.004  -0.004  -0.002  -0.001   0.031   0.035   0.036
  0.041   0.042   0.046   0.050   0.059   0.062   0.070   0.101
  0.101   0.172   0.186   0.187   0.195   0.202   0.215   0.222
  0.222   0.223   0.232   0.240   0.251   0.294   0.313   0.318
  0.324   0.339   0.354   0.362   0.369   0.377   0.383   0.407
  0.414   0.420   0.423   0.434   0.436   0.544   0.561   0.569
  0.625   0.732   0.733   0.740   0.747   0.748   0.811   0.820
  0.831   0.894   0.899   0.903   0.920   0.922   0.924   0.936
  0.960   0.962   0.968   0.970   0.988   1.006   1.008   1.009
  1.030   1.041   1.048   1.049   1.050   1.061   1.064   1.076
  1.088   1.091   1.110   1.128   1.148   1.296   1.303   1.313
  1.314   1.316   1.333   1.339   1.345   1.373   1.460   1.475
  1.484   1.559   1.560   1.574   1.584   1.594   1.596   1.597
  1.654   1.655   1.778   1.795   1.807   2.029   2.058   2.072
  2.131   2.159   2.159   2.177   2.186   2.329   2.337   2.352
  2.551   2.949   2.949   2.952   3.156   3.164   3.171   3.175
  3.242   3.255   3.267   3.488   3.490   3.690   3.690   3.692
  4.146   4.155   4.163   4.169   4.173   4.182   4.195   4.219
  4.222   4.230   4.248   4.263   4.266   4.307   4.310   4.325
  4.345   4.366   4.405   4.429   4.435   4.453   4.470   4.487
  4.489   4.490   4.509   4.517   4.872   4.875   4.883   4.888
  4.943   4.948   4.954   4.955   5.034   5.035   5.050   5.164
  5.167   5.197   5.203   5.216   5.548   5.659   5.690   5.710
  9.630   9.667   9.717   9.735  20.305  20.326  20.335  20.337
 20.391  20.396  20.408  20.417  20.655  20.665  20.719  20.732
 23.412  26.822  26.831  26.833  26.859  26.871  26.880  26.883
 26.891  26.897  26.902  26.957  26.960  26.967  26.970  26.973
 27.020  27.035  27.043  27.056  27.076  27.697  27.700  27.707
 36.511  36.513  36.514  36.516  36.522  36.523  36.525  36.528
 36.531  36.538  36.542  36.547  36.549  36.552  36.589  36.589
 36.593  36.594  36.595  36.597  36.602  36.602  36.606  36.611
 36.612  36.618  36.618  36.626  40.506  40.516  40.755  40.765
 40.780 215.524 215.544 215.605 215.618
 
 Beta MOs
 -- Occupied --
*******-101.192-101.127-101.122 -10.581  -9.720  -9.711  -9.649
 -9.643  -7.538  -7.531  -7.529  -7.525  -7.522  -7.517  -7.468
 -7.463  -7.456  -7.455  -7.451  -7.450  -1.377  -1.247  -1.227
 -1.209  -0.988  -0.866  -0.848  -0.847  -0.733  -0.699  -0.696
 -0.666  -0.665  -0.641  -0.639
 -- Virtual --
 -0.431  -0.176  -0.135  -0.122  -0.120  -0.075  -0.042  -0.038
 -0.037  -0.003  -0.003  -0.003  -0.001   0.001   0.031   0.037
  0.038   0.042   0.044   0.046   0.050   0.066   0.068   0.070
  0.106   0.110   0.171   0.195   0.199   0.203   0.218   0.221
  0.224   0.227   0.229   0.235   0.248   0.254   0.311   0.316
  0.320   0.325   0.342   0.355   0.363   0.378   0.379   0.388
  0.413   0.420   0.422   0.426   0.436   0.437   0.556   0.563
  0.571   0.626   0.736   0.737   0.743   0.749   0.749   0.817
  0.823   0.832   0.900   0.906   0.908   0.926   0.929   0.931
  0.941   0.973   0.977   0.979   0.982   0.997   1.010   1.011
  1.012   1.036   1.046   1.052   1.053   1.055   1.065   1.073
  1.080   1.089   1.101   1.116   1.130   1.155   1.309   1.310
  1.319   1.321   1.322   1.339   1.341   1.347   1.377   1.469
  1.478   1.486   1.562   1.567   1.575   1.591   1.595   1.598
  1.601   1.656   1.658   1.787   1.798   1.809   2.051   2.062
  2.075   2.148   2.161   2.164   2.181   2.189   2.333   2.341
  2.353   2.553   2.949   2.949   2.951   3.157   3.165   3.170
  3.174   3.244   3.256   3.267   3.487   3.489   3.691   3.691
  3.692   4.171   4.179   4.182   4.189   4.192   4.197   4.214
  4.229   4.233   4.239   4.257   4.268   4.275   4.316   4.321
  4.332   4.358   4.370   4.421   4.436   4.438   4.466   4.477
  4.491   4.493   4.496   4.511   4.520   4.882   4.883   4.891
  4.896   4.945   4.950   4.956   4.956   5.035   5.041   5.055
  5.166   5.173   5.200   5.204   5.217   5.552   5.665   5.692
  5.710   9.636   9.672   9.718   9.736  20.317  20.329  20.338
 20.348  20.391  20.399  20.411  20.418  20.658  20.668  20.719
 20.733  23.412  26.828  26.835  26.839  26.861  26.873  26.883
 26.889  26.897  26.898  26.909  26.959  26.963  26.968  26.972
 26.974  27.020  27.037  27.043  27.057  27.078  27.698  27.700
 27.707  36.514  36.515  36.517  36.519  36.524  36.525  36.528
 36.531  36.534  36.538  36.544  36.548  36.550  36.553  36.589
 36.590  36.593  36.594  36.595  36.598  36.602  36.602  36.606
 36.612  36.613  36.618  36.618  36.626  40.506  40.516  40.755
 40.765  40.780 215.528 215.548 215.605 215.618
 --------------------------------------------------------------
 
          Ground-State Mulliken Net Atomic Charges

     Atom                 Charge (a.u.)    Spin (a.u.)
  --------------------------------------------------------
      1 C                     1.389357      -0.057282
      2 Cl                   -0.194631       0.093607
      3 Cl                   -0.207540       0.069205
      4 Cl                    0.020462       0.470878
      5 Cl                   -0.007648       0.423592
  --------------------------------------------------------
  Sum of atomic charges =     1.000000
  Sum of spin   charges =     1.000000

 -----------------------------------------------------------------
                    Cartesian Multipole Moments
 -----------------------------------------------------------------
    Charge (ESU x 10^10)
                 4.8032
    Dipole Moment (Debye)
         X      -1.4584      Y      -0.1499      Z      -0.9274
       Tot       1.7348
    Quadrupole Moments (Debye-Ang)
        XX     -45.1626     XY       0.1496     YY     -41.2773
        XZ       1.3947     YZ       0.1258     ZZ     -45.8264
    Octapole Moments (Debye-Ang^2)
       XXX       5.6751    XXY      -0.1493    XYY     -11.4720
       YYY      -0.4801    XXZ      -7.9627    XYZ      -0.0971
       YYZ      -7.9032    XZZ      -1.4742    YZZ      -0.0735
       ZZZ      11.2918
    Hexadecapole Moments (Debye-Ang^3)
      XXXX    -301.8803   XXXY       0.6557   XXYY     -99.3884
      XYYY       0.1373   YYYY    -279.3689   XXXZ      -5.3928
      XXYZ       0.1821   XYYZ       9.7411   YYYZ       0.3037
      XXZZ    -107.2544   XYZZ       0.1208   YYZZ    -105.9439
      XZZZ       3.4446   YZZZ       0.2773   ZZZZ    -298.6942
 -----------------------------------------------------------------
 Total job time:  693.52s(wall), 691.97s(cpu) 
 Wed May 29 17:28:49 2013

        *************************************************************
        *                                                           *
        *  Thank you very much for using Q-Chem.  Have a nice day.  *
        *                                                           *
        *************************************************************


0 sent ACK to 0 
now end server 0 ... 
