Process 0 of 1 is on cl152.stfx.acenet.ca - thread support 1
initial socket setup ...start
initial socket setup ...done 
now start server 0 ... 

cmd = /usr/bin/ssh clhead /usr/local/qchem/bin/get_hostid 39623796 > /scratch/tmp/6064893.1.medium.q/qchem25582/lic.dat
                  Welcome to Q-Chem
     A Quantum Leap Into The Future Of Chemistry

 Y. Shao, L. Fusti-Molnar, Y. Jung, J. Kussmann, C. Ochsenfeld,
 S. T. Brown, A. T. B. Gilbert, L. V. Slipchenko,S. V. Levchenko,
 D. P. O'Neill, R. A. DiStasio Jr., R. C. Lochan, T. Wang,
 G. J. O. Beran, N. A. Besley, J. M. Herbert, C. Y. Lin,
 T. Van Voorhis, S. H. Chien, A. Sodt, R. P. Steele, 
 V. A. Rassolov, P. E. Maslen, P. P. Korambath, R. D. Adamson,
 B. Austin, J. Baker, E. F. C. Byrd, H. Dachsel, R. J. Doerksen,
 A. Dreuw, B. D. Dunietz, A. D. Dutoi, T. R. Furlani,
 S. R. Gwaltney, A. Heyden, S. Hirata, C.-P. Hsu, G. Kedziora,
 R. Z. Khaliullin, P. Klunzinger, A. M. Lee, M. S. Lee, W. Liang,
 I. Lotan, N. Nair, B. Peters, E. I. Proynov, P. A. Pieniazek, 
 Y. M. Rhee, J. Ritchie, E. Rosta, C. D. Sherrill, 
 A. C. Simmonett, J. E. Subotnik, H. L. Woodcock III,
 W. Zhang, A. T. Bell, A. K. Chakraborty, D. M. Chipman,
 F. J. Keil, A. Warshel, W. J. Hehre, H. F. Schaefer III,
 J. Kong, A. I. Krylov, P. M. W. Gill, M. Head-Gordon,
 Q-Chem, Version 3.1, Q-Chem, Inc., Pittsburgh, PA (2007).

 Additional authors for Version 3.1: 
 Z. Gan, Y. Zhao, N. E. Schultz, D. Truhlar, E. Epifanovsky and M. Oana.

 Additional authors for Version 3.2: 
 R. Baer, B. R. Brooks, D. Casanova, J.-D. Chai, C.-L. Cheng, 
 C. Cramer, D. Crittenden, A. Ghysels, G. Hawkins, E. G. Hohenstein, 
 C. Kelley, W. Kurlancheek, D. Liotard, E. Livshits, P. Manohar, 
 A. Marenich, D. Neuhauser, R. Olson, M. A. Rohrdanz, K. S. Thanthiriwatte, 
 A. J. W. Thom, V. Vanovschi, C. F. Williams, Q. Wu and Z.-Q. You. 


 Intel X86 Linux Version

 Q-chem begins on Mon Jul  8 12:27:19 2013  

 Parallel job on  1  processors
Processing $rem in /usr/local/qchem/config/preferences.

theFileMan(): MAXOPENFILES=974 MAX_SUB_FILE_NUM=16
Maximum size of a physical file is 2.0 GB, maximum size of a tmp-file is 32.0 GB


--------------------------------------------------------------
User input:
--------------------------------------------------------------

$molecule
-1,2
N          0.00000        0.00000        1.83618
C          0.00000        0.00000        0.69391
C          0.00000        0.00000       -0.69391
N          0.00000        0.00000       -1.83618
$end

$comment
negative
$end

$xc_functional
C PBE   1.00
X wPBE  1.00
$end

$rem
SYMMETRY_DECOMPOSITION	0
exchange 		general
LRC_DFT                 true
BASIS                   g3large
omega			800
mem_static              760
max_scf_cycles          200
scf_final_print         1
sym_ignore              true
$end

--------------------------------------------------------------
 Writing REM_CC_EA            4
 ----------------------------------------------------
       Standard Nuclear Orientation (Angstroms)
    I     Atom         X            Y            Z
 ----------------------------------------------------
    1      N       0.000000     0.000000     1.836180
    2      C       0.000000     0.000000     0.693910
    3      C       0.000000     0.000000    -0.693910
    4      N       0.000000     0.000000    -1.836180
 ----------------------------------------------------
 Nuclear Repulsion Energy =    77.2710182365 hartrees
 There are       14 alpha and       13 beta electrons
 Requested basis set is G3large
 There are 40 shells and 168 basis functions

Total QAlloc Memory Limit   2000 MB
Mega-Array Size       743 MB
MEM_STATIC part       760 MB

                       Distance Matrix (Angstroms)
             N (  1)   C (  2)   C (  3)
   C (  2)  1.142270
   C (  3)  2.530090  1.387820
   N (  4)  3.672360  2.530090  1.142270
 
 A cutoff of  1.0D-08 yielded    716 shell pairs
 There are  12995 function pairs ( 17001 Cartesian)
Evaluating contribution to one-electron hamiltonian from nuclear
 Smallest overlap matrix eigenvalue = 9.69E-06

 Q-Chem warning in module mkSTV.C, line 194:

 Overlap eigenvalue is smaller than square root of threshold

 Multipole matrices computed through 2nd order

  Scale SEOQF with 1.000000e-01/1.000000e-01/1.000000e-01

 Standard Electronic Orientation quadrupole field applied
 Nucleus-field energy     =    -0.0000000057 hartrees
 Guess from superposition of atomic densities
 Warning:  Energy on first SCF cycle will be non-variational
 Long-range K will be added via erf
 Coulomb attenuation parameter = 0.8 bohr**(-1)
 An unrestricted Kohn-Sham SCF calculation will be
 performed using Pulay DIIS extrapolation
 Exchange:  wPBE + LR-HF      Correlation:  PBE
 Using SG-1 standard quadrature grid
 SCF converges when DIIS error is below 1.0E-05
 Requested basis set is G3large
 There are 40 shells and 168 basis functions
 A cutoff of  1.0D-08 yielded    716 shell pairs
 There are  12995 function pairs ( 17001 Cartesian)
 Warning!  Inaccurate integrated density:
   Number of electrons =    27
   Numerical integral  =    26.000074941606
   Relative error      =    -3.7034261422 %
 ---------------------------------------
  Cycle       Energy         DIIS Error
 ---------------------------------------
    1    -186.3771749549      3.84E-02
    2    -185.3674654440      6.01E-03
    3    -185.4076502245      6.16E-03
    4    -185.5158985881      6.25E-04
    5    -185.5206410682      2.79E-04
    6    -185.5216360125      8.74E-05
    7    -185.5218202137      2.25E-05
    8    -185.5218420223      6.63E-06 Convergence criterion met
 ---------------------------------------
 One-Electron    Energy =  -409.4876621646
 Total Coulomb   Energy =   171.3808034331
 Alpha Exchange  Energy =    -4.6715164539
 Beta  Exchange  Energy =    -4.3460877931
 DFT   Exchange  Energy =   -14.7901753559
 DFT Correlation Energy =    -0.8782219188
 Nuclear Repu.   Energy =    77.2710182308
 Nuclear Attr.   Energy =  -594.6762063047
 Kinetic         Energy =   185.1885441401
 <S^2> = 0.7791
 SCF time:  CPU 54.35 s  wall 54.95 s
 Final Alpha MO Eigenvalues
            1           2           3           4           5           6
    1 -14.1907615 -14.1907104 -10.1583623 -10.1572880  -0.9949600  -0.9683369
            7           8           9          10          11          12
    1  -0.7002248  -0.4077062  -0.3805493  -0.3676929  -0.3641271  -0.3198981
           13          14          15          16          17          18
    1  -0.2718668  -0.0406752   0.1956341   0.2058001   0.2511731   0.2622449
           19
    1   0.2722584
 Final Beta MO Eigenvalues
            1           2           3           4           5           6
    1 -14.1827071 -14.1826535 -10.1579334 -10.1570209  -0.9800023  -0.9534515
            7           8           9          10          11          12
    1  -0.6689195  -0.3641985  -0.3604395  -0.3465560  -0.3461249  -0.2652244
           13          14          15          16          17          18
    1  -0.2444568   0.1962150   0.2062958   0.2549182   0.2613826   0.2744269
 Analysis of SCF Wavefunction
 
 --------------------------------------------------------------
                    Orbital Energies (a.u.)
 --------------------------------------------------------------
 
 Alpha MOs
 -- Occupied --
-14.191 -14.191 -10.158 -10.157  -0.995  -0.968  -0.700  -0.408
 -0.381  -0.368  -0.364  -0.320  -0.272  -0.041
 -- Virtual --
  0.196   0.206   0.251   0.262   0.272   0.274   0.277   0.315
  0.320   0.414   0.424   0.429   0.430   0.439   0.441   0.451
  0.501   0.520   0.567   0.600   0.811   0.822   0.825   0.866
  0.866   0.927   0.933   0.951   0.994   1.088   1.089   1.123
  1.128   1.148   1.154   1.156   1.212   1.220   1.291   1.306
  1.329   1.487   1.487   1.598   1.677   1.677   1.686   1.774
  1.777   1.932   2.093   2.094   2.410   2.423   2.424   2.425
  2.448   2.772   3.050   3.050   3.065   3.065   3.078   3.079
  3.084   3.189   3.195   3.287   3.292   3.294   3.294   3.526
  3.526   3.542   3.542   3.620   3.623   3.623   3.660   3.853
  3.853   3.918   3.919   4.079   4.079   4.119   4.119   4.279
  4.281   4.377   4.426   4.427   4.563   4.660   4.660   4.848
  5.012   5.015   5.096   5.131   5.131   5.236   5.237   5.300
  5.301   5.489   5.560   5.561   5.706   5.706   6.200   6.389
  6.392   6.972   7.368   7.370   7.401   8.677  24.860  25.244
 27.734  27.736  27.929  27.930  29.117  30.591  36.557  37.413
 37.895  37.896  38.262  38.263  38.727  38.861  40.902  40.911
 41.005  41.007  41.014  41.084  41.085  41.246  41.259  41.275
 41.276  41.487  41.500  41.505  41.672  41.673  41.748  41.749
 42.105  42.143
 
 Beta MOs
 -- Occupied --
-14.183 -14.183 -10.158 -10.157  -0.980  -0.953  -0.669  -0.364
 -0.360  -0.347  -0.346  -0.265  -0.244
 -- Virtual --
  0.196   0.206   0.255   0.261   0.274   0.277   0.278   0.296
  0.317   0.320   0.427   0.433   0.435   0.441   0.443   0.445
  0.452   0.502   0.572   0.589   0.607   0.820   0.825   0.835
  0.879   0.879   0.926   0.935   0.953   0.999   1.090   1.090
  1.127   1.134   1.158   1.161   1.172   1.224   1.238   1.310
  1.329   1.337   1.511   1.511   1.605   1.693   1.696   1.696
  1.780   1.796   1.936   2.096   2.112   2.414   2.425   2.431
  2.438   2.455   2.781   3.056   3.056   3.073   3.075   3.079
  3.092   3.096   3.189   3.201   3.287   3.298   3.298   3.298
  3.532   3.532   3.543   3.543   3.621   3.629   3.633   3.664
  3.863   3.863   3.921   3.936   4.100   4.100   4.138   4.138
  4.290   4.313   4.385   4.435   4.457   4.574   4.672   4.673
  4.856   5.016   5.035   5.105   5.143   5.143   5.272   5.272
  5.334   5.334   5.496   5.566   5.585   5.710   5.726   6.205
  6.393   6.410   6.978   7.372   7.389   7.407   8.681  24.861
 25.245  27.734  27.738  27.929  27.933  29.118  30.591  36.566
 37.423  37.902  37.914  38.269  38.281  38.731  38.865  40.918
 40.927  41.008  41.023  41.030  41.087  41.098  41.247  41.260
 41.278  41.289  41.488  41.501  41.507  41.672  41.676  41.748
 41.752  42.108  42.145
 --------------------------------------------------------------
 
          Ground-State Mulliken Net Atomic Charges

     Atom                 Charge (a.u.)    Spin (a.u.)
  --------------------------------------------------------
      1 N                    -0.590004       0.408075
      2 C                     0.090001       0.091927
      3 C                     0.090019       0.091927
      4 N                    -0.590016       0.408072
  --------------------------------------------------------
  Sum of atomic charges =    -1.000000
  Sum of spin   charges =     1.000000

 -----------------------------------------------------------------
                    Cartesian Multipole Moments
 -----------------------------------------------------------------
    Charge (ESU x 10^10)
                -4.8032
    Dipole Moment (Debye)
         X       0.0000      Y       0.0000      Z       0.0000
       Tot       0.0000
    Quadrupole Moments (Debye-Ang)
        XX     -24.5874     XY      -0.9671     YY     -24.5861
        XZ       0.0000     YZ      -0.0001     ZZ     -46.8966
    Octapole Moments (Debye-Ang^2)
       XXX       0.0000    XXY       0.0000    XYY       0.0000
       YYY       0.0000    XXZ       0.0000    XYZ       0.0000
       YYZ       0.0000    XZZ       0.0000    YZZ       0.0000
       ZZZ       0.0002
    Hexadecapole Moments (Debye-Ang^3)
      XXXX     -29.1310   XXXY      -1.3965   XXYY      -9.7099
      XYYY      -1.3965   YYYY     -29.1272   XXXZ      -0.0001
      XXYZ      -0.0001   XYYZ       0.0000   YYYZ      -0.0002
      XXZZ     -62.1287   XYZZ      -2.4656   YYZZ     -62.1253
      XZZZ      -0.0003   YZZZ      -0.0006   ZZZZ    -438.4108
 -----------------------------------------------------------------
 Total job time:  55.14s(wall), 54.54s(cpu) 
 Mon Jul  8 12:28:14 2013

        *************************************************************
        *                                                           *
        *  Thank you very much for using Q-Chem.  Have a nice day.  *
        *                                                           *
        *************************************************************


0 sent ACK to 0 
now end server 0 ... 
 
**********************************************************************
Job 2 of 3 
**********************************************************************
 
Process 0 of 1 is on cl152.stfx.acenet.ca - thread support 1
initial socket setup ...start
initial socket setup ...done 
now start server 0 ... 

cmd = /usr/bin/ssh clhead /usr/local/qchem/bin/get_hostid 657124335 > /scratch/tmp/6064893.1.medium.q/qchem25582/lic.dat
                  Welcome to Q-Chem
     A Quantum Leap Into The Future Of Chemistry

 Y. Shao, L. Fusti-Molnar, Y. Jung, J. Kussmann, C. Ochsenfeld,
 S. T. Brown, A. T. B. Gilbert, L. V. Slipchenko,S. V. Levchenko,
 D. P. O'Neill, R. A. DiStasio Jr., R. C. Lochan, T. Wang,
 G. J. O. Beran, N. A. Besley, J. M. Herbert, C. Y. Lin,
 T. Van Voorhis, S. H. Chien, A. Sodt, R. P. Steele, 
 V. A. Rassolov, P. E. Maslen, P. P. Korambath, R. D. Adamson,
 B. Austin, J. Baker, E. F. C. Byrd, H. Dachsel, R. J. Doerksen,
 A. Dreuw, B. D. Dunietz, A. D. Dutoi, T. R. Furlani,
 S. R. Gwaltney, A. Heyden, S. Hirata, C.-P. Hsu, G. Kedziora,
 R. Z. Khaliullin, P. Klunzinger, A. M. Lee, M. S. Lee, W. Liang,
 I. Lotan, N. Nair, B. Peters, E. I. Proynov, P. A. Pieniazek, 
 Y. M. Rhee, J. Ritchie, E. Rosta, C. D. Sherrill, 
 A. C. Simmonett, J. E. Subotnik, H. L. Woodcock III,
 W. Zhang, A. T. Bell, A. K. Chakraborty, D. M. Chipman,
 F. J. Keil, A. Warshel, W. J. Hehre, H. F. Schaefer III,
 J. Kong, A. I. Krylov, P. M. W. Gill, M. Head-Gordon,
 Q-Chem, Version 3.1, Q-Chem, Inc., Pittsburgh, PA (2007).

 Additional authors for Version 3.1: 
 Z. Gan, Y. Zhao, N. E. Schultz, D. Truhlar, E. Epifanovsky and M. Oana.

 Additional authors for Version 3.2: 
 R. Baer, B. R. Brooks, D. Casanova, J.-D. Chai, C.-L. Cheng, 
 C. Cramer, D. Crittenden, A. Ghysels, G. Hawkins, E. G. Hohenstein, 
 C. Kelley, W. Kurlancheek, D. Liotard, E. Livshits, P. Manohar, 
 A. Marenich, D. Neuhauser, R. Olson, M. A. Rohrdanz, K. S. Thanthiriwatte, 
 A. J. W. Thom, V. Vanovschi, C. F. Williams, Q. Wu and Z.-Q. You. 


 Intel X86 Linux Version

 Q-chem begins on Mon Jul  8 12:28:17 2013  

 Parallel job on  1  processors
Processing $rem in /usr/local/qchem/config/preferences.

theFileMan(): MAXOPENFILES=974 MAX_SUB_FILE_NUM=16
Maximum size of a physical file is 2.0 GB, maximum size of a tmp-file is 32.0 GB


--------------------------------------------------------------
User input:
--------------------------------------------------------------

$molecule
0,1
N          0.00000        0.00000        1.83618
C          0.00000        0.00000        0.69391
C          0.00000        0.00000       -0.69391
N          0.00000        0.00000       -1.83618
$end

$comment
neutral
$end

$xc_functional
C PBE   1.00
X wPBE  1.00
$end


$rem
SYMMETRY_DECOMPOSITION	0
LRC_DFT                 true
exchange 		general
BASIS                   g3large
omega			800
mem_static              760
max_scf_cycles          200
scf_final_print         1
sym_ignore              true
$end

--------------------------------------------------------------
 Writing REM_CC_EA            4
 ----------------------------------------------------
       Standard Nuclear Orientation (Angstroms)
    I     Atom         X            Y            Z
 ----------------------------------------------------
    1      N       0.000000     0.000000     1.836180
    2      C       0.000000     0.000000     0.693910
    3      C       0.000000     0.000000    -0.693910
    4      N       0.000000     0.000000    -1.836180
 ----------------------------------------------------
 Nuclear Repulsion Energy =    77.2710182365 hartrees
 There are       13 alpha and       13 beta electrons
 Requested basis set is G3large
 There are 40 shells and 168 basis functions

Total QAlloc Memory Limit   2000 MB
Mega-Array Size       743 MB
MEM_STATIC part       760 MB

                       Distance Matrix (Angstroms)
             N (  1)   C (  2)   C (  3)
   C (  2)  1.142270
   C (  3)  2.530090  1.387820
   N (  4)  3.672360  2.530090  1.142270
 
 A cutoff of  1.0D-08 yielded    716 shell pairs
 There are  12995 function pairs ( 17001 Cartesian)
Evaluating contribution to one-electron hamiltonian from nuclear
 Smallest overlap matrix eigenvalue = 9.69E-06

 Q-Chem warning in module mkSTV.C, line 194:

 Overlap eigenvalue is smaller than square root of threshold

 Multipole matrices computed through 2nd order

  Scale SEOQF with 1.000000e-01/1.000000e-01/1.000000e-01

 Standard Electronic Orientation quadrupole field applied
 Nucleus-field energy     =    -0.0000000057 hartrees
 Guess from superposition of atomic densities
 Warning:  Energy on first SCF cycle will be non-variational
 Long-range K will be added via erf
 Coulomb attenuation parameter = 0.8 bohr**(-1)
 A restricted Kohn-Sham SCF calculation will be
 performed using Pulay DIIS extrapolation
 Exchange:  wPBE + LR-HF      Correlation:  PBE
 Using SG-1 standard quadrature grid
 SCF converges when DIIS error is below 1.0E-05
 Requested basis set is G3large
 There are 40 shells and 168 basis functions
 A cutoff of  1.0D-08 yielded    716 shell pairs
 There are  12995 function pairs ( 17001 Cartesian)
 ---------------------------------------
  Cycle       Energy         DIIS Error
 ---------------------------------------
    1    -186.3771749549      3.84E-02
    2    -185.3789026506      5.54E-03
    3    -185.3814555586      6.65E-03
    4    -185.5031652116      6.09E-04
    5    -185.5075062066      2.48E-04
    6    -185.5084905107      1.03E-04
    7    -185.5087082947      2.68E-05
    8    -185.5087225255      5.92E-06 Convergence criterion met
 ---------------------------------------
 One-Electron    Energy =  -402.3210930886
 Total Coulomb   Energy =   163.8842614671
 Alpha Exchange  Energy =    -4.3902412962
 Beta  Exchange  Energy =    -4.3902412962
 DFT   Exchange  Energy =   -14.7177688127
 DFT Correlation Energy =    -0.8446577297
 Nuclear Repu.   Energy =    77.2710182308
 Nuclear Attr.   Energy =  -587.1515067719
 Kinetic         Energy =   184.8304136833
 SCF time:  CPU 44.85 s  wall 45.66 s
 Final Alpha MO Eigenvalues
            1           2           3           4           5           6
    1 -14.4902828 -14.4902280 -10.4418001 -10.4408653  -1.2662058  -1.2388698
            7           8           9          10          11          12
    1  -0.9734349  -0.6374974  -0.6374899  -0.6373311  -0.6234149  -0.5376307
           13          14          15          16          17          18
    1  -0.5376221   0.0127919   0.0127971   0.0494751   0.0770254   0.1019072
 Analysis of SCF Wavefunction
 
 --------------------------------------------------------------
                    Orbital Energies (a.u.)
 --------------------------------------------------------------
 
 Alpha MOs
 -- Occupied --
-14.490 -14.490 -10.442 -10.441  -1.266  -1.239  -0.973  -0.637
 -0.637  -0.637  -0.623  -0.538  -0.538
 -- Virtual --
  0.013   0.013   0.049   0.077   0.102   0.102   0.135   0.135
  0.151   0.172   0.248   0.248   0.251   0.259   0.259   0.267
  0.293   0.327   0.345   0.345   0.387   0.586   0.596   0.596
  0.619   0.619   0.703   0.703   0.737   0.777   0.835   0.835
  0.909   0.912   0.931   0.931   0.946   1.001   1.001   1.046
  1.046   1.073   1.248   1.248   1.329   1.436   1.436   1.455
  1.524   1.524   1.690   1.845   1.845   2.164   2.175   2.185
  2.185   2.208   2.505   2.776   2.776   2.789   2.789   2.801
  2.801   2.813   2.920   2.920   3.019   3.019   3.020   3.020
  3.249   3.249   3.272   3.272   3.350   3.350   3.358   3.386
  3.573   3.573   3.644   3.644   3.815   3.815   3.854   3.854
  4.012   4.012   4.102   4.158   4.158   4.295   4.391   4.391
  4.574   4.735   4.735   4.824   4.862   4.862   4.969   4.969
  5.031   5.031   5.223   5.295   5.295   5.442   5.442   5.930
  6.113   6.113   6.695   7.093   7.093   7.120   8.398  24.577
 24.963  27.452  27.452  27.647  27.647  28.833  30.308  36.260
 37.117  37.598  37.598  37.966  37.966  38.429  38.563  40.605
 40.614  40.707  40.714  40.717  40.787  40.787  40.962  40.976
 40.978  40.978  41.204  41.216  41.217  41.388  41.388  41.464
 41.464  41.813  41.855
 --------------------------------------------------------------
 
          Ground-State Mulliken Net Atomic Charges

     Atom                 Charge (a.u.)
  ----------------------------------------
      1 N                    -0.290333
      2 C                     0.290319
      3 C                     0.290347
      4 N                    -0.290333
  ----------------------------------------
  Sum of atomic charges =     0.000000

 -----------------------------------------------------------------
                    Cartesian Multipole Moments
 -----------------------------------------------------------------
    Charge (ESU x 10^10)
                 0.0000
    Dipole Moment (Debye)
         X       0.0000      Y       0.0000      Z       0.0000
       Tot       0.0000
    Quadrupole Moments (Debye-Ang)
        XX     -20.7770     XY       0.0000     YY     -20.7770
        XZ       0.0000     YZ       0.0000     ZZ     -30.2238
    Octapole Moments (Debye-Ang^2)
       XXX       0.0000    XXY       0.0000    XYY       0.0000
       YYY       0.0000    XXZ       0.0000    XYZ       0.0000
       YYZ       0.0000    XZZ       0.0000    YZZ       0.0000
       ZZZ      -0.0001
    Hexadecapole Moments (Debye-Ang^3)
      XXXX     -19.7144   XXXY       0.0000   XXYY      -6.5714
      XYYY       0.0000   YYYY     -19.7144   XXXZ       0.0000
      XXYZ       0.0000   XYYZ       0.0000   YYYZ       0.0000
      XXZZ     -49.7305   XYZZ       0.0001   YYZZ     -49.7305
      XZZZ       0.0002   YZZZ      -0.0001   ZZZZ    -326.3278
 -----------------------------------------------------------------
 Total job time:  45.84s(wall), 45.02s(cpu) 
 Mon Jul  8 12:29:03 2013

        *************************************************************
        *                                                           *
        *  Thank you very much for using Q-Chem.  Have a nice day.  *
        *                                                           *
        *************************************************************


0 sent ACK to 0 
now end server 0 ... 
 
**********************************************************************
Job 3 of 3 
**********************************************************************
 
Process 0 of 1 is on cl152.stfx.acenet.ca - thread support 1
initial socket setup ...start
initial socket setup ...done 
now start server 0 ... 

cmd = /usr/bin/ssh clhead /usr/local/qchem/bin/get_hostid 1865211733 > /scratch/tmp/6064893.1.medium.q/qchem25582/lic.dat
                  Welcome to Q-Chem
     A Quantum Leap Into The Future Of Chemistry

 Y. Shao, L. Fusti-Molnar, Y. Jung, J. Kussmann, C. Ochsenfeld,
 S. T. Brown, A. T. B. Gilbert, L. V. Slipchenko,S. V. Levchenko,
 D. P. O'Neill, R. A. DiStasio Jr., R. C. Lochan, T. Wang,
 G. J. O. Beran, N. A. Besley, J. M. Herbert, C. Y. Lin,
 T. Van Voorhis, S. H. Chien, A. Sodt, R. P. Steele, 
 V. A. Rassolov, P. E. Maslen, P. P. Korambath, R. D. Adamson,
 B. Austin, J. Baker, E. F. C. Byrd, H. Dachsel, R. J. Doerksen,
 A. Dreuw, B. D. Dunietz, A. D. Dutoi, T. R. Furlani,
 S. R. Gwaltney, A. Heyden, S. Hirata, C.-P. Hsu, G. Kedziora,
 R. Z. Khaliullin, P. Klunzinger, A. M. Lee, M. S. Lee, W. Liang,
 I. Lotan, N. Nair, B. Peters, E. I. Proynov, P. A. Pieniazek, 
 Y. M. Rhee, J. Ritchie, E. Rosta, C. D. Sherrill, 
 A. C. Simmonett, J. E. Subotnik, H. L. Woodcock III,
 W. Zhang, A. T. Bell, A. K. Chakraborty, D. M. Chipman,
 F. J. Keil, A. Warshel, W. J. Hehre, H. F. Schaefer III,
 J. Kong, A. I. Krylov, P. M. W. Gill, M. Head-Gordon,
 Q-Chem, Version 3.1, Q-Chem, Inc., Pittsburgh, PA (2007).

 Additional authors for Version 3.1: 
 Z. Gan, Y. Zhao, N. E. Schultz, D. Truhlar, E. Epifanovsky and M. Oana.

 Additional authors for Version 3.2: 
 R. Baer, B. R. Brooks, D. Casanova, J.-D. Chai, C.-L. Cheng, 
 C. Cramer, D. Crittenden, A. Ghysels, G. Hawkins, E. G. Hohenstein, 
 C. Kelley, W. Kurlancheek, D. Liotard, E. Livshits, P. Manohar, 
 A. Marenich, D. Neuhauser, R. Olson, M. A. Rohrdanz, K. S. Thanthiriwatte, 
 A. J. W. Thom, V. Vanovschi, C. F. Williams, Q. Wu and Z.-Q. You. 


 Intel X86 Linux Version

 Q-chem begins on Mon Jul  8 12:29:05 2013  

 Parallel job on  1  processors
Processing $rem in /usr/local/qchem/config/preferences.

theFileMan(): MAXOPENFILES=974 MAX_SUB_FILE_NUM=16
Maximum size of a physical file is 2.0 GB, maximum size of a tmp-file is 32.0 GB


--------------------------------------------------------------
User input:
--------------------------------------------------------------

$molecule
1,2
N          0.00000        0.00000        1.83618
C          0.00000        0.00000        0.69391
C          0.00000        0.00000       -0.69391
N          0.00000        0.00000       -1.83618
$end

$comment
positive
$end

$xc_functional
C PBE   1.00
X wPBE  1.00
$end

$rem
SYMMETRY_DECOMPOSITION	0
LRC_DFT                 true
exchange 		general
BASIS                   g3large
omega			800
mem_static              760
max_scf_cycles          200
scf_final_print         1
sym_ignore              true
$end

--------------------------------------------------------------
 Writing REM_CC_EA            4
 ----------------------------------------------------
       Standard Nuclear Orientation (Angstroms)
    I     Atom         X            Y            Z
 ----------------------------------------------------
    1      N       0.000000     0.000000     1.836180
    2      C       0.000000     0.000000     0.693910
    3      C       0.000000     0.000000    -0.693910
    4      N       0.000000     0.000000    -1.836180
 ----------------------------------------------------
 Nuclear Repulsion Energy =    77.2710182365 hartrees
 There are       13 alpha and       12 beta electrons
 Requested basis set is G3large
 There are 40 shells and 168 basis functions

Total QAlloc Memory Limit   2000 MB
Mega-Array Size       743 MB
MEM_STATIC part       760 MB

                       Distance Matrix (Angstroms)
             N (  1)   C (  2)   C (  3)
   C (  2)  1.142270
   C (  3)  2.530090  1.387820
   N (  4)  3.672360  2.530090  1.142270
 
 A cutoff of  1.0D-08 yielded    716 shell pairs
 There are  12995 function pairs ( 17001 Cartesian)
Evaluating contribution to one-electron hamiltonian from nuclear
 Smallest overlap matrix eigenvalue = 9.69E-06

 Q-Chem warning in module mkSTV.C, line 194:

 Overlap eigenvalue is smaller than square root of threshold

 Multipole matrices computed through 2nd order

  Scale SEOQF with 1.000000e-01/1.000000e-01/1.000000e-01

 Standard Electronic Orientation quadrupole field applied
 Nucleus-field energy     =    -0.0000000057 hartrees
 Guess from superposition of atomic densities
 Warning:  Energy on first SCF cycle will be non-variational
 Long-range K will be added via erf
 Coulomb attenuation parameter = 0.8 bohr**(-1)
 An unrestricted Kohn-Sham SCF calculation will be
 performed using Pulay DIIS extrapolation
 Exchange:  wPBE + LR-HF      Correlation:  PBE
 Using SG-1 standard quadrature grid
 SCF converges when DIIS error is below 1.0E-05
 Requested basis set is G3large
 There are 40 shells and 168 basis functions
 A cutoff of  1.0D-08 yielded    716 shell pairs
 There are  12995 function pairs ( 17001 Cartesian)
 Warning!  Inaccurate integrated density:
   Number of electrons =    25
   Numerical integral  =    26.000074941606
   Relative error      =     4.0002997664 %
 ---------------------------------------
  Cycle       Energy         DIIS Error
 ---------------------------------------
    1    -186.3771749549      3.84E-02
    2    -184.8381206083      5.11E-03
    3    -184.9249899872      4.78E-03
    4    -184.9937132258      8.52E-04
    5    -185.0012449000      3.55E-04
    6    -185.0041765483      1.23E-04
    7    -185.0049131180      3.19E-05
    8    -185.0050179876      1.35E-05
    9    -185.0050538248      7.21E-06 Convergence criterion met
 ---------------------------------------
 One-Electron    Energy =  -394.2052476742
 Total Coulomb   Energy =   155.9176120700
 Alpha Exchange  Energy =    -4.4459975676
 Beta  Exchange  Energy =    -4.0872390737
 DFT   Exchange  Energy =   -14.6549082826
 DFT Correlation Energy =    -0.8002915275
 Nuclear Repu.   Energy =    77.2710182308
 Nuclear Attr.   Energy =  -578.8456868394
 Kinetic         Energy =   184.6404391652
 <S^2> = 0.8796
 SCF time:  CPU 61.08 s  wall 61.92 s
 Final Alpha MO Eigenvalues
            1           2           3           4           5           6
    1 -14.8242802 -14.8242125 -10.7625497 -10.7616476  -1.5996601  -1.5806355
            7           8           9          10          11          12
    1  -1.2651914  -0.9593111  -0.9371838  -0.9354863  -0.9240227  -0.8891400
           13          14          15          16          17          18
    1  -0.8490151  -0.2867028  -0.2684211  -0.1186526  -0.0805579  -0.0659845
 Final Beta MO Eigenvalues
            1           2           3           4           5           6
    1 -14.8133670 -14.8133064 -10.7632312 -10.7621022  -1.5585600  -1.5274068
            7           8           9          10          11          12
    1  -1.2746067  -0.9315281  -0.9159076  -0.9040628  -0.8473478  -0.8312124
           13          14          15          16          17
    1  -0.4711069  -0.2617172  -0.2044028  -0.1190397  -0.0775745
 Analysis of SCF Wavefunction
 
 --------------------------------------------------------------
                    Orbital Energies (a.u.)
 --------------------------------------------------------------
 
 Alpha MOs
 -- Occupied --
-14.824 -14.824 -10.763 -10.762  -1.600  -1.581  -1.265  -0.959
 -0.937  -0.935  -0.924  -0.889  -0.849
 -- Virtual --
 -0.287  -0.268  -0.119  -0.081  -0.066  -0.063  -0.037  -0.027
 -0.016  -0.010  -0.009  -0.001   0.053   0.090   0.093   0.095
  0.138   0.155   0.159   0.165   0.206   0.350   0.356   0.356
  0.359   0.363   0.463   0.470   0.516   0.543   0.558   0.558
  0.672   0.679   0.679   0.692   0.724   0.748   0.755   0.768
  0.769   0.801   0.963   0.964   1.032   1.158   1.158   1.205
  1.228   1.248   1.433   1.567   1.581   1.894   1.895   1.915
  1.930   1.947   2.221   2.483   2.483   2.492   2.494   2.515
  2.518   2.520   2.619   2.628   2.720   2.722   2.722   2.730
  2.949   2.949   2.958   2.958   3.030   3.049   3.063   3.091
  3.276   3.276   3.318   3.338   3.500   3.500   3.540   3.540
  3.678   3.708   3.791   3.831   3.858   3.992   4.080   4.082
  4.270   4.421   4.436   4.520   4.560   4.561   4.632   4.633
  4.692   4.692   4.932   4.977   5.001   5.131   5.152   5.626
  5.786   5.806   6.384   6.766   6.787   6.805   8.086  24.259
 24.644  27.131  27.135  27.326  27.329  28.515  29.988  35.926
 36.783  37.254  37.269  37.621  37.636  38.101  38.234  40.263
 40.272  40.363  40.375  40.388  40.446  40.461  40.638  40.641
 40.652  40.654  40.883  40.892  40.896  41.064  41.069  41.141
 41.145  41.488  41.532
 
 Beta MOs
 -- Occupied --
-14.813 -14.813 -10.763 -10.762  -1.559  -1.527  -1.275  -0.932
 -0.916  -0.904  -0.847  -0.831
 -- Virtual --
 -0.471  -0.262  -0.204  -0.119  -0.078  -0.065  -0.063  -0.028
 -0.019  -0.014  -0.011   0.002   0.025   0.054   0.095   0.096
  0.100   0.139   0.156   0.167   0.173   0.207   0.344   0.352
  0.356   0.357   0.361   0.469   0.470   0.520   0.551   0.579
  0.579   0.681   0.683   0.694   0.700   0.732   0.774   0.774
  0.781   0.783   0.807   0.992   0.992   1.041   1.177   1.178
  1.214   1.253   1.255   1.437   1.581   1.582   1.901   1.905
  1.934   1.934   1.955   2.226   2.482   2.482   2.497   2.497
  2.510   2.517   2.524   2.622   2.625   2.727   2.727   2.727
  2.728   2.949   2.949   2.973   2.974   3.049   3.051   3.072
  3.095   3.275   3.275   3.342   3.342   3.532   3.532   3.570
  3.570   3.721   3.726   3.803   3.869   3.872   4.008   4.099
  4.099   4.281   4.438   4.439   4.533   4.573   4.574   4.682
  4.685   4.742   4.744   4.940   5.009   5.011   5.158   5.159
  5.634   5.810   5.811   6.393   6.793   6.793   6.813   8.093
 24.258  24.644  27.131  27.133  27.326  27.328  28.514  29.988
 35.939  36.797  37.277  37.281  37.645  37.649  38.107  38.240
 40.286  40.295  40.388  40.392  40.398  40.464  40.466  40.640
 40.654  40.655  40.657  40.882  40.894  40.896  41.066  41.068
 41.142  41.144  41.491  41.534
 --------------------------------------------------------------
 
          Ground-State Mulliken Net Atomic Charges

     Atom                 Charge (a.u.)    Spin (a.u.)
  --------------------------------------------------------
      1 N                     0.005357       0.540708
      2 C                     0.494648      -0.040729
      3 C                     0.494645      -0.040646
      4 N                     0.005349       0.540667
  --------------------------------------------------------
  Sum of atomic charges =     1.000000
  Sum of spin   charges =     1.000000

 -----------------------------------------------------------------
                    Cartesian Multipole Moments
 -----------------------------------------------------------------
    Charge (ESU x 10^10)
                 4.8032
    Dipole Moment (Debye)
         X       0.0000      Y       0.0000      Z       0.0002
       Tot       0.0002
    Quadrupole Moments (Debye-Ang)
        XX     -17.9343     XY      -0.5988     YY     -17.9341
        XZ       0.0088     YZ      -0.0088     ZZ     -15.1572
    Octapole Moments (Debye-Ang^2)
       XXX       0.0000    XXY       0.0000    XYY       0.0000
       YYY       0.0000    XXZ       0.0000    XYZ       0.0000
       YYZ       0.0000    XZZ       0.0000    YZZ       0.0000
       ZZZ       0.0003
    Hexadecapole Moments (Debye-Ang^3)
      XXXX     -14.9598   XXXY      -0.3590   XXYY      -4.9870
      XYYY      -0.3590   YYYY     -14.9596   XXXZ       0.0067
      XXYZ      -0.0022   XYYZ       0.0022   YYYZ      -0.0067
      XXZZ     -41.0752   XYZZ      -1.7688   YYZZ     -41.0747
      XZZZ       0.0480   YZZZ      -0.0480   ZZZZ    -247.2000
 -----------------------------------------------------------------
 Total job time:  62.10s(wall), 61.26s(cpu) 
 Mon Jul  8 12:30:08 2013

        *************************************************************
        *                                                           *
        *  Thank you very much for using Q-Chem.  Have a nice day.  *
        *                                                           *
        *************************************************************


0 sent ACK to 0 
now end server 0 ... 
