Process 0 of 1 is on cl232.stfx.acenet.ca - thread support 1
initial socket setup ...start
initial socket setup ...done 
now start server 0 ... 

cmd = /usr/bin/ssh clhead /usr/local/qchem/bin/get_hostid 1161916711 > /scratch/tmp/5954863.1.long.q/qchem5545/lic.dat
                  Welcome to Q-Chem
     A Quantum Leap Into The Future Of Chemistry

 Y. Shao, L. Fusti-Molnar, Y. Jung, J. Kussmann, C. Ochsenfeld,
 S. T. Brown, A. T. B. Gilbert, L. V. Slipchenko,S. V. Levchenko,
 D. P. O'Neill, R. A. DiStasio Jr., R. C. Lochan, T. Wang,
 G. J. O. Beran, N. A. Besley, J. M. Herbert, C. Y. Lin,
 T. Van Voorhis, S. H. Chien, A. Sodt, R. P. Steele, 
 V. A. Rassolov, P. E. Maslen, P. P. Korambath, R. D. Adamson,
 B. Austin, J. Baker, E. F. C. Byrd, H. Dachsel, R. J. Doerksen,
 A. Dreuw, B. D. Dunietz, A. D. Dutoi, T. R. Furlani,
 S. R. Gwaltney, A. Heyden, S. Hirata, C.-P. Hsu, G. Kedziora,
 R. Z. Khaliullin, P. Klunzinger, A. M. Lee, M. S. Lee, W. Liang,
 I. Lotan, N. Nair, B. Peters, E. I. Proynov, P. A. Pieniazek, 
 Y. M. Rhee, J. Ritchie, E. Rosta, C. D. Sherrill, 
 A. C. Simmonett, J. E. Subotnik, H. L. Woodcock III,
 W. Zhang, A. T. Bell, A. K. Chakraborty, D. M. Chipman,
 F. J. Keil, A. Warshel, W. J. Hehre, H. F. Schaefer III,
 J. Kong, A. I. Krylov, P. M. W. Gill, M. Head-Gordon,
 Q-Chem, Version 3.1, Q-Chem, Inc., Pittsburgh, PA (2007).

 Additional authors for Version 3.1: 
 Z. Gan, Y. Zhao, N. E. Schultz, D. Truhlar, E. Epifanovsky and M. Oana.

 Additional authors for Version 3.2: 
 R. Baer, B. R. Brooks, D. Casanova, J.-D. Chai, C.-L. Cheng, 
 C. Cramer, D. Crittenden, A. Ghysels, G. Hawkins, E. G. Hohenstein, 
 C. Kelley, W. Kurlancheek, D. Liotard, E. Livshits, P. Manohar, 
 A. Marenich, D. Neuhauser, R. Olson, M. A. Rohrdanz, K. S. Thanthiriwatte, 
 A. J. W. Thom, V. Vanovschi, C. F. Williams, Q. Wu and Z.-Q. You. 


 Intel X86 Linux Version

 Q-chem begins on Wed Apr 24 15:50:04 2013  

 Parallel job on  1  processors
Processing $rem in /usr/local/qchem/config/preferences.

theFileMan(): MAXOPENFILES=974 MAX_SUB_FILE_NUM=16
Maximum size of a physical file is 2.0 GB, maximum size of a tmp-file is 32.0 GB


--------------------------------------------------------------
User input:
--------------------------------------------------------------

$molecule
-1,2
C
H,1,R
Cl,1,R1,2,A
Cl,1,R1,2,A,3,120.,0
Cl,1,R1,2,A,3,-120.,0

R=1.08553635
R1=1.78773686
A=107.50826708

$end

$comment
negative
$end

$xc_functional
C PBE   1.00
X wPBE  1.00
$end

$rem
SYMMETRY_DECOMPOSITION	0
exchange 		general
LRC_DFT                 true
BASIS                   g3large
omega			100
mem_static              760
max_scf_cycles          200
scf_final_print         1
sym_ignore              true
$end

--------------------------------------------------------------
 Writing REM_CC_EA            5
 ----------------------------------------------------
       Standard Nuclear Orientation (Angstroms)
    I     Atom         X            Y            Z
 ----------------------------------------------------
    1      C       0.000000     0.000000     0.000000
    2      H       0.000000     0.000000     1.085536
    3      Cl      1.704917     0.000000    -0.537829
    4      Cl     -0.852459    -1.476502    -0.537829
    5      Cl     -0.852459     1.476502    -0.537829
 ----------------------------------------------------
 Nuclear Repulsion Energy =   260.3321865543 hartrees
 There are       30 alpha and       29 beta electrons
 Requested basis set is G3large
 There are 73 shells and 250 basis functions

Total QAlloc Memory Limit   2000 MB
Mega-Array Size       743 MB
MEM_STATIC part       760 MB

                       Distance Matrix (Angstroms)
             C (  1)   H (  2)   Cl(  3)   Cl(  4)
   H (  2)  1.085536
   Cl(  3)  1.787737  2.354158
   Cl(  4)  1.787737  2.354158  2.953003
   Cl(  5)  1.787737  2.354158  2.953003  2.953003
 
 A cutoff of  1.0D-08 yielded   2236 shell pairs
 There are  26872 function pairs ( 37270 Cartesian)
Evaluating contribution to one-electron hamiltonian from nuclear
 Smallest overlap matrix eigenvalue = 9.07E-05

 Q-Chem warning in module mkSTV.C, line 194:

 Overlap eigenvalue is smaller than square root of threshold

 Multipole matrices computed through 2nd order

  Scale SEOQF with 1.000000e-01/1.000000e-01/1.000000e-01

 Standard Electronic Orientation quadrupole field applied
 Nucleus-field energy     =     0.0000000062 hartrees
 Guess from superposition of atomic densities
 Warning:  Energy on first SCF cycle will be non-variational
 Long-range K will be added via erf
 Coulomb attenuation parameter = 0.1 bohr**(-1)
 An unrestricted Kohn-Sham SCF calculation will be
 performed using Pulay DIIS extrapolation
 Exchange:  wPBE + LR-HF      Correlation:  PBE
 Using SG-1 standard quadrature grid
 SCF converges when DIIS error is below 1.0E-05
 Requested basis set is G3large
 There are 73 shells and 250 basis functions
 A cutoff of  1.0D-08 yielded   2236 shell pairs
 There are  26872 function pairs ( 37270 Cartesian)
 Warning!  Inaccurate integrated density:
   Number of electrons =    59
   Numerical integral  =    57.999919144246
   Relative error      =    -1.6950522979 %
 ---------------------------------------
  Cycle       Energy         DIIS Error
 ---------------------------------------
    1   -1419.1784237814      2.05E-02
    2   -1418.6920664898      2.28E-03
    3   -1418.7081705857      2.55E-03
    4   -1418.7518695730      3.93E-04
    5   -1418.7527079672      2.65E-04
    6   -1418.7533510105      8.24E-05
    7   -1418.7535622757      6.43E-05
    8   -1418.7537455527      3.91E-05
    9   -1418.7539554574      3.11E-05
   10   -1418.7541355699      2.32E-05
   11   -1418.7543476973      1.98E-05
   12   -1418.7545116752      1.19E-05
   13   -1418.7545263133      3.74E-06 Convergence criterion met
 ---------------------------------------
 One-Electron    Energy = -2487.5000741362
 Total Coulomb   Energy =   898.5486968512
 Alpha Exchange  Energy =    -1.6725313159
 Beta  Exchange  Energy =    -1.6226161413
 DFT   Exchange  Energy =   -84.5855157885
 DFT Correlation Energy =    -2.2546723430
 Nuclear Repu.   Energy =   260.3321865605
 Nuclear Attr.   Energy = -3904.8812396122
 Kinetic         Energy =  1417.3811654759
 <S^2> = 0.7508
 SCF time:  CPU 376.74 s  wall 382.16 s
 Final Alpha MO Eigenvalues
            1           2           3           4           5           6
    1-100.5490223-100.5489702-100.5488307  -9.8939251  -9.0684515  -9.0684133
            7           8           9          10          11          12
    1  -9.0682619  -6.8915755  -6.8915442  -6.8914263  -6.8824005  -6.8822533
           13          14          15          16          17          18
    1  -6.8821935  -6.8821838  -6.8821020  -6.8820340  -0.7321560  -0.6423791
           19          20          21          22          23          24
    1  -0.6423003  -0.4665023  -0.3292152  -0.3056181  -0.3055781  -0.1928467
           25          26          27          28          29          30
    1  -0.1928266  -0.1668720  -0.1668237  -0.1620092  -0.1489632   0.0392455
           31          32          33          34          35
    1   0.1388966   0.1715710   0.1715940   0.1909577   0.2117897
 Final Beta MO Eigenvalues
            1           2           3           4           5           6
    1-100.5484633-100.5484119-100.5482710  -9.8865437  -9.0678545  -9.0678181
            7           8           9          10          11          12
    1  -9.0676641  -6.8901122  -6.8900199  -6.8899581  -6.8820506  -6.8818471
           13          14          15          16          17          18
    1  -6.8817486  -6.8817398  -6.8816933  -6.8815893  -0.7253015  -0.6380969
           19          20          21          22          23          24
    1  -0.6380077  -0.4600704  -0.3186565  -0.2976116  -0.2975680  -0.1899854
           25          26          27          28          29          30
    1  -0.1899647  -0.1631524  -0.1630989  -0.1588474  -0.1464075   0.1506500
           31          32          33          34
    1   0.1566277   0.1803422   0.1803901   0.1995811
 Analysis of SCF Wavefunction
 
 --------------------------------------------------------------
                    Orbital Energies (a.u.)
 --------------------------------------------------------------
 
 Alpha MOs
 -- Occupied --
*******-100.549-100.549  -9.894  -9.068  -9.068  -9.068  -6.892
 -6.892  -6.891  -6.882  -6.882  -6.882  -6.882  -6.882  -6.882
 -0.732  -0.642  -0.642  -0.467  -0.329  -0.306  -0.306  -0.193
 -0.193  -0.167  -0.167  -0.162  -0.149   0.039
 -- Virtual --
  0.139   0.172   0.172   0.191   0.212   0.212   0.240   0.240
  0.241   0.255   0.255   0.276   0.278   0.278   0.278   0.287
  0.303   0.329   0.329   0.416   0.424   0.424   0.457   0.457
  0.475   0.508   0.517   0.517   0.517   0.526   0.526   0.579
  0.582   0.603   0.603   0.633   0.633   0.638   0.667   0.668
  0.691   0.714   0.714   0.748   0.821   0.857   0.857   0.873
  0.999   1.035   1.035   1.061   1.061   1.119   1.158   1.158
  1.192   1.192   1.199   1.235   1.241   1.242   1.244   1.249
  1.256   1.256   1.269   1.269   1.294   1.301   1.301   1.301
  1.352   1.352   1.354   1.428   1.428   1.511   1.535   1.535
  1.588   1.601   1.601   1.614   1.635   1.706   1.706   1.768
  1.768   1.822   1.850   1.851   1.867   1.889   1.890   1.998
  2.331   2.332   2.332   2.370   2.415   2.415   2.459   2.459
  2.674   2.838   3.134   3.134   3.268   3.327   3.327   3.466
  3.491   3.538   3.538   3.598   3.743   3.743   3.906   3.906
  4.012   4.373   4.373   4.444   4.445   4.463   4.477   4.477
  4.487   4.495   4.526   4.526   4.552   4.553   4.554   4.617
  4.617   4.650   4.691   4.691   4.721   4.735   4.762   4.762
  5.146   5.156   5.156   5.172   5.173   5.179   5.252   5.326
  5.327   5.347   5.348   5.430   5.552   5.849   5.849   5.885
  9.871   9.871   9.897  20.595  20.595  20.605  20.612  20.640
 20.641  20.856  20.856  20.932  23.851  27.102  27.110  27.120
 27.123  27.162  27.170  27.185  27.189  27.193  27.198  27.224
 27.237  27.238  27.269  27.307  27.947  27.954  27.989  36.817
 36.818  36.819  36.820  36.820  36.820  36.823  36.825  36.826
 36.829  36.829  36.831  36.833  36.835  36.841  36.843  36.844
 36.848  36.849  36.851  36.854  40.823  40.871  41.095  41.098
 41.114 215.735 215.735 215.791
 
 Beta MOs
 -- Occupied --
*******-100.548-100.548  -9.887  -9.068  -9.068  -9.068  -6.890
 -6.890  -6.890  -6.882  -6.882  -6.882  -6.882  -6.882  -6.882
 -0.725  -0.638  -0.638  -0.460  -0.319  -0.298  -0.298  -0.190
 -0.190  -0.163  -0.163  -0.159  -0.146
 -- Virtual --
  0.151   0.157   0.180   0.180   0.200   0.217   0.218   0.245
  0.245   0.249   0.259   0.259   0.280   0.284   0.284   0.284
  0.295   0.308   0.332   0.332   0.422   0.428   0.428   0.462
  0.462   0.478   0.510   0.520   0.520   0.525   0.531   0.531
  0.583   0.589   0.609   0.609   0.637   0.637   0.643   0.670
  0.671   0.698   0.720   0.721   0.758   0.823   0.863   0.863
  0.881   1.005   1.039   1.039   1.066   1.066   1.123   1.162
  1.162   1.197   1.197   1.203   1.239   1.246   1.246   1.247
  1.251   1.258   1.258   1.273   1.273   1.298   1.306   1.306
  1.308   1.356   1.356   1.357   1.434   1.434   1.514   1.539
  1.540   1.599   1.604   1.604   1.623   1.640   1.715   1.715
  1.773   1.773   1.829   1.855   1.855   1.875   1.895   1.895
  2.002   2.333   2.334   2.334   2.374   2.418   2.418   2.466
  2.466   2.682   2.844   3.146   3.146   3.282   3.341   3.341
  3.474   3.504   3.545   3.545   3.608   3.764   3.764   3.921
  3.921   4.028   4.378   4.378   4.448   4.448   4.466   4.480
  4.480   4.490   4.497   4.530   4.530   4.556   4.556   4.558
  4.623   4.623   4.657   4.696   4.696   4.726   4.741   4.768
  4.768   5.146   5.156   5.157   5.173   5.174   5.180   5.255
  5.328   5.329   5.349   5.350   5.433   5.562   5.852   5.852
  5.889   9.872   9.873   9.898  20.596  20.596  20.606  20.612
 20.641  20.641  20.858  20.859  20.935  23.859  27.102  27.111
 27.120  27.124  27.164  27.172  27.186  27.189  27.193  27.199
 27.226  27.238  27.239  27.271  27.310  27.953  27.960  27.998
 36.818  36.818  36.819  36.820  36.821  36.821  36.823  36.825
 36.826  36.829  36.829  36.832  36.834  36.836  36.842  36.844
 36.845  36.849  36.850  36.852  36.855  40.827  40.877  41.099
 41.102  41.117 215.736 215.736 215.791
 --------------------------------------------------------------
 
          Ground-State Mulliken Net Atomic Charges

     Atom                 Charge (a.u.)    Spin (a.u.)
  --------------------------------------------------------
      1 C                     2.519694      -1.546518
      2 H                    -1.127148       1.171222
      3 Cl                   -0.797009       0.458344
      4 Cl                   -0.799528       0.460411
      5 Cl                   -0.796010       0.456542
  --------------------------------------------------------
  Sum of atomic charges =    -1.000000
  Sum of spin   charges =     1.000000

 -----------------------------------------------------------------
                    Cartesian Multipole Moments
 -----------------------------------------------------------------
    Charge (ESU x 10^10)
                -4.8032
    Dipole Moment (Debye)
         X      -0.0011      Y       0.0060      Z      -0.6124
       Tot       0.6125
    Quadrupole Moments (Debye-Ang)
        XX     -59.6366     XY      -0.0270     YY     -59.6393
        XZ       0.0037     YZ      -0.0300     ZZ     -61.4536
    Octapole Moments (Debye-Ang^2)
       XXX      -7.2022    XXY       0.0403    XYY       7.1958
       YYY       0.1210    XXZ      17.6852    XYZ       0.0253
       YYZ      17.6867    XZZ       0.0113    YZZ      -0.0129
       ZZZ      22.5608
    Hexadecapole Moments (Debye-Ang^3)
      XXXX    -486.0296   XXXY      -0.1767   XXYY    -161.9951
      XYYY      -0.3139   YYYY    -486.0319   XXXZ       5.1466
      XXYZ      -0.0935   XYYZ      -5.1123   YYYZ      -0.2807
      XXZZ    -128.8510   XYZZ      -0.0625   YYZZ    -128.8627
      XZZZ       0.0208   YZZZ      -0.1951   ZZZZ    -323.8363
 -----------------------------------------------------------------
 Total job time:  382.62s(wall), 377.12s(cpu) 
 Wed Apr 24 15:56:27 2013

        *************************************************************
        *                                                           *
        *  Thank you very much for using Q-Chem.  Have a nice day.  *
        *                                                           *
        *************************************************************


0 sent ACK to 0 
now end server 0 ... 
 
**********************************************************************
Job 2 of 3 
**********************************************************************
 
Process 0 of 1 is on cl232.stfx.acenet.ca - thread support 1
initial socket setup ...start
initial socket setup ...done 
now start server 0 ... 

cmd = /usr/bin/ssh clhead /usr/local/qchem/bin/get_hostid 1875485410 > /scratch/tmp/5954863.1.long.q/qchem5545/lic.dat
                  Welcome to Q-Chem
     A Quantum Leap Into The Future Of Chemistry

 Y. Shao, L. Fusti-Molnar, Y. Jung, J. Kussmann, C. Ochsenfeld,
 S. T. Brown, A. T. B. Gilbert, L. V. Slipchenko,S. V. Levchenko,
 D. P. O'Neill, R. A. DiStasio Jr., R. C. Lochan, T. Wang,
 G. J. O. Beran, N. A. Besley, J. M. Herbert, C. Y. Lin,
 T. Van Voorhis, S. H. Chien, A. Sodt, R. P. Steele, 
 V. A. Rassolov, P. E. Maslen, P. P. Korambath, R. D. Adamson,
 B. Austin, J. Baker, E. F. C. Byrd, H. Dachsel, R. J. Doerksen,
 A. Dreuw, B. D. Dunietz, A. D. Dutoi, T. R. Furlani,
 S. R. Gwaltney, A. Heyden, S. Hirata, C.-P. Hsu, G. Kedziora,
 R. Z. Khaliullin, P. Klunzinger, A. M. Lee, M. S. Lee, W. Liang,
 I. Lotan, N. Nair, B. Peters, E. I. Proynov, P. A. Pieniazek, 
 Y. M. Rhee, J. Ritchie, E. Rosta, C. D. Sherrill, 
 A. C. Simmonett, J. E. Subotnik, H. L. Woodcock III,
 W. Zhang, A. T. Bell, A. K. Chakraborty, D. M. Chipman,
 F. J. Keil, A. Warshel, W. J. Hehre, H. F. Schaefer III,
 J. Kong, A. I. Krylov, P. M. W. Gill, M. Head-Gordon,
 Q-Chem, Version 3.1, Q-Chem, Inc., Pittsburgh, PA (2007).

 Additional authors for Version 3.1: 
 Z. Gan, Y. Zhao, N. E. Schultz, D. Truhlar, E. Epifanovsky and M. Oana.

 Additional authors for Version 3.2: 
 R. Baer, B. R. Brooks, D. Casanova, J.-D. Chai, C.-L. Cheng, 
 C. Cramer, D. Crittenden, A. Ghysels, G. Hawkins, E. G. Hohenstein, 
 C. Kelley, W. Kurlancheek, D. Liotard, E. Livshits, P. Manohar, 
 A. Marenich, D. Neuhauser, R. Olson, M. A. Rohrdanz, K. S. Thanthiriwatte, 
 A. J. W. Thom, V. Vanovschi, C. F. Williams, Q. Wu and Z.-Q. You. 


 Intel X86 Linux Version

 Q-chem begins on Wed Apr 24 15:56:30 2013  

 Parallel job on  1  processors
Processing $rem in /usr/local/qchem/config/preferences.

theFileMan(): MAXOPENFILES=974 MAX_SUB_FILE_NUM=16
Maximum size of a physical file is 2.0 GB, maximum size of a tmp-file is 32.0 GB


--------------------------------------------------------------
User input:
--------------------------------------------------------------

$molecule
0,1
C
H,1,R
Cl,1,R1,2,A
Cl,1,R1,2,A,3,120.,0
Cl,1,R1,2,A,3,-120.,0

R=1.08553635
R1=1.78773686
A=107.50826708

$end

$comment
neutral
$end

$xc_functional
C PBE   1.00
X wPBE  1.00
$end


$rem
SYMMETRY_DECOMPOSITION	0
LRC_DFT                 true
exchange 		general
BASIS                   g3large
omega			100
mem_static              760
max_scf_cycles          200
scf_final_print         1
sym_ignore              true
$end

--------------------------------------------------------------
 Writing REM_CC_EA            5
 ----------------------------------------------------
       Standard Nuclear Orientation (Angstroms)
    I     Atom         X            Y            Z
 ----------------------------------------------------
    1      C       0.000000     0.000000     0.000000
    2      H       0.000000     0.000000     1.085536
    3      Cl      1.704917     0.000000    -0.537829
    4      Cl     -0.852459    -1.476502    -0.537829
    5      Cl     -0.852459     1.476502    -0.537829
 ----------------------------------------------------
 Nuclear Repulsion Energy =   260.3321865543 hartrees
 There are       29 alpha and       29 beta electrons
 Requested basis set is G3large
 There are 73 shells and 250 basis functions

Total QAlloc Memory Limit   2000 MB
Mega-Array Size       743 MB
MEM_STATIC part       760 MB

                       Distance Matrix (Angstroms)
             C (  1)   H (  2)   Cl(  3)   Cl(  4)
   H (  2)  1.085536
   Cl(  3)  1.787737  2.354158
   Cl(  4)  1.787737  2.354158  2.953003
   Cl(  5)  1.787737  2.354158  2.953003  2.953003
 
 A cutoff of  1.0D-08 yielded   2236 shell pairs
 There are  26872 function pairs ( 37270 Cartesian)
Evaluating contribution to one-electron hamiltonian from nuclear
 Smallest overlap matrix eigenvalue = 9.07E-05

 Q-Chem warning in module mkSTV.C, line 194:

 Overlap eigenvalue is smaller than square root of threshold

 Multipole matrices computed through 2nd order

  Scale SEOQF with 1.000000e-01/1.000000e-01/1.000000e-01

 Standard Electronic Orientation quadrupole field applied
 Nucleus-field energy     =     0.0000000062 hartrees
 Guess from superposition of atomic densities
 Warning:  Energy on first SCF cycle will be non-variational
 Long-range K will be added via erf
 Coulomb attenuation parameter = 0.1 bohr**(-1)
 A restricted Kohn-Sham SCF calculation will be
 performed using Pulay DIIS extrapolation
 Exchange:  wPBE + LR-HF      Correlation:  PBE
 Using SG-1 standard quadrature grid
 SCF converges when DIIS error is below 1.0E-05
 Requested basis set is G3large
 There are 73 shells and 250 basis functions
 A cutoff of  1.0D-08 yielded   2236 shell pairs
 There are  26872 function pairs ( 37270 Cartesian)
 ---------------------------------------
  Cycle       Energy         DIIS Error
 ---------------------------------------
    1   -1419.1784237814      2.05E-02
    2   -1418.7252818778      2.27E-03
    3   -1418.6740085625      3.69E-03
    4   -1418.7617121013      4.29E-04
    5   -1418.7628023345      1.54E-04
    6   -1418.7629384132      2.60E-05
    7   -1418.7629345239      1.11E-05
    8   -1418.7629331661      1.53E-06 Convergence criterion met
 ---------------------------------------
 One-Electron    Energy = -2476.3719580858
 Total Coulomb   Energy =   887.1815678677
 Alpha Exchange  Energy =    -1.6230794426
 Beta  Exchange  Energy =    -1.6230794426
 DFT   Exchange  Energy =   -84.4262096574
 DFT Correlation Energy =    -2.2323609659
 Nuclear Repu.   Energy =   260.3321865605
 Nuclear Attr.   Energy = -3893.2907632232
 Kinetic         Energy =  1416.9188051373
 SCF time:  CPU 178.64 s  wall 181.69 s
 Final Alpha MO Eigenvalues
            1           2           3           4           5           6
    1-100.7419517-100.7419337-100.7419101 -10.1232404  -9.2615102  -9.2614809
            7           8           9          10          11          12
    1  -9.2614608  -7.0857783  -7.0857579  -7.0856498  -7.0747840  -7.0746097
           13          14          15          16          17          18
    1  -7.0745895  -7.0745600  -7.0745152  -7.0744945  -0.9254628  -0.8314292
           19          20          21          22          23          24
    1  -0.8314228  -0.6569311  -0.5211468  -0.4948541  -0.4948448  -0.3755524
           25          26          27          28          29          30
    1  -0.3755450  -0.3497945  -0.3497880  -0.3456637  -0.3318203  -0.0357828
           31          32          33          34
    1   0.0093208   0.0093221   0.0203342   0.0667590
 Analysis of SCF Wavefunction
 
 --------------------------------------------------------------
                    Orbital Energies (a.u.)
 --------------------------------------------------------------
 
 Alpha MOs
 -- Occupied --
*******-100.742-100.742 -10.123  -9.262  -9.261  -9.261  -7.086
 -7.086  -7.086  -7.075  -7.075  -7.075  -7.075  -7.075  -7.074
 -0.925  -0.831  -0.831  -0.657  -0.521  -0.495  -0.495  -0.376
 -0.376  -0.350  -0.350  -0.346  -0.332
 -- Virtual --
 -0.036   0.009   0.009   0.020   0.067   0.076   0.076   0.112
  0.112   0.115   0.121   0.121   0.134   0.151   0.151   0.152
  0.155   0.163   0.185   0.185   0.250   0.250   0.262   0.293
  0.294   0.316   0.334   0.346   0.346   0.360   0.363   0.363
  0.413   0.436   0.455   0.455   0.471   0.471   0.481   0.508
  0.508   0.527   0.545   0.545   0.586   0.655   0.682   0.682
  0.696   0.823   0.857   0.858   0.882   0.882   0.939   0.979
  0.979   1.015   1.015   1.024   1.062   1.065   1.065   1.067
  1.071   1.080   1.080   1.095   1.095   1.119   1.125   1.125
  1.126   1.176   1.176   1.180   1.249   1.250   1.331   1.356
  1.356   1.415   1.423   1.423   1.442   1.454   1.526   1.526
  1.590   1.590   1.644   1.673   1.673   1.686   1.707   1.707
  1.814   2.151   2.152   2.153   2.189   2.235   2.235   2.273
  2.273   2.486   2.650   2.939   2.939   3.074   3.133   3.133
  3.272   3.294   3.342   3.342   3.404   3.549   3.549   3.711
  3.711   3.818   4.181   4.181   4.257   4.257   4.275   4.289
  4.289   4.299   4.308   4.338   4.338   4.364   4.364   4.365
  4.428   4.428   4.462   4.503   4.503   4.532   4.545   4.572
  4.572   4.957   4.967   4.967   4.984   4.984   4.990   5.060
  5.135   5.135   5.154   5.155   5.240   5.359   5.655   5.656
  5.692   9.680   9.681   9.707  20.403  20.404  20.414  20.420
 20.449  20.449  20.663  20.663  20.739  23.624  26.908  26.914
 26.927  26.929  26.961  26.976  26.993  26.996  27.001  27.005
 27.031  27.041  27.045  27.075  27.111  27.730  27.737  27.768
 36.624  36.625  36.626  36.627  36.627  36.628  36.631  36.633
 36.633  36.636  36.636  36.639  36.640  36.642  36.647  36.649
 36.650  36.654  36.655  36.657  36.661  40.597  40.644  40.867
 40.870  40.886 215.543 215.543 215.598
 --------------------------------------------------------------
 
          Ground-State Mulliken Net Atomic Charges

     Atom                 Charge (a.u.)
  ----------------------------------------
      1 C                     0.784481
      2 H                     0.049136
      3 Cl                   -0.277495
      4 Cl                   -0.277985
      5 Cl                   -0.278137
  ----------------------------------------
  Sum of atomic charges =     0.000000

 -----------------------------------------------------------------
                    Cartesian Multipole Moments
 -----------------------------------------------------------------
    Charge (ESU x 10^10)
                 0.0000
    Dipole Moment (Debye)
         X      -0.0012      Y      -0.0004      Z       1.0419
       Tot       1.0419
    Quadrupole Moments (Debye-Ang)
        XX     -44.2448     XY      -0.0001     YY     -44.2489
        XZ      -0.0004     YZ       0.0002     ZZ     -43.2556
    Octapole Moments (Debye-Ang^2)
       XXX       3.8809    XXY      -0.0005    XYY      -3.8897
       YYY      -0.0014    XXZ      17.2231    XYZ       0.0000
       YYZ      17.2244    XZZ       0.0008    YZZ      -0.0002
       ZZZ      61.3774
    Hexadecapole Moments (Debye-Ang^3)
      XXXX    -362.6327   XXXY      -0.0018   XXYY    -120.8819
      XYYY       0.0002   YYYY    -362.6640   XXXZ      -5.5216
      XXYZ       0.0003   XYYZ       5.5221   YYYZ       0.0007
      XXZZ     -81.8850   XYZZ      -0.0002   YYZZ     -81.8873
      XZZZ      -0.0018   YZZZ       0.0001   ZZZZ    -120.5372
 -----------------------------------------------------------------
 Total job time:  182.10s(wall), 179.00s(cpu) 
 Wed Apr 24 15:59:32 2013

        *************************************************************
        *                                                           *
        *  Thank you very much for using Q-Chem.  Have a nice day.  *
        *                                                           *
        *************************************************************


0 sent ACK to 0 
now end server 0 ... 
 
**********************************************************************
Job 3 of 3 
**********************************************************************
 
Process 0 of 1 is on cl232.stfx.acenet.ca - thread support 1
initial socket setup ...start
initial socket setup ...done 
now start server 0 ... 

cmd = /usr/bin/ssh clhead /usr/local/qchem/bin/get_hostid 1445922800 > /scratch/tmp/5954863.1.long.q/qchem5545/lic.dat
                  Welcome to Q-Chem
     A Quantum Leap Into The Future Of Chemistry

 Y. Shao, L. Fusti-Molnar, Y. Jung, J. Kussmann, C. Ochsenfeld,
 S. T. Brown, A. T. B. Gilbert, L. V. Slipchenko,S. V. Levchenko,
 D. P. O'Neill, R. A. DiStasio Jr., R. C. Lochan, T. Wang,
 G. J. O. Beran, N. A. Besley, J. M. Herbert, C. Y. Lin,
 T. Van Voorhis, S. H. Chien, A. Sodt, R. P. Steele, 
 V. A. Rassolov, P. E. Maslen, P. P. Korambath, R. D. Adamson,
 B. Austin, J. Baker, E. F. C. Byrd, H. Dachsel, R. J. Doerksen,
 A. Dreuw, B. D. Dunietz, A. D. Dutoi, T. R. Furlani,
 S. R. Gwaltney, A. Heyden, S. Hirata, C.-P. Hsu, G. Kedziora,
 R. Z. Khaliullin, P. Klunzinger, A. M. Lee, M. S. Lee, W. Liang,
 I. Lotan, N. Nair, B. Peters, E. I. Proynov, P. A. Pieniazek, 
 Y. M. Rhee, J. Ritchie, E. Rosta, C. D. Sherrill, 
 A. C. Simmonett, J. E. Subotnik, H. L. Woodcock III,
 W. Zhang, A. T. Bell, A. K. Chakraborty, D. M. Chipman,
 F. J. Keil, A. Warshel, W. J. Hehre, H. F. Schaefer III,
 J. Kong, A. I. Krylov, P. M. W. Gill, M. Head-Gordon,
 Q-Chem, Version 3.1, Q-Chem, Inc., Pittsburgh, PA (2007).

 Additional authors for Version 3.1: 
 Z. Gan, Y. Zhao, N. E. Schultz, D. Truhlar, E. Epifanovsky and M. Oana.

 Additional authors for Version 3.2: 
 R. Baer, B. R. Brooks, D. Casanova, J.-D. Chai, C.-L. Cheng, 
 C. Cramer, D. Crittenden, A. Ghysels, G. Hawkins, E. G. Hohenstein, 
 C. Kelley, W. Kurlancheek, D. Liotard, E. Livshits, P. Manohar, 
 A. Marenich, D. Neuhauser, R. Olson, M. A. Rohrdanz, K. S. Thanthiriwatte, 
 A. J. W. Thom, V. Vanovschi, C. F. Williams, Q. Wu and Z.-Q. You. 


 Intel X86 Linux Version

 Q-chem begins on Wed Apr 24 15:59:36 2013  

 Parallel job on  1  processors
Processing $rem in /usr/local/qchem/config/preferences.

theFileMan(): MAXOPENFILES=974 MAX_SUB_FILE_NUM=16
Maximum size of a physical file is 2.0 GB, maximum size of a tmp-file is 32.0 GB


--------------------------------------------------------------
User input:
--------------------------------------------------------------

$molecule
1,2
C
H,1,R
Cl,1,R1,2,A
Cl,1,R1,2,A,3,120.,0
Cl,1,R1,2,A,3,-120.,0

R=1.08553635
R1=1.78773686
A=107.50826708

$end

$comment
positive
$end

$xc_functional
C PBE   1.00
X wPBE  1.00
$end

$rem
SYMMETRY_DECOMPOSITION	0
LRC_DFT                 true
exchange 		general
BASIS                   g3large
omega			100
mem_static              760
max_scf_cycles          200
scf_final_print         1
sym_ignore              true
$end

--------------------------------------------------------------
 Writing REM_CC_EA            5
 ----------------------------------------------------
       Standard Nuclear Orientation (Angstroms)
    I     Atom         X            Y            Z
 ----------------------------------------------------
    1      C       0.000000     0.000000     0.000000
    2      H       0.000000     0.000000     1.085536
    3      Cl      1.704917     0.000000    -0.537829
    4      Cl     -0.852459    -1.476502    -0.537829
    5      Cl     -0.852459     1.476502    -0.537829
 ----------------------------------------------------
 Nuclear Repulsion Energy =   260.3321865543 hartrees
 There are       29 alpha and       28 beta electrons
 Requested basis set is G3large
 There are 73 shells and 250 basis functions

Total QAlloc Memory Limit   2000 MB
Mega-Array Size       743 MB
MEM_STATIC part       760 MB

                       Distance Matrix (Angstroms)
             C (  1)   H (  2)   Cl(  3)   Cl(  4)
   H (  2)  1.085536
   Cl(  3)  1.787737  2.354158
   Cl(  4)  1.787737  2.354158  2.953003
   Cl(  5)  1.787737  2.354158  2.953003  2.953003
 
 A cutoff of  1.0D-08 yielded   2236 shell pairs
 There are  26872 function pairs ( 37270 Cartesian)
Evaluating contribution to one-electron hamiltonian from nuclear
 Smallest overlap matrix eigenvalue = 9.07E-05

 Q-Chem warning in module mkSTV.C, line 194:

 Overlap eigenvalue is smaller than square root of threshold

 Multipole matrices computed through 2nd order

  Scale SEOQF with 1.000000e-01/1.000000e-01/1.000000e-01

 Standard Electronic Orientation quadrupole field applied
 Nucleus-field energy     =     0.0000000062 hartrees
 Guess from superposition of atomic densities
 Warning:  Energy on first SCF cycle will be non-variational
 Long-range K will be added via erf
 Coulomb attenuation parameter = 0.1 bohr**(-1)
 An unrestricted Kohn-Sham SCF calculation will be
 performed using Pulay DIIS extrapolation
 Exchange:  wPBE + LR-HF      Correlation:  PBE
 Using SG-1 standard quadrature grid
 SCF converges when DIIS error is below 1.0E-05
 Requested basis set is G3large
 There are 73 shells and 250 basis functions
 A cutoff of  1.0D-08 yielded   2236 shell pairs
 There are  26872 function pairs ( 37270 Cartesian)
 Warning!  Inaccurate integrated density:
   Number of electrons =    57
   Numerical integral  =    57.999919144246
   Relative error      =     1.7542441127 %
 ---------------------------------------
  Cycle       Energy         DIIS Error
 ---------------------------------------
    1   -1419.1784237814      2.05E-02
    2   -1418.2867281480      2.82E-03
    3   -1418.1340320108      5.47E-03
    4   -1418.3669797241      5.15E-04
    5   -1418.3682464270      3.17E-04
    6   -1418.3690226143      1.40E-04
    7   -1418.3692275440      7.79E-05
    8   -1418.3693531743      3.67E-05
    9   -1418.3694176753      1.39E-05
   10   -1418.3694394072      1.10E-05
   11   -1418.3694546608      6.92E-06 Convergence criterion met
 ---------------------------------------
 One-Electron    Energy = -2462.1076924591
 Total Coulomb   Energy =   872.9592934862
 Alpha Exchange  Energy =    -1.6238254598
 Beta  Exchange  Energy =    -1.5653331385
 DFT   Exchange  Energy =   -84.1700653202
 DFT Correlation Energy =    -2.1940183299
 Nuclear Repu.   Energy =   260.3321865605
 Nuclear Attr.   Energy = -3878.6052006480
 Kinetic         Energy =  1416.4975081889
 <S^2> = 0.7522
 SCF time:  CPU 291.87 s  wall 296.13 s
 Final Alpha MO Eigenvalues
            1           2           3           4           5           6
    1-101.0025955-101.0022390-101.0016514 -10.3476316  -9.5190836  -9.5187655
            7           8           9          10          11          12
    1  -9.5181931  -7.3418138  -7.3415197  -7.3407902  -7.3384380  -7.3380581
           13          14          15          16          17          18
    1  -7.3376784  -7.3298097  -7.3295082  -7.3288916  -1.1656159  -1.0780132
           19          20          21          22          23          24
    1  -1.0775714  -0.8874569  -0.7456203  -0.7305073  -0.7303503  -0.6222072
           25          26          27          28          29          30
    1  -0.6216003  -0.5868013  -0.5849963  -0.5845045  -0.5738561  -0.2613029
           31          32          33          34
    1  -0.2128912  -0.2127638  -0.1375615  -0.0892895
 Final Beta MO Eigenvalues
            1           2           3           4           5           6
    1-101.0003053-100.9999696-100.9993954 -10.3479920  -9.5171003  -9.5167988
            7           8           9          10          11          12
    1  -9.5162391  -7.3403935  -7.3401050  -7.3396437  -7.3323825  -7.3320720
           13          14          15          16          17          18
    1  -7.3314384  -7.3286627  -7.3283593  -7.3277819  -1.1587934  -1.0659194
           19          20          21          22          23          24
    1  -1.0655637  -0.8813774  -0.7438915  -0.7238822  -0.7236851  -0.6008509
           25          26          27          28          29          30
    1  -0.6007805  -0.5763897  -0.5762932  -0.5693280  -0.4561747  -0.2566632
           31          32          33
    1  -0.2082248  -0.2081044  -0.1368034
 Analysis of SCF Wavefunction
 
 --------------------------------------------------------------
                    Orbital Energies (a.u.)
 --------------------------------------------------------------
 
 Alpha MOs
 -- Occupied --
*******-101.002-101.002 -10.348  -9.519  -9.519  -9.518  -7.342
 -7.342  -7.341  -7.338  -7.338  -7.338  -7.330  -7.330  -7.329
 -1.166  -1.078  -1.078  -0.887  -0.746  -0.731  -0.730  -0.622
 -0.622  -0.587  -0.585  -0.585  -0.574
 -- Virtual --
 -0.261  -0.213  -0.213  -0.138  -0.089  -0.077  -0.077  -0.053
 -0.045  -0.045  -0.028  -0.028  -0.014  -0.004  -0.003  -0.003
  0.003   0.003   0.010   0.011   0.039   0.039   0.077   0.102
  0.103   0.112   0.131   0.131   0.134   0.172   0.172   0.187
  0.202   0.261   0.267   0.267   0.286   0.286   0.290   0.311
  0.312   0.334   0.345   0.345   0.411   0.447   0.481   0.481
  0.486   0.615   0.644   0.644   0.665   0.665   0.727   0.754
  0.754   0.793   0.793   0.806   0.838   0.838   0.838   0.839
  0.849   0.853   0.853   0.877   0.877   0.897   0.902   0.902
  0.905   0.954   0.954   0.954   1.033   1.033   1.105   1.129
  1.129   1.208   1.209   1.213   1.239   1.242   1.307   1.307
  1.370   1.370   1.428   1.450   1.451   1.471   1.489   1.489
  1.578   1.913   1.919   1.919   1.962   2.001   2.002   2.046
  2.046   2.260   2.433   2.716   2.716   2.848   2.909   2.909
  3.044   3.077   3.114   3.115   3.181   3.326   3.326   3.485
  3.485   3.600   3.951   3.951   4.002   4.002   4.020   4.034
  4.035   4.047   4.048   4.085   4.085   4.113   4.121   4.121
  4.182   4.182   4.221   4.255   4.255   4.278   4.302   4.333
  4.333   4.702   4.713   4.714   4.730   4.730   4.737   4.819
  4.885   4.885   4.907   4.908   4.987   5.141   5.410   5.410
  5.451   9.428   9.429   9.455  20.145  20.146  20.151  20.166
 20.191  20.191  20.408  20.409  20.485  23.400  26.650  26.658
 26.669  26.675  26.711  26.720  26.734  26.738  26.741  26.747
 26.777  26.785  26.789  26.817  26.858  27.497  27.504  27.541
 36.366  36.368  36.368  36.369  36.370  36.371  36.372  36.374
 36.374  36.378  36.378  36.382  36.383  36.386  36.393  36.394
 36.394  36.399  36.401  36.402  36.404  40.372  40.420  40.643
 40.646  40.662 215.283 215.283 215.338
 
 Beta MOs
 -- Occupied --
*******-101.000-100.999 -10.348  -9.517  -9.517  -9.516  -7.340
 -7.340  -7.340  -7.332  -7.332  -7.331  -7.329  -7.328  -7.328
 -1.159  -1.066  -1.066  -0.881  -0.744  -0.724  -0.724  -0.601
 -0.601  -0.576  -0.576  -0.569
 -- Virtual --
 -0.456  -0.257  -0.208  -0.208  -0.137  -0.088  -0.074  -0.074
 -0.051  -0.042  -0.042  -0.026  -0.026  -0.012  -0.002  -0.001
 -0.001   0.008   0.008   0.010   0.015   0.047   0.047   0.080
  0.108   0.108   0.124   0.138   0.140   0.140   0.176   0.176
  0.187   0.214   0.264   0.272   0.272   0.289   0.289   0.293
  0.319   0.320   0.337   0.348   0.348   0.411   0.458   0.483
  0.483   0.489   0.616   0.648   0.648   0.670   0.670   0.730
  0.763   0.763   0.800   0.800   0.812   0.848   0.848   0.850
  0.852   0.856   0.866   0.866   0.883   0.883   0.908   0.910
  0.910   0.910   0.963   0.963   0.969   1.038   1.039   1.114
  1.139   1.139   1.214   1.214   1.217   1.241   1.245   1.312
  1.312   1.376   1.376   1.432   1.461   1.461   1.474   1.491
  1.491   1.589   1.929   1.929   1.932   1.965   2.012   2.013
  2.049   2.049   2.262   2.434   2.716   2.716   2.847   2.908
  2.908   3.045   3.077   3.115   3.115   3.181   3.324   3.325
  3.485   3.485   3.600   3.960   3.960   4.019   4.019   4.038
  4.051   4.051   4.062   4.071   4.102   4.102   4.128   4.130
  4.130   4.192   4.192   4.225   4.266   4.266   4.294   4.307
  4.340   4.341   4.709   4.719   4.720   4.736   4.737   4.743
  4.819   4.889   4.890   4.909   4.910   4.994   5.141   5.413
  5.413   5.453   9.433   9.433   9.460  20.151  20.151  20.161
 20.168  20.197  20.197  20.411  20.411  20.487  23.399  26.655
 26.662  26.673  26.677  26.713  26.723  26.738  26.742  26.746
 26.751  26.778  26.789  26.791  26.821  26.860  27.497  27.504
 27.540  36.368  36.370  36.370  36.371  36.372  36.373  36.374
 36.377  36.377  36.380  36.380  36.383  36.385  36.387  36.394
 36.394  36.395  36.400  36.401  36.403  36.405  40.371  40.420
 40.642  40.645  40.661 215.285 215.286 215.341
 --------------------------------------------------------------
 
          Ground-State Mulliken Net Atomic Charges

     Atom                 Charge (a.u.)    Spin (a.u.)
  --------------------------------------------------------
      1 C                     0.794493      -0.026454
      2 H                     0.088807       0.001250
      3 Cl                    0.038460       0.340052
      4 Cl                    0.038915       0.341865
      5 Cl                    0.039325       0.343287
  --------------------------------------------------------
  Sum of atomic charges =     1.000000
  Sum of spin   charges =     1.000000

 -----------------------------------------------------------------
                    Cartesian Multipole Moments
 -----------------------------------------------------------------
    Charge (ESU x 10^10)
                 4.8032
    Dipole Moment (Debye)
         X      -0.0082      Y       0.0013      Z      -1.2190
       Tot       1.2190
    Quadrupole Moments (Debye-Ang)
        XX     -31.5359     XY      -0.0033     YY     -31.4864
        XZ       0.0210     YZ      -0.0008     ZZ     -38.3510
    Octapole Moments (Debye-Ang^2)
       XXX       9.5955    XXY       0.0004    XYY      -9.6136
       YYY       0.0095    XXZ      10.8519    XYZ       0.0025
       YYZ      10.9083    XZZ      -0.0257    YZZ      -0.0008
       ZZZ      56.1364
    Hexadecapole Moments (Debye-Ang^3)
      XXXX    -296.3834   XXXY      -0.0270   XXYY     -98.8158
      XYYY       0.0008   YYYY    -296.0009   XXXZ      -8.0967
      XXYZ       0.1662   XYYZ       8.1750   YYYZ      -0.1735
      XXZZ     -69.8968   XYZZ      -0.0018   YYZZ     -69.9440
      XZZZ       0.0372   YZZZ       0.0018   ZZZZ    -105.1976
 -----------------------------------------------------------------
 Total job time:  296.92s(wall), 292.26s(cpu) 
 Wed Apr 24 16:04:32 2013

        *************************************************************
        *                                                           *
        *  Thank you very much for using Q-Chem.  Have a nice day.  *
        *                                                           *
        *************************************************************


0 sent ACK to 0 
now end server 0 ... 
