Process 0 of 1 is on cl185.stfx.acenet.ca - thread support 1
initial socket setup ...start
initial socket setup ...done 
now start server 0 ... 

cmd = /usr/bin/ssh clhead /usr/local/qchem/bin/get_hostid 1619452944 > /scratch/tmp/4825425.1.medium.q/qchem18844/lic.dat
                  Welcome to Q-Chem
     A Quantum Leap Into The Future Of Chemistry

 Y. Shao, L. Fusti-Molnar, Y. Jung, J. Kussmann, C. Ochsenfeld,
 S. T. Brown, A. T. B. Gilbert, L. V. Slipchenko,S. V. Levchenko,
 D. P. O'Neill, R. A. DiStasio Jr., R. C. Lochan, T. Wang,
 G. J. O. Beran, N. A. Besley, J. M. Herbert, C. Y. Lin,
 T. Van Voorhis, S. H. Chien, A. Sodt, R. P. Steele, 
 V. A. Rassolov, P. E. Maslen, P. P. Korambath, R. D. Adamson,
 B. Austin, J. Baker, E. F. C. Byrd, H. Dachsel, R. J. Doerksen,
 A. Dreuw, B. D. Dunietz, A. D. Dutoi, T. R. Furlani,
 S. R. Gwaltney, A. Heyden, S. Hirata, C.-P. Hsu, G. Kedziora,
 R. Z. Khaliullin, P. Klunzinger, A. M. Lee, M. S. Lee, W. Liang,
 I. Lotan, N. Nair, B. Peters, E. I. Proynov, P. A. Pieniazek, 
 Y. M. Rhee, J. Ritchie, E. Rosta, C. D. Sherrill, 
 A. C. Simmonett, J. E. Subotnik, H. L. Woodcock III,
 W. Zhang, A. T. Bell, A. K. Chakraborty, D. M. Chipman,
 F. J. Keil, A. Warshel, W. J. Hehre, H. F. Schaefer III,
 J. Kong, A. I. Krylov, P. M. W. Gill, M. Head-Gordon,
 Q-Chem, Version 3.1, Q-Chem, Inc., Pittsburgh, PA (2007).

 Additional authors for Version 3.1: 
 Z. Gan, Y. Zhao, N. E. Schultz, D. Truhlar, E. Epifanovsky and M. Oana.

 Additional authors for Version 3.2: 
 R. Baer, B. R. Brooks, D. Casanova, J.-D. Chai, C.-L. Cheng, 
 C. Cramer, D. Crittenden, A. Ghysels, G. Hawkins, E. G. Hohenstein, 
 C. Kelley, W. Kurlancheek, D. Liotard, E. Livshits, P. Manohar, 
 A. Marenich, D. Neuhauser, R. Olson, M. A. Rohrdanz, K. S. Thanthiriwatte, 
 A. J. W. Thom, V. Vanovschi, C. F. Williams, Q. Wu and Z.-Q. You. 


 Intel X86 Linux Version

 Q-chem begins on Mon Nov 14 18:45:09 2011  

 Parallel job on  1  processors
Processing $rem in /usr/local/qchem/config/preferences.

theFileMan(): MAXOPENFILES=974 MAX_SUB_FILE_NUM=16
Maximum size of a physical file is 2.0 GB, maximum size of a tmp-file is 32.0 GB


--------------------------------------------------------------
User input:
--------------------------------------------------------------

$molecule
-1,1
O
H,1,ROH

ROH=0.98267246

$end

$comment
negative
$end

$xc_functional
   X HF 1.0
   X BNL 1.0
   C LYP 1.0
$end

$rem
SYMMETRY_DECOMPOSITION	0
exchange 		general
BASIS                   g3large
omega			590
separate_jk		true
mem_static              760
max_scf_cycles          200
scf_final_print         1
sym_ignore              true
$end

--------------------------------------------------------------
 Writing REM_CC_EA            2
 ----------------------------------------------------
       Standard Nuclear Orientation (Angstroms)
    I     Atom         X            Y            Z
 ----------------------------------------------------
    1      O       0.000000     0.000000     0.000000
    2      H       0.000000     0.000000     0.982672
 ----------------------------------------------------
 Nuclear Repulsion Energy =     4.3080658701 hartrees
 There are        5 alpha and        5 beta electrons
 Requested basis set is G3large
 There are 16 shells and 52 basis functions

Total QAlloc Memory Limit   2000 MB
Mega-Array Size       743 MB
MEM_STATIC part       760 MB

                       Distance Matrix (Angstroms)
             O (  1)
   H (  2)  0.982672
 
 A cutoff of  1.0D-08 yielded    136 shell pairs
 There are   1462 function pairs (  1834 Cartesian)
Evaluating contribution to one-electron hamiltonian from nuclear
 Smallest overlap matrix eigenvalue = 4.41E-03
 Multipole matrices computed through 2nd order

  Scale SEOQF with 1.000000e+00/1.000000e+00/1.000000e-01

 Standard Electronic Orientation quadrupole field applied
 Nucleus-field energy     =    -0.0000000001 hartrees
 Guess from superposition of atomic densities
 Warning:  Energy on first SCF cycle will be non-variational
 A restricted hybrid HF-DFT SCF calculation will be
 performed using Pulay DIIS extrapolation
 Exchange:     1.0000 Hartree-Fock + 1.0000 BNL
 Correlation:  1.0000 LYP
 Using SG-1 standard quadrature grid
 SCF converges when DIIS error is below 1.0E-05
 Warning!  Inaccurate integrated density:
   Number of electrons =    10
   Numerical integral  =     8.999998367859
   Relative error      =   -10.0000163214 %
 ---------------------------------------
  Cycle       Energy         DIIS Error
 ---------------------------------------
    1     -74.9056894140      3.99E-02
    2     -75.0312998761      2.46E-02
    3     -75.1391676891      1.80E-02
    4     -75.2061778261      1.60E-03
    5     -75.2068402692      4.58E-04
    6     -75.2069472027      8.96E-05
    7     -75.2069624784      4.30E-05
    8     -75.2069651301      7.73E-06 Convergence criterion met
 ---------------------------------------
 One-Electron    Energy =  -116.3082984766
 Total Coulomb   Energy =    45.2893311946
 Alpha Exchange  Energy =    -1.3445560015
 Beta  Exchange  Energy =    -1.3445560015
 DFT   Exchange  Energy =    -5.4707042714
 DFT Correlation Energy =    -0.3362474437
 Nuclear Repu.   Energy =     4.3080658700
 Nuclear Attr.   Energy =  -191.2333461690
 Kinetic         Energy =    74.9250476925
 SCF time:  CPU 4.52 s  wall 11.60 s
 Final Alpha MO Eigenvalues
            1           2           3           4           5           6
    1 -18.5042514  -0.7673748  -0.2341546  -0.0997426  -0.0997381   0.2112564
            7           8           9          10
    1   0.4500898   0.4620190   0.4690848   0.4690869
 Analysis of SCF Wavefunction
 
 --------------------------------------------------------------
                    Orbital Energies (a.u.)
 --------------------------------------------------------------
 
 Alpha MOs
 -- Occupied --
-18.504  -0.767  -0.234  -0.100  -0.100
 -- Virtual --
  0.211   0.450   0.462   0.469   0.469   0.532   0.924   1.121
  1.121   1.314   1.494   1.494   1.749   1.850   2.012   2.012
  2.295   2.295   2.684   3.125   4.128   4.128   4.577   5.387
  5.387   5.586   5.586   5.620   5.620   5.677   6.067   6.067
  7.278   7.278   7.438   7.438   7.533   7.936  44.123  44.206
 44.261  44.261  44.341  46.150  46.150  46.659  50.428
 --------------------------------------------------------------
 
          Ground-State Mulliken Net Atomic Charges

     Atom                 Charge (a.u.)
  ----------------------------------------
      1 O                    -1.144872
      2 H                     0.144872
  ----------------------------------------
  Sum of atomic charges =    -1.000000

 -----------------------------------------------------------------
                    Cartesian Multipole Moments
 -----------------------------------------------------------------
    Charge (ESU x 10^10)
                -4.8032
    Dipole Moment (Debye)
         X      -0.0011      Y      -0.0005      Z       1.2297
       Tot       1.2297
    Quadrupole Moments (Debye-Ang)
        XX     -10.1258     XY      -0.0001     YY     -10.1258
        XZ      -0.0003     YZ      -0.0001     ZZ      -7.5556
    Octapole Moments (Debye-Ang^2)
       XXX      -0.0041    XXY      -0.0006    XYY      -0.0014
       YYY      -0.0018    XXZ      -0.6365    XYZ       0.0000
       YYZ      -0.6365    XZZ      -0.0015    YZZ      -0.0006
       ZZZ      -0.9029
    Hexadecapole Moments (Debye-Ang^3)
      XXXX     -14.5303   XXXY      -0.0002   XXYY      -4.8435
      XYYY      -0.0002   YYYY     -14.5305   XXXZ      -0.0011
      XXYZ      -0.0002   XYYZ      -0.0004   YYYZ      -0.0005
      XXZZ      -4.8569   XYZZ      -0.0001   YYZZ      -4.8569
      XZZZ      -0.0012   YZZZ      -0.0005   ZZZZ     -13.1287
 -----------------------------------------------------------------
 Total job time:  11.81s(wall), 4.58s(cpu) 
 Mon Nov 14 18:45:21 2011

        *************************************************************
        *                                                           *
        *  Thank you very much for using Q-Chem.  Have a nice day.  *
        *                                                           *
        *************************************************************


0 sent ACK to 0 
now end server 0 ... 
 
**********************************************************************
Job 2 of 3 
**********************************************************************
 
Process 0 of 1 is on cl185.stfx.acenet.ca - thread support 1
initial socket setup ...start
initial socket setup ...done 
now start server 0 ... 

cmd = /usr/bin/ssh clhead /usr/local/qchem/bin/get_hostid 583437639 > /scratch/tmp/4825425.1.medium.q/qchem18844/lic.dat
                  Welcome to Q-Chem
     A Quantum Leap Into The Future Of Chemistry

 Y. Shao, L. Fusti-Molnar, Y. Jung, J. Kussmann, C. Ochsenfeld,
 S. T. Brown, A. T. B. Gilbert, L. V. Slipchenko,S. V. Levchenko,
 D. P. O'Neill, R. A. DiStasio Jr., R. C. Lochan, T. Wang,
 G. J. O. Beran, N. A. Besley, J. M. Herbert, C. Y. Lin,
 T. Van Voorhis, S. H. Chien, A. Sodt, R. P. Steele, 
 V. A. Rassolov, P. E. Maslen, P. P. Korambath, R. D. Adamson,
 B. Austin, J. Baker, E. F. C. Byrd, H. Dachsel, R. J. Doerksen,
 A. Dreuw, B. D. Dunietz, A. D. Dutoi, T. R. Furlani,
 S. R. Gwaltney, A. Heyden, S. Hirata, C.-P. Hsu, G. Kedziora,
 R. Z. Khaliullin, P. Klunzinger, A. M. Lee, M. S. Lee, W. Liang,
 I. Lotan, N. Nair, B. Peters, E. I. Proynov, P. A. Pieniazek, 
 Y. M. Rhee, J. Ritchie, E. Rosta, C. D. Sherrill, 
 A. C. Simmonett, J. E. Subotnik, H. L. Woodcock III,
 W. Zhang, A. T. Bell, A. K. Chakraborty, D. M. Chipman,
 F. J. Keil, A. Warshel, W. J. Hehre, H. F. Schaefer III,
 J. Kong, A. I. Krylov, P. M. W. Gill, M. Head-Gordon,
 Q-Chem, Version 3.1, Q-Chem, Inc., Pittsburgh, PA (2007).

 Additional authors for Version 3.1: 
 Z. Gan, Y. Zhao, N. E. Schultz, D. Truhlar, E. Epifanovsky and M. Oana.

 Additional authors for Version 3.2: 
 R. Baer, B. R. Brooks, D. Casanova, J.-D. Chai, C.-L. Cheng, 
 C. Cramer, D. Crittenden, A. Ghysels, G. Hawkins, E. G. Hohenstein, 
 C. Kelley, W. Kurlancheek, D. Liotard, E. Livshits, P. Manohar, 
 A. Marenich, D. Neuhauser, R. Olson, M. A. Rohrdanz, K. S. Thanthiriwatte, 
 A. J. W. Thom, V. Vanovschi, C. F. Williams, Q. Wu and Z.-Q. You. 


 Intel X86 Linux Version

 Q-chem begins on Mon Nov 14 18:45:24 2011  

 Parallel job on  1  processors
Processing $rem in /usr/local/qchem/config/preferences.

theFileMan(): MAXOPENFILES=974 MAX_SUB_FILE_NUM=16
Maximum size of a physical file is 2.0 GB, maximum size of a tmp-file is 32.0 GB


--------------------------------------------------------------
User input:
--------------------------------------------------------------

$molecule
0,2
O
H,1,ROH

ROH=0.98267246

$end

$comment
neutral
$end

$xc_functional
   X HF 1.0
   X BNL 1.0
   C LYP 1.0
$end

$rem
SYMMETRY_DECOMPOSITION	0
exchange 		general
BASIS                   g3large
omega			590
separate_jk		true
mem_static              760
max_scf_cycles          200
scf_final_print         1
sym_ignore              true
$end

--------------------------------------------------------------
 Writing REM_CC_EA            2
 ----------------------------------------------------
       Standard Nuclear Orientation (Angstroms)
    I     Atom         X            Y            Z
 ----------------------------------------------------
    1      O       0.000000     0.000000     0.000000
    2      H       0.000000     0.000000     0.982672
 ----------------------------------------------------
 Nuclear Repulsion Energy =     4.3080658701 hartrees
 There are        5 alpha and        4 beta electrons
 Requested basis set is G3large
 There are 16 shells and 52 basis functions

Total QAlloc Memory Limit   2000 MB
Mega-Array Size       743 MB
MEM_STATIC part       760 MB

                       Distance Matrix (Angstroms)
             O (  1)
   H (  2)  0.982672
 
 A cutoff of  1.0D-08 yielded    136 shell pairs
 There are   1462 function pairs (  1834 Cartesian)
Evaluating contribution to one-electron hamiltonian from nuclear
 Smallest overlap matrix eigenvalue = 4.41E-03
 Multipole matrices computed through 2nd order

  Scale SEOQF with 1.000000e+00/1.000000e+00/1.000000e-01

 Standard Electronic Orientation quadrupole field applied
 Nucleus-field energy     =    -0.0000000001 hartrees
 Guess from superposition of atomic densities
 Warning:  Energy on first SCF cycle will be non-variational
 An unrestricted hybrid HF-DFT SCF calculation will be
 performed using Pulay DIIS extrapolation
 Exchange:     1.0000 Hartree-Fock + 1.0000 BNL
 Correlation:  1.0000 LYP
 Using SG-1 standard quadrature grid
 SCF converges when DIIS error is below 1.0E-05
 ---------------------------------------
  Cycle       Energy         DIIS Error
 ---------------------------------------
    1     -74.9056894140      3.99E-02
    2     -75.1141295004      6.70E-03
    3     -75.1317587189      3.55E-03
    4     -75.1365174853      1.13E-03
    5     -75.1385220143      6.23E-04
    6     -75.1404139095      3.79E-04
    7     -75.1415171962      1.31E-04
    8     -75.1416266374      2.16E-05
    9     -75.1416280056      5.00E-06 Convergence criterion met
 ---------------------------------------
 One-Electron    Energy =  -112.4776617318
 Total Coulomb   Energy =    41.2633242840
 Alpha Exchange  Energy =    -1.4015140557
 Beta  Exchange  Energy =    -1.1149047330
 DFT   Exchange  Energy =    -5.4187436352
 DFT Correlation Energy =    -0.3001940039
 Nuclear Repu.   Energy =     4.3080658700
 Nuclear Attr.   Energy =  -187.3447160461
 Kinetic         Energy =    74.8670543143
 <S^2> = 0.7526
 SCF time:  CPU 5.14 s  wall 13.83 s
 Final Alpha MO Eigenvalues
            1           2           3           4           5           6
    1 -18.9660499  -1.2180256  -0.6506368  -0.5977125  -0.5247464   0.0320852
            7           8           9          10
    1   0.1997336   0.2078115   0.2175343   0.2218378
 Final Beta MO Eigenvalues
            1           2           3           4           5           6
    1 -18.9395848  -1.1419030  -0.6194689  -0.4918563  -0.0460804   0.0334833
            7           8           9
    1   0.2048106   0.2214304   0.2240315
 Analysis of SCF Wavefunction
 
 --------------------------------------------------------------
                    Orbital Energies (a.u.)
 --------------------------------------------------------------
 
 Alpha MOs
 -- Occupied --
-18.966  -1.218  -0.651  -0.598  -0.525
 -- Virtual --
  0.032   0.200   0.208   0.218   0.222   0.280   0.605   0.781
  0.796   0.990   1.095   1.136   1.397   1.468   1.585   1.586
  1.877   1.915   2.320   2.747   3.742   3.757   4.193   4.892
  4.957   5.130   5.139   5.155   5.156   5.248   5.618   5.661
  6.786   6.788   6.949   7.007   7.119   7.496  43.634  43.717
 43.772  43.810  43.879  45.663  45.700  46.207  49.965
 
 Beta MOs
 -- Occupied --
-18.940  -1.142  -0.619  -0.492
 -- Virtual --
 -0.046   0.033   0.205   0.221   0.224   0.233   0.282   0.611
  0.796   0.797   0.999   1.151   1.152   1.412   1.497   1.639
  1.641   1.925   1.926   2.331   2.757   3.750   3.756   4.202
  4.985   4.991   5.186   5.186   5.217   5.218   5.279   5.668
  5.676   6.879   6.879   7.039   7.039   7.141   7.541  43.702
 43.785  43.836  43.839  43.917  45.715  45.719  46.227  49.998
 --------------------------------------------------------------
 
          Ground-State Mulliken Net Atomic Charges

     Atom                 Charge (a.u.)    Spin (a.u.)
  --------------------------------------------------------
      1 O                    -0.268644       1.023423
      2 H                     0.268644      -0.023423
  --------------------------------------------------------
  Sum of atomic charges =     0.000000
  Sum of spin   charges =     1.000000

 -----------------------------------------------------------------
                    Cartesian Multipole Moments
 -----------------------------------------------------------------
    Charge (ESU x 10^10)
                 0.0000
    Dipole Moment (Debye)
         X       0.0001      Y       0.0000      Z       1.8715
       Tot       1.8715
    Quadrupole Moments (Debye-Ang)
        XX      -5.8362     XY      -0.4853     YY      -6.7423
        XZ       0.0000     YZ       0.0001     ZZ      -4.2606
    Octapole Moments (Debye-Ang^2)
       XXX       0.0002    XXY       0.0000    XYY       0.0001
       YYY       0.0001    XXZ      -0.3942    XYZ      -0.0206
       YYZ      -0.4327    XZZ       0.0001    YZZ       0.0001
       ZZZ       0.7766
    Hexadecapole Moments (Debye-Ang^3)
      XXXX      -4.5463   XXXY      -0.4035   XXYY      -1.7665
      XYYY      -0.4034   YYYY      -6.0527   XXXZ       0.0000
      XXYZ       0.0000   XYYZ       0.0000   YYYZ       0.0001
      XXZZ      -2.0181   XYZZ      -0.1443   YYZZ      -2.2874
      XZZZ       0.0000   YZZZ       0.0001   ZZZZ      -5.1754
 -----------------------------------------------------------------
 Total job time:  13.94s(wall), 5.20s(cpu) 
 Mon Nov 14 18:45:38 2011

        *************************************************************
        *                                                           *
        *  Thank you very much for using Q-Chem.  Have a nice day.  *
        *                                                           *
        *************************************************************


0 sent ACK to 0 
now end server 0 ... 
 
**********************************************************************
Job 3 of 3 
**********************************************************************
 
Process 0 of 1 is on cl185.stfx.acenet.ca - thread support 1
initial socket setup ...start
initial socket setup ...done 
now start server 0 ... 

cmd = /usr/bin/ssh clhead /usr/local/qchem/bin/get_hostid 787295836 > /scratch/tmp/4825425.1.medium.q/qchem18844/lic.dat
                  Welcome to Q-Chem
     A Quantum Leap Into The Future Of Chemistry

 Y. Shao, L. Fusti-Molnar, Y. Jung, J. Kussmann, C. Ochsenfeld,
 S. T. Brown, A. T. B. Gilbert, L. V. Slipchenko,S. V. Levchenko,
 D. P. O'Neill, R. A. DiStasio Jr., R. C. Lochan, T. Wang,
 G. J. O. Beran, N. A. Besley, J. M. Herbert, C. Y. Lin,
 T. Van Voorhis, S. H. Chien, A. Sodt, R. P. Steele, 
 V. A. Rassolov, P. E. Maslen, P. P. Korambath, R. D. Adamson,
 B. Austin, J. Baker, E. F. C. Byrd, H. Dachsel, R. J. Doerksen,
 A. Dreuw, B. D. Dunietz, A. D. Dutoi, T. R. Furlani,
 S. R. Gwaltney, A. Heyden, S. Hirata, C.-P. Hsu, G. Kedziora,
 R. Z. Khaliullin, P. Klunzinger, A. M. Lee, M. S. Lee, W. Liang,
 I. Lotan, N. Nair, B. Peters, E. I. Proynov, P. A. Pieniazek, 
 Y. M. Rhee, J. Ritchie, E. Rosta, C. D. Sherrill, 
 A. C. Simmonett, J. E. Subotnik, H. L. Woodcock III,
 W. Zhang, A. T. Bell, A. K. Chakraborty, D. M. Chipman,
 F. J. Keil, A. Warshel, W. J. Hehre, H. F. Schaefer III,
 J. Kong, A. I. Krylov, P. M. W. Gill, M. Head-Gordon,
 Q-Chem, Version 3.1, Q-Chem, Inc., Pittsburgh, PA (2007).

 Additional authors for Version 3.1: 
 Z. Gan, Y. Zhao, N. E. Schultz, D. Truhlar, E. Epifanovsky and M. Oana.

 Additional authors for Version 3.2: 
 R. Baer, B. R. Brooks, D. Casanova, J.-D. Chai, C.-L. Cheng, 
 C. Cramer, D. Crittenden, A. Ghysels, G. Hawkins, E. G. Hohenstein, 
 C. Kelley, W. Kurlancheek, D. Liotard, E. Livshits, P. Manohar, 
 A. Marenich, D. Neuhauser, R. Olson, M. A. Rohrdanz, K. S. Thanthiriwatte, 
 A. J. W. Thom, V. Vanovschi, C. F. Williams, Q. Wu and Z.-Q. You. 


 Intel X86 Linux Version

 Q-chem begins on Mon Nov 14 18:45:41 2011  

 Parallel job on  1  processors
Processing $rem in /usr/local/qchem/config/preferences.

theFileMan(): MAXOPENFILES=974 MAX_SUB_FILE_NUM=16
Maximum size of a physical file is 2.0 GB, maximum size of a tmp-file is 32.0 GB


--------------------------------------------------------------
User input:
--------------------------------------------------------------

$molecule
1,3
O
H,1,ROH

ROH=0.98267246

$end

$comment
positive
$end

$xc_functional
   X HF 1.0
   X BNL 1.0
   C LYP 1.0
$end

$rem
SYMMETRY_DECOMPOSITION	0
exchange 		general
BASIS                   g3large
omega			590
separate_jk		true
mem_static              760
max_scf_cycles          200
scf_final_print         1
sym_ignore              true
$end

--------------------------------------------------------------
 Writing REM_CC_EA            2
 ----------------------------------------------------
       Standard Nuclear Orientation (Angstroms)
    I     Atom         X            Y            Z
 ----------------------------------------------------
    1      O       0.000000     0.000000     0.000000
    2      H       0.000000     0.000000     0.982672
 ----------------------------------------------------
 Nuclear Repulsion Energy =     4.3080658701 hartrees
 There are        5 alpha and        3 beta electrons
 Requested basis set is G3large
 There are 16 shells and 52 basis functions

Total QAlloc Memory Limit   2000 MB
Mega-Array Size       743 MB
MEM_STATIC part       760 MB

                       Distance Matrix (Angstroms)
             O (  1)
   H (  2)  0.982672
 
 A cutoff of  1.0D-08 yielded    136 shell pairs
 There are   1462 function pairs (  1834 Cartesian)
Evaluating contribution to one-electron hamiltonian from nuclear
 Smallest overlap matrix eigenvalue = 4.41E-03
 Multipole matrices computed through 2nd order

  Scale SEOQF with 1.000000e+00/1.000000e+00/1.000000e-01

 Standard Electronic Orientation quadrupole field applied
 Nucleus-field energy     =    -0.0000000001 hartrees
 Guess from superposition of atomic densities
 Warning:  Energy on first SCF cycle will be non-variational
 An unrestricted hybrid HF-DFT SCF calculation will be
 performed using Pulay DIIS extrapolation
 Exchange:     1.0000 Hartree-Fock + 1.0000 BNL
 Correlation:  1.0000 LYP
 Using SG-1 standard quadrature grid
 SCF converges when DIIS error is below 1.0E-05
 Warning!  Inaccurate integrated density:
   Number of electrons =     8
   Numerical integral  =     8.999998367859
   Relative error      =    12.4999795982 %
 ---------------------------------------
  Cycle       Energy         DIIS Error
 ---------------------------------------
    1     -74.9056894140      3.99E-02
    2     -74.5360967760      1.42E-02
    3     -74.6197828073      6.76E-03
    4     -74.6344800257      1.33E-03
    5     -74.6401251817      9.41E-04
    6     -74.6447209507      6.33E-04
    7     -74.6481477557      2.38E-04
    8     -74.6483940450      5.20E-05
    9     -74.6484099776      1.32E-05
   10     -74.6484106842      3.81E-06 Convergence criterion met
 ---------------------------------------
 One-Electron    Energy =  -107.6898864721
 Total Coulomb   Energy =    36.6114694519
 Alpha Exchange  Energy =    -1.4402746349
 Beta  Exchange  Energy =    -0.8578589538
 DFT   Exchange  Energy =    -5.3244845539
 DFT Correlation Energy =    -0.2554413914
 Nuclear Repu.   Energy =     4.3080658700
 Nuclear Attr.   Energy =  -182.1946833261
 Kinetic         Energy =    74.5047968540
 <S^2> = 2.0046
 SCF time:  CPU 5.63 s  wall 15.20 s
 Final Alpha MO Eigenvalues
            1           2           3           4           5           6
    1 -19.5806698  -1.7713407  -1.1666171  -1.1318716  -1.1318655  -0.2144911
            7           8           9          10
    1  -0.0744156  -0.0504196  -0.0504178  -0.0246785
 Final Beta MO Eigenvalues
            1           2           3           4           5           6
    1 -19.5220747  -1.6119747  -1.0976417  -0.5025437  -0.5025147  -0.2041369
            7           8
    1  -0.0691562  -0.0359427
 Analysis of SCF Wavefunction
 
 --------------------------------------------------------------
                    Orbital Energies (a.u.)
 --------------------------------------------------------------
 
 Alpha MOs
 -- Occupied --
-19.581  -1.771  -1.167  -1.132  -1.132
 -- Virtual --
 -0.214  -0.074  -0.050  -0.050  -0.025   0.032   0.271   0.414
  0.414   0.631   0.695   0.695   0.998   1.042   1.088   1.088
  1.433   1.433   1.903   2.310   3.307   3.307   3.736   4.354
  4.354   4.592   4.592   4.597   4.597   4.703   5.124   5.124
  6.174   6.174   6.402   6.402   6.614   6.948  42.994  43.077
 43.172  43.172  43.266  45.061  45.061  45.609  49.354
 
 Beta MOs
 -- Occupied --
-19.522  -1.612  -1.098
 -- Virtual --
 -0.503  -0.503  -0.204  -0.069  -0.036  -0.036  -0.021   0.031
  0.280   0.430   0.430   0.648   0.755   0.755   1.028   1.087
  1.196   1.196   1.491   1.491   1.924   2.326   3.314   3.314
  3.755   4.486   4.486   4.696   4.696   4.724   4.724   4.785
  5.191   5.191   6.370   6.371   6.531   6.531   6.660   7.043
 43.142  43.225  43.275  43.275  43.354  45.140  45.140  45.651
 49.425
 --------------------------------------------------------------
 
          Ground-State Mulliken Net Atomic Charges

     Atom                 Charge (a.u.)    Spin (a.u.)
  --------------------------------------------------------
      1 O                     0.596873       2.033829
      2 H                     0.403127      -0.033829
  --------------------------------------------------------
  Sum of atomic charges =     1.000000
  Sum of spin   charges =     2.000000

 -----------------------------------------------------------------
                    Cartesian Multipole Moments
 -----------------------------------------------------------------
    Charge (ESU x 10^10)
                 4.8032
    Dipole Moment (Debye)
         X       0.0000      Y       0.0000      Z       2.5337
       Tot       2.5337
    Quadrupole Moments (Debye-Ang)
        XX      -4.1231     XY       0.0000     YY      -4.1231
        XZ       0.0000     YZ       0.0000     ZZ      -2.0141
    Octapole Moments (Debye-Ang^2)
       XXX       0.0000    XXY       0.0000    XYY       0.0000
       YYY       0.0000    XXZ      -0.2543    XYZ       0.0000
       YYZ      -0.2543    XZZ       0.0000    YZZ       0.0000
       ZZZ       2.0285
    Hexadecapole Moments (Debye-Ang^3)
      XXXX      -2.3254   XXXY       0.0000   XXYY      -0.7751
      XYYY       0.0000   YYYY      -2.3254   XXXZ       0.0000
      XXYZ       0.0000   XYYZ       0.0000   YYYZ       0.0000
      XXZZ      -1.1263   XYZZ       0.0000   YYZZ      -1.1263
      XZZZ       0.0000   YZZZ       0.0000   ZZZZ      -1.2737
 -----------------------------------------------------------------
 Total job time:  15.31s(wall), 5.69s(cpu) 
 Mon Nov 14 18:45:56 2011

        *************************************************************
        *                                                           *
        *  Thank you very much for using Q-Chem.  Have a nice day.  *
        *                                                           *
        *************************************************************


0 sent ACK to 0 
now end server 0 ... 
