Process 0 of 1 is on cl107.stfx.acenet.ca - thread support 1
initial socket setup ...start
initial socket setup ...done 
now start server 0 ... 

cmd = /usr/bin/ssh clhead /usr/local/qchem/bin/get_hostid 77302006 > /scratch/tmp/6027503.1.short.q/qchem11702/lic.dat
                  Welcome to Q-Chem
     A Quantum Leap Into The Future Of Chemistry

 Y. Shao, L. Fusti-Molnar, Y. Jung, J. Kussmann, C. Ochsenfeld,
 S. T. Brown, A. T. B. Gilbert, L. V. Slipchenko,S. V. Levchenko,
 D. P. O'Neill, R. A. DiStasio Jr., R. C. Lochan, T. Wang,
 G. J. O. Beran, N. A. Besley, J. M. Herbert, C. Y. Lin,
 T. Van Voorhis, S. H. Chien, A. Sodt, R. P. Steele, 
 V. A. Rassolov, P. E. Maslen, P. P. Korambath, R. D. Adamson,
 B. Austin, J. Baker, E. F. C. Byrd, H. Dachsel, R. J. Doerksen,
 A. Dreuw, B. D. Dunietz, A. D. Dutoi, T. R. Furlani,
 S. R. Gwaltney, A. Heyden, S. Hirata, C.-P. Hsu, G. Kedziora,
 R. Z. Khaliullin, P. Klunzinger, A. M. Lee, M. S. Lee, W. Liang,
 I. Lotan, N. Nair, B. Peters, E. I. Proynov, P. A. Pieniazek, 
 Y. M. Rhee, J. Ritchie, E. Rosta, C. D. Sherrill, 
 A. C. Simmonett, J. E. Subotnik, H. L. Woodcock III,
 W. Zhang, A. T. Bell, A. K. Chakraborty, D. M. Chipman,
 F. J. Keil, A. Warshel, W. J. Hehre, H. F. Schaefer III,
 J. Kong, A. I. Krylov, P. M. W. Gill, M. Head-Gordon,
 Q-Chem, Version 3.1, Q-Chem, Inc., Pittsburgh, PA (2007).

 Additional authors for Version 3.1: 
 Z. Gan, Y. Zhao, N. E. Schultz, D. Truhlar, E. Epifanovsky and M. Oana.

 Additional authors for Version 3.2: 
 R. Baer, B. R. Brooks, D. Casanova, J.-D. Chai, C.-L. Cheng, 
 C. Cramer, D. Crittenden, A. Ghysels, G. Hawkins, E. G. Hohenstein, 
 C. Kelley, W. Kurlancheek, D. Liotard, E. Livshits, P. Manohar, 
 A. Marenich, D. Neuhauser, R. Olson, M. A. Rohrdanz, K. S. Thanthiriwatte, 
 A. J. W. Thom, V. Vanovschi, C. F. Williams, Q. Wu and Z.-Q. You. 


 Intel X86 Linux Version

 Q-chem begins on Mon Jun  3 14:51:19 2013  

 Parallel job on  1  processors
Processing $rem in /usr/local/qchem/config/preferences.

theFileMan(): MAXOPENFILES=974 MAX_SUB_FILE_NUM=16
Maximum size of a physical file is 2.0 GB, maximum size of a tmp-file is 32.0 GB


--------------------------------------------------------------
User input:
--------------------------------------------------------------

$molecule
-1,3
N
O,1,r

r=1.15869834
$end

$comment
spin
$end

$rem
   EXCHANGE B3LYP
   UNRESTRICTED TRUE
   BASIS G3large 
   SCF_PRINT 1
   PDB_PRINT 2
   INCDFT false
   VARTHRESH 0
   MAX_SCF_CYCLES 1000
   MEM_STATIC 256
   MEM_TOTAL 3000
   THRESH 140
   ITHRSH 14
   XC_GRID 75000302
   SCF_CONVERGENCE 6
$end
--------------------------------------------------------------
 Writing REM_CC_EA            0
 ----------------------------------------------------
       Standard Nuclear Orientation (Angstroms)
    I     Atom         X            Y            Z
 ----------------------------------------------------
    1      N       0.000000     0.000000    -0.617972
    2      O       0.000000     0.000000     0.540726
 ----------------------------------------------------
 Molecular Point Group                 C*v   NOp =***
 Largest Abelian Subgroup              C2v   NOp =  1
 Nuclear Repulsion Energy =    25.5751844823 hartrees
 There are        9 alpha and        7 beta electrons
 Requested basis set is G3large
 There are 20 shells and 84 basis functions

Total QAlloc Memory Limit   3000 MB
Mega-Array Size       251 MB
MEM_STATIC part       256 MB

                       Distance Matrix (Angstroms)
             N (  1)
   O (  2)  1.158698
 
 A cutoff of  1.0D-14 yielded    207 shell pairs
 There are   3687 function pairs (  4845 Cartesian)
Evaluating contribution to one-electron hamiltonian from nuclear
 Smallest overlap matrix eigenvalue = 2.14E-03
 Multipole matrices computed through 2nd order

  Scale SEOQF with 1.000000e-01/1.000000e-01/1.000000e-01

 Standard Electronic Orientation quadrupole field applied
 Nucleus-field energy     =    -0.0000000005 hartrees
 Guess from superposition of atomic densities
 Warning:  Energy on first SCF cycle will be non-variational
 An unrestricted hybrid HF-DFT SCF calculation will be
 performed using Pulay DIIS extrapolation
 Exchange:     0.2000 Hartree-Fock + 0.0800 Slater + 0.7200 Becke88
 Correlation:  0.8100 LYP + 0.1900 VWN1RPA
 Using Euler-Maclaurin-Lebedev (75,302) quadrature formula
 SCF converges when DIIS error is below 1.0E-06
 Maximum number of SCF iterations = 1000

NRad = 75 NAng = 302
 Warning!  Inaccurate integrated density:
   Number of electrons =    16
   Numerical integral  =    15.000000676653
   Relative error      =    -6.2499957709 %
 ---------------------------------------
  Cycle       Energy         DIIS Error
 ---------------------------------------
    1    -130.1258459453      4.93E-02

NRad = 75 NAng = 302
    2    -129.8653141832      8.15E-03

NRad = 75 NAng = 302
    3    -129.7567361844      1.39E-02

NRad = 75 NAng = 302
    4    -129.9363360809      8.57E-04

NRad = 75 NAng = 302
    5    -129.9368638296      3.37E-04

NRad = 75 NAng = 302
    6    -129.9369055278      2.67E-04

NRad = 75 NAng = 302
    7    -129.9369652461      1.97E-05

NRad = 75 NAng = 302
    8    -129.9369665612      8.91E-06

NRad = 75 NAng = 302
    9    -129.9369667261      4.82E-06

NRad = 75 NAng = 302
   10    -129.9369667573      8.80E-07 Convergence criterion met
 ---------------------------------------
 One-Electron    Energy =  -232.9601587076
 Total Coulomb   Energy =    93.1407572954
 Alpha Exchange  Energy =    -1.6246930357
 Beta  Exchange  Energy =    -1.3765758120
 DFT   Exchange  Energy =   -11.9821438371
 DFT Correlation Energy =    -0.7093371420
 Nuclear Repu.   Energy =    25.5751844817
 Nuclear Attr.   Energy =  -362.8823208279
 Kinetic         Energy =   129.9221621203
 <S^2> = 2.0087
 SCF time:  CPU 17.21 s  wall 18.93 s
 Analysis of SCF Wavefunction
 
 --------------------------------------------------------------
                    Orbital Energies (a.u.)
 --------------------------------------------------------------
 
 Alpha MOs
 -- Occupied --
-18.886 -14.067  -0.892  -0.363  -0.195  -0.195  -0.154   0.114
  0.114
 -- Virtual --
  0.234   0.276   0.291   0.291   0.369   0.398   0.398   0.545
  0.691   0.998   0.998   1.005   1.188   1.219   1.219   1.259
  1.272   1.272   1.424   1.424   1.724   1.828   1.828   2.116
  2.355   2.355   2.685   3.800   3.800   3.845   3.845   3.937
  3.937   4.006   4.240   4.240   4.876   4.910   4.910   4.964
  4.968   4.968   5.287   5.287   5.304   5.304   5.708   5.757
  5.757   6.956   6.956   6.979   6.979   7.395   7.395   7.497
  7.939  36.095  37.688  37.688  38.326  40.770  40.770  40.862
 40.862  41.096  43.953  43.953  44.061  44.061  44.273  46.065
 46.065  46.825  50.490
 
 Beta MOs
 -- Occupied --
-18.866 -14.041  -0.853  -0.299  -0.124  -0.124  -0.112
 -- Virtual --
  0.237   0.248   0.248   0.283   0.320   0.320   0.372   0.416
  0.416   0.548   0.719   1.023   1.046   1.046   1.202   1.265
  1.265   1.293   1.301   1.301   1.457   1.457   1.742   1.869
  1.869   2.138   2.382   2.382   2.706   3.872   3.872   3.884
  3.884   4.011   4.011   4.036   4.273   4.273   4.906   4.959
  4.959   4.993   5.077   5.077   5.332   5.332   5.351   5.351
  5.732   5.791   5.791   6.992   6.992   7.052   7.052   7.431
  7.431   7.513   7.964  36.123  37.722  37.722  38.338  40.820
 40.820  40.889  40.889  41.113  43.996  43.996  44.084  44.084
 44.291  46.091  46.091  46.834  50.508
 --------------------------------------------------------------
 
          Ground-State Mulliken Net Atomic Charges

     Atom                 Charge (a.u.)    Spin (a.u.)
  --------------------------------------------------------
      1 N                    -0.840201       1.473198
      2 O                    -0.159799       0.526802
  --------------------------------------------------------
  Sum of atomic charges =    -1.000000
  Sum of spin   charges =     2.000000

 -----------------------------------------------------------------
                    Cartesian Multipole Moments
 -----------------------------------------------------------------
    Charge (ESU x 10^10)
                -4.8032
    Dipole Moment (Debye)
         X       0.0000      Y       0.0000      Z       1.6311
       Tot       1.6311
    Quadrupole Moments (Debye-Ang)
        XX     -14.6990     XY       0.0000     YY     -14.6990
        XZ       0.0000     YZ       0.0000     ZZ     -18.3854
    Octapole Moments (Debye-Ang^2)
       XXX       0.0001    XXY       0.0000    XYY       0.0000
       YYY       0.0000    XXZ       3.3641    XYZ      -0.0001
       YYZ       3.3641    XZZ       0.0000    YZZ       0.0000
       ZZZ       7.9424
    Hexadecapole Moments (Debye-Ang^3)
      XXXX     -22.5024   XXXY       0.0002   XXYY      -7.5008
      XYYY       0.0002   YYYY     -22.5024   XXXZ      -0.0001
      XXYZ       0.0000   XYYZ       0.0000   YYYZ      -0.0001
      XXZZ     -14.4071   XYZZ       0.0001   YYZZ     -14.4071
      XZZZ      -0.0001   YZZZ      -0.0001   ZZZZ     -55.1910
 -----------------------------------------------------------------
 Total job time:  19.30s(wall), 17.51s(cpu) 
 Mon Jun  3 14:51:39 2013

        *************************************************************
        *                                                           *
        *  Thank you very much for using Q-Chem.  Have a nice day.  *
        *                                                           *
        *************************************************************


0 sent ACK to 0 
now end server 0 ... 
