Process 0 of 1 is on cl029.stfx.acenet.ca - thread support 1
initial socket setup ...start
initial socket setup ...done 
now start server 0 ... 

cmd = /usr/bin/ssh clhead /usr/local/qchem/bin/get_hostid 1585013888 > /scratch/tmp/5955721.1.short.q/qchem30845/lic.dat
                  Welcome to Q-Chem
     A Quantum Leap Into The Future Of Chemistry

 Y. Shao, L. Fusti-Molnar, Y. Jung, J. Kussmann, C. Ochsenfeld,
 S. T. Brown, A. T. B. Gilbert, L. V. Slipchenko,S. V. Levchenko,
 D. P. O'Neill, R. A. DiStasio Jr., R. C. Lochan, T. Wang,
 G. J. O. Beran, N. A. Besley, J. M. Herbert, C. Y. Lin,
 T. Van Voorhis, S. H. Chien, A. Sodt, R. P. Steele, 
 V. A. Rassolov, P. E. Maslen, P. P. Korambath, R. D. Adamson,
 B. Austin, J. Baker, E. F. C. Byrd, H. Dachsel, R. J. Doerksen,
 A. Dreuw, B. D. Dunietz, A. D. Dutoi, T. R. Furlani,
 S. R. Gwaltney, A. Heyden, S. Hirata, C.-P. Hsu, G. Kedziora,
 R. Z. Khaliullin, P. Klunzinger, A. M. Lee, M. S. Lee, W. Liang,
 I. Lotan, N. Nair, B. Peters, E. I. Proynov, P. A. Pieniazek, 
 Y. M. Rhee, J. Ritchie, E. Rosta, C. D. Sherrill, 
 A. C. Simmonett, J. E. Subotnik, H. L. Woodcock III,
 W. Zhang, A. T. Bell, A. K. Chakraborty, D. M. Chipman,
 F. J. Keil, A. Warshel, W. J. Hehre, H. F. Schaefer III,
 J. Kong, A. I. Krylov, P. M. W. Gill, M. Head-Gordon,
 Q-Chem, Version 3.1, Q-Chem, Inc., Pittsburgh, PA (2007).

 Additional authors for Version 3.1: 
 Z. Gan, Y. Zhao, N. E. Schultz, D. Truhlar, E. Epifanovsky and M. Oana.

 Additional authors for Version 3.2: 
 R. Baer, B. R. Brooks, D. Casanova, J.-D. Chai, C.-L. Cheng, 
 C. Cramer, D. Crittenden, A. Ghysels, G. Hawkins, E. G. Hohenstein, 
 C. Kelley, W. Kurlancheek, D. Liotard, E. Livshits, P. Manohar, 
 A. Marenich, D. Neuhauser, R. Olson, M. A. Rohrdanz, K. S. Thanthiriwatte, 
 A. J. W. Thom, V. Vanovschi, C. F. Williams, Q. Wu and Z.-Q. You. 


 Intel X86 Linux Version

 Q-chem begins on Tue Apr 30 21:15:34 2013  

 Parallel job on  1  processors
Processing $rem in /usr/local/qchem/config/preferences.

theFileMan(): MAXOPENFILES=974 MAX_SUB_FILE_NUM=16
Maximum size of a physical file is 2.0 GB, maximum size of a tmp-file is 32.0 GB


--------------------------------------------------------------
User input:
--------------------------------------------------------------

$molecule
-1,2
F
F,1,FF

FF=1.40325215

$end

$comment
negative
$end

$xc_functional
C PBE   1.00
X wPBE  1.00
$end

$rem
SYMMETRY_DECOMPOSITION	0
exchange 		general
LRC_DFT                 true
BASIS                   g3large
omega			660
mem_static              760
max_scf_cycles          200
scf_final_print         1
sym_ignore              true
$end

--------------------------------------------------------------
 Writing REM_CC_EA            2
 ----------------------------------------------------
       Standard Nuclear Orientation (Angstroms)
    I     Atom         X            Y            Z
 ----------------------------------------------------
    1      F       0.000000     0.000000     0.000000
    2      F       0.000000     0.000000     1.403252
 ----------------------------------------------------
 Nuclear Repulsion Energy =    30.5457248541 hartrees
 There are       10 alpha and        9 beta electrons
 Requested basis set is G3large
 There are 20 shells and 84 basis functions

Total QAlloc Memory Limit   2000 MB
Mega-Array Size       743 MB
MEM_STATIC part       760 MB

                       Distance Matrix (Angstroms)
             F (  1)
   F (  2)  1.403252
 
 A cutoff of  1.0D-08 yielded    202 shell pairs
 There are   3646 function pairs (  4791 Cartesian)
Evaluating contribution to one-electron hamiltonian from nuclear
 Smallest overlap matrix eigenvalue = 3.28E-03
 Multipole matrices computed through 2nd order

  Scale SEOQF with 1.000000e+00/1.000000e+00/1.000000e-01

 Standard Electronic Orientation quadrupole field applied
 Nucleus-field energy     =    -0.0000000019 hartrees
 Guess from superposition of atomic densities
 Warning:  Energy on first SCF cycle will be non-variational
 Long-range K will be added via erf
 Coulomb attenuation parameter = 0.66 bohr**(-1)
 An unrestricted Kohn-Sham SCF calculation will be
 performed using Pulay DIIS extrapolation
 Exchange:  wPBE + LR-HF      Correlation:  PBE
 Using SG-1 standard quadrature grid
 SCF converges when DIIS error is below 1.0E-05
 Requested basis set is G3large
 There are 20 shells and 84 basis functions
 A cutoff of  1.0D-08 yielded    202 shell pairs
 There are   3646 function pairs (  4791 Cartesian)
 Warning!  Inaccurate integrated density:
   Number of electrons =    19
   Numerical integral  =    17.999963435575
   Relative error      =    -5.2633503391 %
 ---------------------------------------
  Cycle       Energy         DIIS Error
 ---------------------------------------
    1    -199.4767350230      2.95E-02
    2    -199.4315230242      1.04E-02
    3    -199.4831526265      7.14E-03
    4    -199.5048398393      6.34E-04
    5    -199.5051400337      1.67E-04
    6    -199.5051938007      4.12E-05
    7    -199.5052034025      1.36E-05
    8    -199.5052051886      3.66E-06 Convergence criterion met
 ---------------------------------------
 One-Electron    Energy =  -346.7594358349
 Total Coulomb   Energy =   137.8448070430
 Alpha Exchange  Energy =    -3.1587001075
 Beta  Exchange  Energy =    -2.8094352380
 DFT   Exchange  Energy =   -14.5210030803
 DFT Correlation Energy =    -0.6471628231
 Nuclear Repu.   Energy =    30.5457248522
 Nuclear Attr.   Energy =  -546.7559793618
 Kinetic         Energy =   199.9965435270
 <S^2> = 0.7528
 SCF time:  CPU 8.24 s  wall 9.61 s
 Final Alpha MO Eigenvalues
            1           2           3           4           5           6
    1 -24.2361884 -24.2361013  -1.1821271  -0.9402012  -0.4423954  -0.3409469
            7           8           9          10          11          12
    1  -0.3409430  -0.1961631  -0.1961583  -0.0502155   0.4654201   0.4767409
           13          14          15
    1   0.5269659   0.5269696   0.5826334
 Final Beta MO Eigenvalues
            1           2           3           4           5           6
    1 -24.2187480 -24.2186507  -1.1362832  -0.8930025  -0.3232693  -0.3232661
            7           8           9          10          11          12
    1  -0.3123242  -0.1751564  -0.1751531   0.4026206   0.4727829   0.5298245
           13          14
    1   0.5298263   0.5680200
 Analysis of SCF Wavefunction
 
 --------------------------------------------------------------
                    Orbital Energies (a.u.)
 --------------------------------------------------------------
 
 Alpha MOs
 -- Occupied --
-24.236 -24.236  -1.182  -0.940  -0.442  -0.341  -0.341  -0.196
 -0.196  -0.050
 -- Virtual --
  0.465   0.477   0.527   0.527   0.583   0.583   0.610   0.768
  1.668   1.689   1.689   1.799   1.810   1.810   2.087   2.220
  2.220   2.377   2.396   2.396   2.618   2.618   2.638   3.104
  3.104   3.935   6.148   6.529   6.529   6.692   6.700   6.700
  6.834   6.834   6.991   6.991   7.162   7.162   7.196   7.196
  7.240   7.320   7.320   7.792   7.792   8.426   9.475   9.475
  9.517   9.517   9.652   9.652  10.010  10.083  10.083  11.043
 50.564  50.566  50.566  50.609  50.619  50.664  50.721  50.792
 50.792  50.994  56.056  56.056  56.058  56.100  56.100  56.475
 67.005  67.118
 
 Beta MOs
 -- Occupied --
-24.219 -24.219  -1.136  -0.893  -0.323  -0.323  -0.312  -0.175
 -0.175
 -- Virtual --
  0.403   0.473   0.530   0.530   0.568   0.587   0.587   0.616
  0.769   1.696   1.696   1.709   1.822   1.822   1.830   2.116
  2.240   2.240   2.401   2.401   2.401   2.623   2.623   2.682
  3.136   3.136   3.973   6.204   6.555   6.555   6.718   6.718
  6.749   6.857   6.857   7.015   7.015   7.170   7.170   7.204
  7.204   7.285   7.349   7.349   7.839   7.839   8.494   9.537
  9.537   9.540   9.540   9.670   9.670  10.089  10.138  10.138
 11.111  50.571  50.611  50.611  50.616  50.626  50.671  50.778
 50.836  50.836  51.051  56.068  56.068  56.103  56.111  56.111
 56.520  67.024  67.137
 --------------------------------------------------------------
 
          Ground-State Mulliken Net Atomic Charges

     Atom                 Charge (a.u.)    Spin (a.u.)
  --------------------------------------------------------
      1 F                    -0.500002       0.499999
      2 F                    -0.499998       0.500001
  --------------------------------------------------------
  Sum of atomic charges =    -1.000000
  Sum of spin   charges =     1.000000

 -----------------------------------------------------------------
                    Cartesian Multipole Moments
 -----------------------------------------------------------------
    Charge (ESU x 10^10)
                -4.8032
    Dipole Moment (Debye)
         X       0.0000      Y       0.0000      Z      -3.3700
       Tot       3.3700
    Quadrupole Moments (Debye-Ang)
        XX     -11.7422     XY       0.0001     YY     -11.7422
        XZ       0.0001     YZ       0.0001     ZZ     -18.2817
    Octapole Moments (Debye-Ang^2)
       XXX       0.0000    XXY       0.0000    XYY       0.0000
       YYY       0.0000    XXZ      -8.2386    XYZ       0.0001
       YYZ      -8.2386    XZZ       0.0002    YZZ       0.0002
       ZZZ     -35.1628
    Hexadecapole Moments (Debye-Ang^3)
      XXXX      -9.2464   XXXY       0.0001   XXYY      -3.0821
      XYYY       0.0001   YYYY      -9.2464   XXXZ       0.0002
      XXYZ       0.0001   XYYZ       0.0001   YYYZ       0.0002
      XXZZ     -15.7334   XYZZ       0.0001   YYZZ     -15.7334
      XZZZ       0.0006   YZZZ       0.0006   ZZZZ     -99.4121
 -----------------------------------------------------------------
 Total job time:  9.73s(wall), 8.33s(cpu) 
 Tue Apr 30 21:15:44 2013

        *************************************************************
        *                                                           *
        *  Thank you very much for using Q-Chem.  Have a nice day.  *
        *                                                           *
        *************************************************************


0 sent ACK to 0 
now end server 0 ... 
 
**********************************************************************
Job 2 of 3 
**********************************************************************
 
Process 0 of 1 is on cl029.stfx.acenet.ca - thread support 1
initial socket setup ...start
initial socket setup ...done 
now start server 0 ... 

cmd = /usr/bin/ssh clhead /usr/local/qchem/bin/get_hostid 1163133509 > /scratch/tmp/5955721.1.short.q/qchem30845/lic.dat
                  Welcome to Q-Chem
     A Quantum Leap Into The Future Of Chemistry

 Y. Shao, L. Fusti-Molnar, Y. Jung, J. Kussmann, C. Ochsenfeld,
 S. T. Brown, A. T. B. Gilbert, L. V. Slipchenko,S. V. Levchenko,
 D. P. O'Neill, R. A. DiStasio Jr., R. C. Lochan, T. Wang,
 G. J. O. Beran, N. A. Besley, J. M. Herbert, C. Y. Lin,
 T. Van Voorhis, S. H. Chien, A. Sodt, R. P. Steele, 
 V. A. Rassolov, P. E. Maslen, P. P. Korambath, R. D. Adamson,
 B. Austin, J. Baker, E. F. C. Byrd, H. Dachsel, R. J. Doerksen,
 A. Dreuw, B. D. Dunietz, A. D. Dutoi, T. R. Furlani,
 S. R. Gwaltney, A. Heyden, S. Hirata, C.-P. Hsu, G. Kedziora,
 R. Z. Khaliullin, P. Klunzinger, A. M. Lee, M. S. Lee, W. Liang,
 I. Lotan, N. Nair, B. Peters, E. I. Proynov, P. A. Pieniazek, 
 Y. M. Rhee, J. Ritchie, E. Rosta, C. D. Sherrill, 
 A. C. Simmonett, J. E. Subotnik, H. L. Woodcock III,
 W. Zhang, A. T. Bell, A. K. Chakraborty, D. M. Chipman,
 F. J. Keil, A. Warshel, W. J. Hehre, H. F. Schaefer III,
 J. Kong, A. I. Krylov, P. M. W. Gill, M. Head-Gordon,
 Q-Chem, Version 3.1, Q-Chem, Inc., Pittsburgh, PA (2007).

 Additional authors for Version 3.1: 
 Z. Gan, Y. Zhao, N. E. Schultz, D. Truhlar, E. Epifanovsky and M. Oana.

 Additional authors for Version 3.2: 
 R. Baer, B. R. Brooks, D. Casanova, J.-D. Chai, C.-L. Cheng, 
 C. Cramer, D. Crittenden, A. Ghysels, G. Hawkins, E. G. Hohenstein, 
 C. Kelley, W. Kurlancheek, D. Liotard, E. Livshits, P. Manohar, 
 A. Marenich, D. Neuhauser, R. Olson, M. A. Rohrdanz, K. S. Thanthiriwatte, 
 A. J. W. Thom, V. Vanovschi, C. F. Williams, Q. Wu and Z.-Q. You. 


 Intel X86 Linux Version

 Q-chem begins on Tue Apr 30 21:15:46 2013  

 Parallel job on  1  processors
Processing $rem in /usr/local/qchem/config/preferences.

theFileMan(): MAXOPENFILES=974 MAX_SUB_FILE_NUM=16
Maximum size of a physical file is 2.0 GB, maximum size of a tmp-file is 32.0 GB


--------------------------------------------------------------
User input:
--------------------------------------------------------------

$molecule
0,1
F
F,1,FF

FF=1.40325215

$end

$comment
neutral
$end

$xc_functional
C PBE   1.00
X wPBE  1.00
$end


$rem
SYMMETRY_DECOMPOSITION	0
LRC_DFT                 true
exchange 		general
BASIS                   g3large
omega			660
mem_static              760
max_scf_cycles          200
scf_final_print         1
sym_ignore              true
$end

--------------------------------------------------------------
 Writing REM_CC_EA            2
 ----------------------------------------------------
       Standard Nuclear Orientation (Angstroms)
    I     Atom         X            Y            Z
 ----------------------------------------------------
    1      F       0.000000     0.000000     0.000000
    2      F       0.000000     0.000000     1.403252
 ----------------------------------------------------
 Nuclear Repulsion Energy =    30.5457248541 hartrees
 There are        9 alpha and        9 beta electrons
 Requested basis set is G3large
 There are 20 shells and 84 basis functions

Total QAlloc Memory Limit   2000 MB
Mega-Array Size       743 MB
MEM_STATIC part       760 MB

                       Distance Matrix (Angstroms)
             F (  1)
   F (  2)  1.403252
 
 A cutoff of  1.0D-08 yielded    202 shell pairs
 There are   3646 function pairs (  4791 Cartesian)
Evaluating contribution to one-electron hamiltonian from nuclear
 Smallest overlap matrix eigenvalue = 3.28E-03
 Multipole matrices computed through 2nd order

  Scale SEOQF with 1.000000e+00/1.000000e+00/1.000000e-01

 Standard Electronic Orientation quadrupole field applied
 Nucleus-field energy     =    -0.0000000019 hartrees
 Guess from superposition of atomic densities
 Warning:  Energy on first SCF cycle will be non-variational
 Long-range K will be added via erf
 Coulomb attenuation parameter = 0.66 bohr**(-1)
 A restricted Kohn-Sham SCF calculation will be
 performed using Pulay DIIS extrapolation
 Exchange:  wPBE + LR-HF      Correlation:  PBE
 Using SG-1 standard quadrature grid
 SCF converges when DIIS error is below 1.0E-05
 Requested basis set is G3large
 There are 20 shells and 84 basis functions
 A cutoff of  1.0D-08 yielded    202 shell pairs
 There are   3646 function pairs (  4791 Cartesian)
 ---------------------------------------
  Cycle       Energy         DIIS Error
 ---------------------------------------
    1    -199.4767350230      2.95E-02
    2    -199.4511301191      7.33E-03
    3    -199.4725407600      2.99E-03
    4    -199.4755290365      4.17E-04
    5    -199.4756841127      1.70E-04
    6    -199.4757236902      5.63E-05
    7    -199.4757354471      1.39E-05
    8    -199.4757362578      1.67E-06 Convergence criterion met
 ---------------------------------------
 One-Electron    Energy =  -338.9355391832
 Total Coulomb   Energy =   129.5791618442
 Alpha Exchange  Energy =    -2.8571779146
 Beta  Exchange  Energy =    -2.8571779146
 DFT   Exchange  Energy =   -14.3363502001
 DFT Correlation Energy =    -0.6143777418
 Nuclear Repu.   Energy =    30.5457248522
 Nuclear Attr.   Energy =  -537.9339011329
 Kinetic         Energy =   198.9983619498
 SCF time:  CPU 7.15 s  wall 8.49 s
 Final Alpha MO Eigenvalues
            1           2           3           4           5           6
    1 -24.7203369 -24.7202144  -1.6075533  -1.3381787  -0.7792552  -0.7553696
            7           8           9          10          11          12
    1  -0.7553684  -0.6126720  -0.6126706  -0.0130248   0.2170090   0.2516185
           13          14
    1   0.2756390   0.2756398
 Analysis of SCF Wavefunction
 
 --------------------------------------------------------------
                    Orbital Energies (a.u.)
 --------------------------------------------------------------
 
 Alpha MOs
 -- Occupied --
-24.720 -24.720  -1.608  -1.338  -0.779  -0.755  -0.755  -0.613
 -0.613
 -- Virtual --
 -0.013   0.217   0.252   0.276   0.276   0.349   0.349   0.354
  0.520   1.325   1.325   1.352   1.461   1.469   1.469   1.716
  1.823   1.823   2.006   2.007   2.015   2.231   2.231   2.232
  2.717   2.717   3.556   5.715   6.097   6.097   6.274   6.275
  6.275   6.415   6.415   6.572   6.572   6.752   6.752   6.786
  6.786   6.823   6.901   6.901   7.361   7.361   7.981   9.043
  9.043   9.085   9.085   9.222   9.222   9.582   9.658   9.658
 10.622  50.090  50.097  50.097  50.135  50.145  50.190  50.254
 50.323  50.323  50.531  55.579  55.579  55.583  55.622  55.622
 55.998  66.524  66.637
 --------------------------------------------------------------
 
          Ground-State Mulliken Net Atomic Charges

     Atom                 Charge (a.u.)
  ----------------------------------------
      1 F                     0.000017
      2 F                    -0.000017
  ----------------------------------------
  Sum of atomic charges =     0.000000

 -----------------------------------------------------------------
                    Cartesian Multipole Moments
 -----------------------------------------------------------------
    Charge (ESU x 10^10)
                 0.0000
    Dipole Moment (Debye)
         X       0.0000      Y       0.0000      Z      -0.0001
       Tot       0.0001
    Quadrupole Moments (Debye-Ang)
        XX      -9.6365     XY       0.0000     YY      -9.6365
        XZ       0.0000     YZ       0.0000     ZZ      -8.8804
    Octapole Moments (Debye-Ang^2)
       XXX       0.0000    XXY       0.0000    XYY       0.0000
       YYY       0.0000    XXZ      -6.7612    XYZ       0.0000
       YYZ      -6.7612    XZZ       0.0000    YZZ       0.0000
       ZZZ     -18.6921
    Hexadecapole Moments (Debye-Ang^3)
      XXXX      -5.7590   XXXY       0.0000   XXYY      -1.9197
      XYYY       0.0000   YYYY      -5.7590   XXXZ       0.0000
      XXYZ       0.0000   XYYZ       0.0000   YYYZ       0.0000
      XXZZ     -11.4122   XYZZ       0.0000   YYZZ     -11.4122
      XZZZ       0.0000   YZZZ       0.0000   ZZZZ     -55.7624
 -----------------------------------------------------------------
 Total job time:  8.60s(wall), 7.24s(cpu) 
 Tue Apr 30 21:15:55 2013

        *************************************************************
        *                                                           *
        *  Thank you very much for using Q-Chem.  Have a nice day.  *
        *                                                           *
        *************************************************************


0 sent ACK to 0 
now end server 0 ... 
 
**********************************************************************
Job 3 of 3 
**********************************************************************
 
Process 0 of 1 is on cl029.stfx.acenet.ca - thread support 1
initial socket setup ...start
initial socket setup ...done 
now start server 0 ... 

cmd = /usr/bin/ssh clhead /usr/local/qchem/bin/get_hostid 2105464715 > /scratch/tmp/5955721.1.short.q/qchem30845/lic.dat
                  Welcome to Q-Chem
     A Quantum Leap Into The Future Of Chemistry

 Y. Shao, L. Fusti-Molnar, Y. Jung, J. Kussmann, C. Ochsenfeld,
 S. T. Brown, A. T. B. Gilbert, L. V. Slipchenko,S. V. Levchenko,
 D. P. O'Neill, R. A. DiStasio Jr., R. C. Lochan, T. Wang,
 G. J. O. Beran, N. A. Besley, J. M. Herbert, C. Y. Lin,
 T. Van Voorhis, S. H. Chien, A. Sodt, R. P. Steele, 
 V. A. Rassolov, P. E. Maslen, P. P. Korambath, R. D. Adamson,
 B. Austin, J. Baker, E. F. C. Byrd, H. Dachsel, R. J. Doerksen,
 A. Dreuw, B. D. Dunietz, A. D. Dutoi, T. R. Furlani,
 S. R. Gwaltney, A. Heyden, S. Hirata, C.-P. Hsu, G. Kedziora,
 R. Z. Khaliullin, P. Klunzinger, A. M. Lee, M. S. Lee, W. Liang,
 I. Lotan, N. Nair, B. Peters, E. I. Proynov, P. A. Pieniazek, 
 Y. M. Rhee, J. Ritchie, E. Rosta, C. D. Sherrill, 
 A. C. Simmonett, J. E. Subotnik, H. L. Woodcock III,
 W. Zhang, A. T. Bell, A. K. Chakraborty, D. M. Chipman,
 F. J. Keil, A. Warshel, W. J. Hehre, H. F. Schaefer III,
 J. Kong, A. I. Krylov, P. M. W. Gill, M. Head-Gordon,
 Q-Chem, Version 3.1, Q-Chem, Inc., Pittsburgh, PA (2007).

 Additional authors for Version 3.1: 
 Z. Gan, Y. Zhao, N. E. Schultz, D. Truhlar, E. Epifanovsky and M. Oana.

 Additional authors for Version 3.2: 
 R. Baer, B. R. Brooks, D. Casanova, J.-D. Chai, C.-L. Cheng, 
 C. Cramer, D. Crittenden, A. Ghysels, G. Hawkins, E. G. Hohenstein, 
 C. Kelley, W. Kurlancheek, D. Liotard, E. Livshits, P. Manohar, 
 A. Marenich, D. Neuhauser, R. Olson, M. A. Rohrdanz, K. S. Thanthiriwatte, 
 A. J. W. Thom, V. Vanovschi, C. F. Williams, Q. Wu and Z.-Q. You. 


 Intel X86 Linux Version

 Q-chem begins on Tue Apr 30 21:15:57 2013  

 Parallel job on  1  processors
Processing $rem in /usr/local/qchem/config/preferences.

theFileMan(): MAXOPENFILES=974 MAX_SUB_FILE_NUM=16
Maximum size of a physical file is 2.0 GB, maximum size of a tmp-file is 32.0 GB


--------------------------------------------------------------
User input:
--------------------------------------------------------------

$molecule
1,2
F
F,1,FF

FF=1.40325215

$end

$comment
positive
$end

$xc_functional
C PBE   1.00
X wPBE  1.00
$end

$rem
SYMMETRY_DECOMPOSITION	0
LRC_DFT                 true
exchange 		general
BASIS                   g3large
omega			660
mem_static              760
max_scf_cycles          200
scf_final_print         1
sym_ignore              true
$end

--------------------------------------------------------------
 Writing REM_CC_EA            2
 ----------------------------------------------------
       Standard Nuclear Orientation (Angstroms)
    I     Atom         X            Y            Z
 ----------------------------------------------------
    1      F       0.000000     0.000000     0.000000
    2      F       0.000000     0.000000     1.403252
 ----------------------------------------------------
 Nuclear Repulsion Energy =    30.5457248541 hartrees
 There are        9 alpha and        8 beta electrons
 Requested basis set is G3large
 There are 20 shells and 84 basis functions

Total QAlloc Memory Limit   2000 MB
Mega-Array Size       743 MB
MEM_STATIC part       760 MB

                       Distance Matrix (Angstroms)
             F (  1)
   F (  2)  1.403252
 
 A cutoff of  1.0D-08 yielded    202 shell pairs
 There are   3646 function pairs (  4791 Cartesian)
Evaluating contribution to one-electron hamiltonian from nuclear
 Smallest overlap matrix eigenvalue = 3.28E-03
 Multipole matrices computed through 2nd order

  Scale SEOQF with 1.000000e+00/1.000000e+00/1.000000e-01

 Standard Electronic Orientation quadrupole field applied
 Nucleus-field energy     =    -0.0000000019 hartrees
 Guess from superposition of atomic densities
 Warning:  Energy on first SCF cycle will be non-variational
 Long-range K will be added via erf
 Coulomb attenuation parameter = 0.66 bohr**(-1)
 An unrestricted Kohn-Sham SCF calculation will be
 performed using Pulay DIIS extrapolation
 Exchange:  wPBE + LR-HF      Correlation:  PBE
 Using SG-1 standard quadrature grid
 SCF converges when DIIS error is below 1.0E-05
 Requested basis set is G3large
 There are 20 shells and 84 basis functions
 A cutoff of  1.0D-08 yielded    202 shell pairs
 There are   3646 function pairs (  4791 Cartesian)
 Warning!  Inaccurate integrated density:
   Number of electrons =    17
   Numerical integral  =    17.999963435575
   Relative error      =     5.8821378563 %
 ---------------------------------------
  Cycle       Energy         DIIS Error
 ---------------------------------------
    1    -199.4767350230      2.95E-02
    2    -198.7351736174      1.41E-02
    3    -198.8529056072      4.91E-03
    4    -198.8609627535      4.37E-04
    5    -198.8612693163      1.25E-04
    6    -198.8613212015      5.74E-05
    7    -198.8613401938      2.81E-05
    8    -198.8613484665      1.16E-05
    9    -198.8613525609      1.12E-05
   10    -198.8613545236      8.36E-06 Convergence criterion met
 ---------------------------------------
 One-Electron    Energy =  -330.0825405238
 Total Coulomb   Energy =   120.7819224800
 Alpha Exchange  Energy =    -2.8942950471
 Beta  Exchange  Energy =    -2.5101375637
 DFT   Exchange  Energy =   -14.1291359242
 DFT Correlation Energy =    -0.5728927970
 Nuclear Repu.   Energy =    30.5457248522
 Nuclear Attr.   Energy =  -528.3178193855
 Kinetic         Energy =   198.2352788617
 <S^2> = 0.7547
 SCF time:  CPU 10.27 s  wall 12.04 s
 Final Alpha MO Eigenvalues
            1           2           3           4           5           6
    1 -25.2750924 -25.2749657  -2.1098670  -1.8417071  -1.2834898  -1.2606137
            7           8           9          10          11          12
    1  -1.2308670  -1.1557307  -1.0982668  -0.4974918  -0.0604790   0.0009685
           13          14
    1   0.0013948   0.0100036
 Final Beta MO Eigenvalues
            1           2           3           4           5           6
    1 -25.2586317 -25.2583432  -2.0710918  -1.7823989  -1.2420752  -1.2154477
            7           8           9          10          11          12
    1  -1.1032905  -1.0795715  -0.6181562  -0.4739244  -0.0588732   0.0030269
           13
    1   0.0107667
 Analysis of SCF Wavefunction
 
 --------------------------------------------------------------
                    Orbital Energies (a.u.)
 --------------------------------------------------------------
 
 Alpha MOs
 -- Occupied --
-25.275 -25.275  -2.110  -1.842  -1.283  -1.261  -1.231  -1.156
 -1.098
 -- Virtual --
 -0.497  -0.060   0.001   0.001   0.010   0.089   0.099   0.105
  0.260   0.902   0.930   0.996   1.073   1.088   1.098   1.296
  1.376   1.401   1.554   1.554   1.600   1.765   1.777   1.778
  2.250   2.281   3.123   5.234   5.583   5.620   5.740   5.776
  5.789   5.895   5.939   6.081   6.083   6.253   6.253   6.286
  6.286   6.337   6.410   6.411   6.853   6.889   7.482   8.495
  8.541   8.542   8.542   8.681   8.681   9.068   9.118   9.163
 10.125  49.521  49.526  49.561  49.563  49.576  49.620  49.709
 49.753  49.787  49.985  55.005  55.037  55.039  55.049  55.081
 55.452  65.973  66.087
 
 Beta MOs
 -- Occupied --
-25.259 -25.258  -2.071  -1.782  -1.242  -1.215  -1.103  -1.080
 -- Virtual --
 -0.618  -0.474  -0.059   0.003   0.011   0.011   0.089   0.106
  0.107   0.263   0.935   0.944   1.003   1.095   1.105   1.112
  1.312   1.403   1.406   1.583   1.584   1.621   1.782   1.816
  1.817   2.286   2.290   3.138   5.246   5.630   5.637   5.798
  5.805   5.816   5.951   5.951   6.110   6.112   6.294   6.294
  6.328   6.328   6.359   6.439   6.441   6.893   6.895   7.502
  8.554   8.565   8.607   8.612   8.745   8.750   9.095   9.175
  9.184  10.147  49.565  49.569  49.576  49.616  49.624  49.671
 49.725  49.792  49.802  50.003  55.048  55.049  55.052  55.091
 55.095  55.463  65.990  66.104
 --------------------------------------------------------------
 
          Ground-State Mulliken Net Atomic Charges

     Atom                 Charge (a.u.)    Spin (a.u.)
  --------------------------------------------------------
      1 F                     0.500011       0.500022
      2 F                     0.499989       0.499978
  --------------------------------------------------------
  Sum of atomic charges =     1.000000
  Sum of spin   charges =     1.000000

 -----------------------------------------------------------------
                    Cartesian Multipole Moments
 -----------------------------------------------------------------
    Charge (ESU x 10^10)
                 4.8032
    Dipole Moment (Debye)
         X       0.0000      Y       0.0000      Z       3.3700
       Tot       3.3700
    Quadrupole Moments (Debye-Ang)
        XX      -7.9575     XY       0.3046     YY      -7.9576
        XZ       0.0100     YZ       0.0100     ZZ      -2.1574
    Octapole Moments (Debye-Ang^2)
       XXX       0.0000    XXY       0.0000    XYY       0.0000
       YYY       0.0000    XXZ      -5.5832    XYZ       0.2137
       YYZ      -5.5832    XZZ       0.0140    YZZ       0.0140
       ZZZ      -7.8591
    Hexadecapole Moments (Debye-Ang^3)
      XXXX      -3.9829   XXXY       0.1044   XXYY      -1.3276
      XYYY       0.1044   YYYY      -3.9829   XXXZ       0.0042
      XXYZ       0.0014   XYYZ       0.0014   YYYZ       0.0042
      XXZZ      -9.0026   XYZZ       0.3787   YYZZ      -9.0026
      XZZZ       0.0334   YZZZ       0.0334   ZZZZ     -34.4800
 -----------------------------------------------------------------
 Total job time:  12.14s(wall), 10.36s(cpu) 
 Tue Apr 30 21:16:10 2013

        *************************************************************
        *                                                           *
        *  Thank you very much for using Q-Chem.  Have a nice day.  *
        *                                                           *
        *************************************************************


0 sent ACK to 0 
now end server 0 ... 
