Process 0 of 1 is on cl189.stfx.acenet.ca - thread support 1
initial socket setup ...start
initial socket setup ...done 
now start server 0 ... 

cmd = /usr/bin/ssh clhead /usr/local/qchem/bin/get_hostid 1323132959 > /scratch/tmp/6021901.1.medium.q/qchem11452/lic.dat
                  Welcome to Q-Chem
     A Quantum Leap Into The Future Of Chemistry

 Y. Shao, L. Fusti-Molnar, Y. Jung, J. Kussmann, C. Ochsenfeld,
 S. T. Brown, A. T. B. Gilbert, L. V. Slipchenko,S. V. Levchenko,
 D. P. O'Neill, R. A. DiStasio Jr., R. C. Lochan, T. Wang,
 G. J. O. Beran, N. A. Besley, J. M. Herbert, C. Y. Lin,
 T. Van Voorhis, S. H. Chien, A. Sodt, R. P. Steele, 
 V. A. Rassolov, P. E. Maslen, P. P. Korambath, R. D. Adamson,
 B. Austin, J. Baker, E. F. C. Byrd, H. Dachsel, R. J. Doerksen,
 A. Dreuw, B. D. Dunietz, A. D. Dutoi, T. R. Furlani,
 S. R. Gwaltney, A. Heyden, S. Hirata, C.-P. Hsu, G. Kedziora,
 R. Z. Khaliullin, P. Klunzinger, A. M. Lee, M. S. Lee, W. Liang,
 I. Lotan, N. Nair, B. Peters, E. I. Proynov, P. A. Pieniazek, 
 Y. M. Rhee, J. Ritchie, E. Rosta, C. D. Sherrill, 
 A. C. Simmonett, J. E. Subotnik, H. L. Woodcock III,
 W. Zhang, A. T. Bell, A. K. Chakraborty, D. M. Chipman,
 F. J. Keil, A. Warshel, W. J. Hehre, H. F. Schaefer III,
 J. Kong, A. I. Krylov, P. M. W. Gill, M. Head-Gordon,
 Q-Chem, Version 3.1, Q-Chem, Inc., Pittsburgh, PA (2007).

 Additional authors for Version 3.1: 
 Z. Gan, Y. Zhao, N. E. Schultz, D. Truhlar, E. Epifanovsky and M. Oana.

 Additional authors for Version 3.2: 
 R. Baer, B. R. Brooks, D. Casanova, J.-D. Chai, C.-L. Cheng, 
 C. Cramer, D. Crittenden, A. Ghysels, G. Hawkins, E. G. Hohenstein, 
 C. Kelley, W. Kurlancheek, D. Liotard, E. Livshits, P. Manohar, 
 A. Marenich, D. Neuhauser, R. Olson, M. A. Rohrdanz, K. S. Thanthiriwatte, 
 A. J. W. Thom, V. Vanovschi, C. F. Williams, Q. Wu and Z.-Q. You. 


 Intel X86 Linux Version

 Q-chem begins on Wed May 29 17:01:50 2013  

 Parallel job on  1  processors
Processing $rem in /usr/local/qchem/config/preferences.

theFileMan(): MAXOPENFILES=974 MAX_SUB_FILE_NUM=16
Maximum size of a physical file is 2.0 GB, maximum size of a tmp-file is 32.0 GB


--------------------------------------------------------------
User input:
--------------------------------------------------------------

$molecule
-1,2
Li         0.00000        0.00000       -0.00898
F          0.00000        0.00000        1.56069
$end

$comment
negative
$end

$xc_functional
C PBE   1.00
X wPBE  1.00
$end

$rem
SYMMETRY_DECOMPOSITION	0
exchange 		general
LRC_DFT                 true
BASIS                   g3large
omega			540
mem_static              760
max_scf_cycles          200
scf_final_print         1
sym_ignore              true
$end

--------------------------------------------------------------
 Writing REM_CC_EA            2
 ----------------------------------------------------
       Standard Nuclear Orientation (Angstroms)
    I     Atom         X            Y            Z
 ----------------------------------------------------
    1      Li      0.000000     0.000000    -0.008980
    2      F       0.000000     0.000000     1.560690
 ----------------------------------------------------
 Nuclear Repulsion Energy =     9.1024130496 hartrees
 There are        7 alpha and        6 beta electrons
 Requested basis set is G3large
 There are 20 shells and 84 basis functions

Total QAlloc Memory Limit   2000 MB
Mega-Array Size       743 MB
MEM_STATIC part       760 MB

                       Distance Matrix (Angstroms)
             Li(  1)
   F (  2)  1.569670
 
 A cutoff of  1.0D-08 yielded    205 shell pairs
 There are   3657 function pairs (  4803 Cartesian)
Evaluating contribution to one-electron hamiltonian from nuclear
 Smallest overlap matrix eigenvalue = 2.10E-03
 Multipole matrices computed through 2nd order

  Scale SEOQF with 1.000000e-02/1.000000e-02/1.000000e-02

 Standard Electronic Orientation quadrupole field applied
 Nucleus-field energy     =    -0.0000000002 hartrees
 Guess from superposition of atomic densities
 Warning:  Energy on first SCF cycle will be non-variational
 Long-range K will be added via erf
 Coulomb attenuation parameter = 0.54 bohr**(-1)
 An unrestricted Kohn-Sham SCF calculation will be
 performed using Pulay DIIS extrapolation
 Exchange:  wPBE + LR-HF      Correlation:  PBE
 Using SG-1 standard quadrature grid
 SCF converges when DIIS error is below 1.0E-05
 Requested basis set is G3large
 There are 20 shells and 84 basis functions
 A cutoff of  1.0D-08 yielded    205 shell pairs
 There are   3657 function pairs (  4803 Cartesian)
 Warning!  Inaccurate integrated density:
   Number of electrons =    13
   Numerical integral  =    12.013154537662
   Relative error      =    -7.5911189411 %
 ---------------------------------------
  Cycle       Energy         DIIS Error
 ---------------------------------------
    1    -106.9659222925      1.07E-02
    2    -107.2970863647      1.35E-02
    3    -107.4004050445      3.38E-03
    4    -107.4133567922      1.26E-03
    5    -107.4147751499      1.54E-04
    6    -107.4152243157      7.07E-05
    7    -107.4154194673      3.75E-05
    8    -107.4155028003      1.78E-05
    9    -107.4155246351      8.36E-06 Convergence criterion met
 ---------------------------------------
 One-Electron    Energy =  -170.9749253530
 Total Coulomb   Energy =    66.9264683547
 Alpha Exchange  Energy =    -1.6855434212
 Beta  Exchange  Energy =    -1.6085438865
 DFT   Exchange  Energy =    -8.7917147632
 DFT Correlation Energy =    -0.3836786153
 Nuclear Repu.   Energy =     9.1024130494
 Nuclear Attr.   Energy =  -278.1179296967
 Kinetic         Energy =   107.1430043437
 <S^2> = 0.7500
 SCF time:  CPU 9.71 s  wall 11.25 s
 Final Alpha MO Eigenvalues
            1           2           3           4           5           6
    1 -24.2274956  -1.9559425  -1.0400357  -0.3168947  -0.3014762  -0.3014722
            7           8           9          10          11          12
    1  -0.0193537   0.0844478   0.0844495   0.0883687   0.1067158   0.1610622
 Final Beta MO Eigenvalues
            1           2           3           4           5           6
    1 -24.2275260  -1.9544193  -1.0400679  -0.3167347  -0.3016670  -0.3016585
            7           8           9          10          11
    1   0.0905883   0.0916068   0.0916104   0.1041024   0.1533450
 Analysis of SCF Wavefunction
 
 --------------------------------------------------------------
                    Orbital Energies (a.u.)
 --------------------------------------------------------------
 
 Alpha MOs
 -- Occupied --
-24.227  -1.956  -1.040  -0.317  -0.301  -0.301  -0.019
 -- Virtual --
  0.084   0.084   0.088   0.107   0.161   0.161   0.181   0.274
  0.305   0.305   0.337   0.429   0.429   0.484   0.486   0.486
  0.540   0.562   0.562   0.707   0.723   0.723   0.761   0.761
  0.766   0.766   0.862   0.922   0.923   1.024   1.464   1.464
  1.469   1.469   1.600   1.782   1.782   1.825   2.402   2.503
  2.503   2.603   2.745   2.745   4.332   6.616   6.616   6.647
  7.062   7.066   7.066   7.069   7.069   7.070   7.107   7.217
  7.218   7.569   9.513   9.513   9.645   9.645   9.728  20.325
 20.369  21.484  21.502  21.502  50.478  50.524  50.559  50.577
 50.577  55.991  55.992  56.038  66.987
 
 Beta MOs
 -- Occupied --
-24.228  -1.954  -1.040  -0.317  -0.302  -0.302
 -- Virtual --
  0.091   0.092   0.092   0.104   0.153   0.177   0.177   0.197
  0.287   0.303   0.303   0.345   0.422   0.422   0.482   0.484
  0.484   0.535   0.559   0.559   0.707   0.721   0.721   0.750
  0.750   0.755   0.755   0.855   0.910   0.910   1.017   1.459
  1.459   1.465   1.465   1.597   1.781   1.781   1.823   2.402
  2.503   2.503   2.602   2.744   2.744   4.332   6.616   6.616
  6.647   7.062   7.066   7.066   7.069   7.069   7.070   7.107
  7.218   7.218   7.569   9.512   9.513   9.645   9.645   9.728
 20.327  20.371  21.484  21.502  21.502  50.478  50.524  50.559
 50.577  50.577  55.991  55.991  56.038  66.987
 --------------------------------------------------------------
 
          Ground-State Mulliken Net Atomic Charges

     Atom                 Charge (a.u.)    Spin (a.u.)
  --------------------------------------------------------
      1 Li                   -0.330050       1.008302
      2 F                    -0.669950      -0.008302
  --------------------------------------------------------
  Sum of atomic charges =    -1.000000
  Sum of spin   charges =     1.000000

 -----------------------------------------------------------------
                    Cartesian Multipole Moments
 -----------------------------------------------------------------
    Charge (ESU x 10^10)
                -4.8032
    Dipole Moment (Debye)
         X      -0.0115      Y      -0.0113      Z       2.7571
       Tot       2.7572
    Quadrupole Moments (Debye-Ang)
        XX     -30.5980     XY      -0.0004     YY     -30.5980
        XZ       0.0116     YZ       0.0112     ZZ     -50.3797
    Octapole Moments (Debye-Ang^2)
       XXX      -0.1027    XXY      -0.0325    XYY      -0.0342
       YYY      -0.0975    XXZ      37.6020    XYZ       0.0000
       YYZ      37.6020    XZZ      -0.0345    YZZ      -0.0327
       ZZZ     100.1172
    Hexadecapole Moments (Debye-Ang^3)
      XXXX    -467.4725   XXXY      -0.0012   XXYY    -155.8241
      XYYY      -0.0012   YYYY    -467.4724   XXXZ       0.0678
      XXYZ       0.0204   XYYZ       0.0226   YYYZ       0.0613
      XXZZ    -227.2528   XYZZ      -0.0005   YYZZ    -227.2527
      XZZZ       0.0680   YZZZ       0.0615   ZZZZ    -915.6620
 -----------------------------------------------------------------
 Total job time:  11.35s(wall), 9.80s(cpu) 
 Wed May 29 17:02:01 2013

        *************************************************************
        *                                                           *
        *  Thank you very much for using Q-Chem.  Have a nice day.  *
        *                                                           *
        *************************************************************


0 sent ACK to 0 
now end server 0 ... 
 
**********************************************************************
Job 2 of 3 
**********************************************************************
 
Process 0 of 1 is on cl189.stfx.acenet.ca - thread support 1
initial socket setup ...start
initial socket setup ...done 
now start server 0 ... 

cmd = /usr/bin/ssh clhead /usr/local/qchem/bin/get_hostid 1043366239 > /scratch/tmp/6021901.1.medium.q/qchem11452/lic.dat
                  Welcome to Q-Chem
     A Quantum Leap Into The Future Of Chemistry

 Y. Shao, L. Fusti-Molnar, Y. Jung, J. Kussmann, C. Ochsenfeld,
 S. T. Brown, A. T. B. Gilbert, L. V. Slipchenko,S. V. Levchenko,
 D. P. O'Neill, R. A. DiStasio Jr., R. C. Lochan, T. Wang,
 G. J. O. Beran, N. A. Besley, J. M. Herbert, C. Y. Lin,
 T. Van Voorhis, S. H. Chien, A. Sodt, R. P. Steele, 
 V. A. Rassolov, P. E. Maslen, P. P. Korambath, R. D. Adamson,
 B. Austin, J. Baker, E. F. C. Byrd, H. Dachsel, R. J. Doerksen,
 A. Dreuw, B. D. Dunietz, A. D. Dutoi, T. R. Furlani,
 S. R. Gwaltney, A. Heyden, S. Hirata, C.-P. Hsu, G. Kedziora,
 R. Z. Khaliullin, P. Klunzinger, A. M. Lee, M. S. Lee, W. Liang,
 I. Lotan, N. Nair, B. Peters, E. I. Proynov, P. A. Pieniazek, 
 Y. M. Rhee, J. Ritchie, E. Rosta, C. D. Sherrill, 
 A. C. Simmonett, J. E. Subotnik, H. L. Woodcock III,
 W. Zhang, A. T. Bell, A. K. Chakraborty, D. M. Chipman,
 F. J. Keil, A. Warshel, W. J. Hehre, H. F. Schaefer III,
 J. Kong, A. I. Krylov, P. M. W. Gill, M. Head-Gordon,
 Q-Chem, Version 3.1, Q-Chem, Inc., Pittsburgh, PA (2007).

 Additional authors for Version 3.1: 
 Z. Gan, Y. Zhao, N. E. Schultz, D. Truhlar, E. Epifanovsky and M. Oana.

 Additional authors for Version 3.2: 
 R. Baer, B. R. Brooks, D. Casanova, J.-D. Chai, C.-L. Cheng, 
 C. Cramer, D. Crittenden, A. Ghysels, G. Hawkins, E. G. Hohenstein, 
 C. Kelley, W. Kurlancheek, D. Liotard, E. Livshits, P. Manohar, 
 A. Marenich, D. Neuhauser, R. Olson, M. A. Rohrdanz, K. S. Thanthiriwatte, 
 A. J. W. Thom, V. Vanovschi, C. F. Williams, Q. Wu and Z.-Q. You. 


 Intel X86 Linux Version

 Q-chem begins on Wed May 29 17:02:04 2013  

 Parallel job on  1  processors
Processing $rem in /usr/local/qchem/config/preferences.

theFileMan(): MAXOPENFILES=974 MAX_SUB_FILE_NUM=16
Maximum size of a physical file is 2.0 GB, maximum size of a tmp-file is 32.0 GB


--------------------------------------------------------------
User input:
--------------------------------------------------------------

$molecule
0,1
Li         0.00000        0.00000       -0.00898
F          0.00000        0.00000        1.56069
$end

$comment
neutral
$end

$xc_functional
C PBE   1.00
X wPBE  1.00
$end


$rem
SYMMETRY_DECOMPOSITION	0
LRC_DFT                 true
exchange 		general
BASIS                   g3large
omega			540
mem_static              760
max_scf_cycles          200
scf_final_print         1
sym_ignore              true
$end

--------------------------------------------------------------
 Writing REM_CC_EA            2
 ----------------------------------------------------
       Standard Nuclear Orientation (Angstroms)
    I     Atom         X            Y            Z
 ----------------------------------------------------
    1      Li      0.000000     0.000000    -0.008980
    2      F       0.000000     0.000000     1.560690
 ----------------------------------------------------
 Nuclear Repulsion Energy =     9.1024130496 hartrees
 There are        6 alpha and        6 beta electrons
 Requested basis set is G3large
 There are 20 shells and 84 basis functions

Total QAlloc Memory Limit   2000 MB
Mega-Array Size       743 MB
MEM_STATIC part       760 MB

                       Distance Matrix (Angstroms)
             Li(  1)
   F (  2)  1.569670
 
 A cutoff of  1.0D-08 yielded    205 shell pairs
 There are   3657 function pairs (  4803 Cartesian)
Evaluating contribution to one-electron hamiltonian from nuclear
 Smallest overlap matrix eigenvalue = 2.10E-03
 Multipole matrices computed through 2nd order

  Scale SEOQF with 1.000000e-02/1.000000e-02/1.000000e-02

 Standard Electronic Orientation quadrupole field applied
 Nucleus-field energy     =    -0.0000000002 hartrees
 Guess from superposition of atomic densities
 Warning:  Energy on first SCF cycle will be non-variational
 Long-range K will be added via erf
 Coulomb attenuation parameter = 0.54 bohr**(-1)
 A restricted Kohn-Sham SCF calculation will be
 performed using Pulay DIIS extrapolation
 Exchange:  wPBE + LR-HF      Correlation:  PBE
 Using SG-1 standard quadrature grid
 SCF converges when DIIS error is below 1.0E-05
 Requested basis set is G3large
 There are 20 shells and 84 basis functions
 A cutoff of  1.0D-08 yielded    205 shell pairs
 There are   3657 function pairs (  4803 Cartesian)
 Warning!  Inaccurate integrated density:
   Number of electrons =    12
   Numerical integral  =    12.013154537662
   Relative error      =     0.1096211472 %
 ---------------------------------------
  Cycle       Energy         DIIS Error
 ---------------------------------------
    1    -106.9659222925      1.07E-02
    2    -107.2893504188      1.34E-02
    3    -107.3873677414      3.48E-03
    4    -107.3983605805      1.34E-03
    5    -107.3992745029      1.10E-04
    6    -107.3993147578      2.82E-05
    7    -107.3993175738      5.72E-06 Convergence criterion met
 ---------------------------------------
 One-Electron    Energy =  -169.2661616264
 Total Coulomb   Energy =    65.1442266297
 Alpha Exchange  Energy =    -1.6083350170
 Beta  Exchange  Energy =    -1.6083350170
 DFT   Exchange  Energy =    -8.7850519314
 DFT Correlation Energy =    -0.3780736610
 Nuclear Repu.   Energy =     9.1024130494
 Nuclear Attr.   Energy =  -276.3521811842
 Kinetic         Energy =   107.0860195578
 SCF time:  CPU 6.68 s  wall 6.92 s
 Final Alpha MO Eigenvalues
            1           2           3           4           5           6
    1 -24.3607962  -2.1380588  -1.1732590  -0.4498834  -0.4339187  -0.4339154
            7           8           9          10          11
    1  -0.0105277   0.0154915   0.0154919   0.0203833   0.0281202
 Analysis of SCF Wavefunction
 
 --------------------------------------------------------------
                    Orbital Energies (a.u.)
 --------------------------------------------------------------
 
 Alpha MOs
 -- Occupied --
-24.361  -2.138  -1.173  -0.450  -0.434  -0.434
 -- Virtual --
 -0.011   0.015   0.015   0.020   0.028   0.062   0.062   0.086
  0.140   0.171   0.171   0.212   0.290   0.290   0.344   0.344
  0.355   0.417   0.445   0.445   0.559   0.559   0.564   0.616
  0.616   0.618   0.618   0.708   0.773   0.773   0.858   1.293
  1.293   1.295   1.295   1.453   1.651   1.651   1.674   2.269
  2.371   2.371   2.459   2.607   2.607   4.161   6.484   6.484
  6.512   6.917   6.917   6.929   6.935   6.935   6.938   6.971
  7.055   7.055   7.392   9.380   9.380   9.512   9.512   9.594
 20.144  20.187  21.301  21.319  21.319  50.345  50.391  50.426
 50.444  50.444  55.858  55.858  55.905  66.854
 --------------------------------------------------------------
 
          Ground-State Mulliken Net Atomic Charges

     Atom                 Charge (a.u.)
  ----------------------------------------
      1 Li                    0.625344
      2 F                    -0.625344
  ----------------------------------------
  Sum of atomic charges =     0.000000

 -----------------------------------------------------------------
                    Cartesian Multipole Moments
 -----------------------------------------------------------------
    Charge (ESU x 10^10)
                 0.0000
    Dipole Moment (Debye)
         X       0.0000      Y       0.0000      Z      -6.3879
       Tot       6.3879
    Quadrupole Moments (Debye-Ang)
        XX      -7.2982     XY      -0.0001     YY      -7.2982
        XZ       0.0000     YZ       0.0000     ZZ     -15.8488
    Octapole Moments (Debye-Ang^2)
       XXX       0.0000    XXY       0.0000    XYY       0.0000
       YYY       0.0000    XXZ     -10.1402    XYZ       0.0000
       YYZ     -10.1402    XZZ       0.0000    YZZ       0.0000
       ZZZ     -42.2671
    Hexadecapole Moments (Debye-Ang^3)
      XXXX      -6.9750   XXXY      -0.0001   XXYY      -2.3250
      XYYY      -0.0001   YYYY      -6.9750   XXXZ       0.0000
      XXYZ       0.0000   XYYZ       0.0000   YYYZ       0.0000
      XXZZ     -17.3785   XYZZ      -0.0001   YYZZ     -17.3785
      XZZZ       0.0000   YZZZ       0.0000   ZZZZ    -114.7449
 -----------------------------------------------------------------
 Total job time:  7.00s(wall), 6.77s(cpu) 
 Wed May 29 17:02:11 2013

        *************************************************************
        *                                                           *
        *  Thank you very much for using Q-Chem.  Have a nice day.  *
        *                                                           *
        *************************************************************


0 sent ACK to 0 
now end server 0 ... 
 
**********************************************************************
Job 3 of 3 
**********************************************************************
 
Process 0 of 1 is on cl189.stfx.acenet.ca - thread support 1
initial socket setup ...start
initial socket setup ...done 
now start server 0 ... 

cmd = /usr/bin/ssh clhead /usr/local/qchem/bin/get_hostid 459891037 > /scratch/tmp/6021901.1.medium.q/qchem11452/lic.dat
                  Welcome to Q-Chem
     A Quantum Leap Into The Future Of Chemistry

 Y. Shao, L. Fusti-Molnar, Y. Jung, J. Kussmann, C. Ochsenfeld,
 S. T. Brown, A. T. B. Gilbert, L. V. Slipchenko,S. V. Levchenko,
 D. P. O'Neill, R. A. DiStasio Jr., R. C. Lochan, T. Wang,
 G. J. O. Beran, N. A. Besley, J. M. Herbert, C. Y. Lin,
 T. Van Voorhis, S. H. Chien, A. Sodt, R. P. Steele, 
 V. A. Rassolov, P. E. Maslen, P. P. Korambath, R. D. Adamson,
 B. Austin, J. Baker, E. F. C. Byrd, H. Dachsel, R. J. Doerksen,
 A. Dreuw, B. D. Dunietz, A. D. Dutoi, T. R. Furlani,
 S. R. Gwaltney, A. Heyden, S. Hirata, C.-P. Hsu, G. Kedziora,
 R. Z. Khaliullin, P. Klunzinger, A. M. Lee, M. S. Lee, W. Liang,
 I. Lotan, N. Nair, B. Peters, E. I. Proynov, P. A. Pieniazek, 
 Y. M. Rhee, J. Ritchie, E. Rosta, C. D. Sherrill, 
 A. C. Simmonett, J. E. Subotnik, H. L. Woodcock III,
 W. Zhang, A. T. Bell, A. K. Chakraborty, D. M. Chipman,
 F. J. Keil, A. Warshel, W. J. Hehre, H. F. Schaefer III,
 J. Kong, A. I. Krylov, P. M. W. Gill, M. Head-Gordon,
 Q-Chem, Version 3.1, Q-Chem, Inc., Pittsburgh, PA (2007).

 Additional authors for Version 3.1: 
 Z. Gan, Y. Zhao, N. E. Schultz, D. Truhlar, E. Epifanovsky and M. Oana.

 Additional authors for Version 3.2: 
 R. Baer, B. R. Brooks, D. Casanova, J.-D. Chai, C.-L. Cheng, 
 C. Cramer, D. Crittenden, A. Ghysels, G. Hawkins, E. G. Hohenstein, 
 C. Kelley, W. Kurlancheek, D. Liotard, E. Livshits, P. Manohar, 
 A. Marenich, D. Neuhauser, R. Olson, M. A. Rohrdanz, K. S. Thanthiriwatte, 
 A. J. W. Thom, V. Vanovschi, C. F. Williams, Q. Wu and Z.-Q. You. 


 Intel X86 Linux Version

 Q-chem begins on Wed May 29 17:02:15 2013  

 Parallel job on  1  processors
Processing $rem in /usr/local/qchem/config/preferences.

theFileMan(): MAXOPENFILES=974 MAX_SUB_FILE_NUM=16
Maximum size of a physical file is 2.0 GB, maximum size of a tmp-file is 32.0 GB


--------------------------------------------------------------
User input:
--------------------------------------------------------------

$molecule
1,2
Li         0.00000        0.00000       -0.00898
F          0.00000        0.00000        1.56069
$end

$comment
positive
$end

$xc_functional
C PBE   1.00
X wPBE  1.00
$end

$rem
SYMMETRY_DECOMPOSITION	0
LRC_DFT                 true
exchange 		general
BASIS                   g3large
omega			540
mem_static              760
max_scf_cycles          200
scf_final_print         1
sym_ignore              true
$end

--------------------------------------------------------------
 Writing REM_CC_EA            2
 ----------------------------------------------------
       Standard Nuclear Orientation (Angstroms)
    I     Atom         X            Y            Z
 ----------------------------------------------------
    1      Li      0.000000     0.000000    -0.008980
    2      F       0.000000     0.000000     1.560690
 ----------------------------------------------------
 Nuclear Repulsion Energy =     9.1024130496 hartrees
 There are        6 alpha and        5 beta electrons
 Requested basis set is G3large
 There are 20 shells and 84 basis functions

Total QAlloc Memory Limit   2000 MB
Mega-Array Size       743 MB
MEM_STATIC part       760 MB

                       Distance Matrix (Angstroms)
             Li(  1)
   F (  2)  1.569670
 
 A cutoff of  1.0D-08 yielded    205 shell pairs
 There are   3657 function pairs (  4803 Cartesian)
Evaluating contribution to one-electron hamiltonian from nuclear
 Smallest overlap matrix eigenvalue = 2.10E-03
 Multipole matrices computed through 2nd order

  Scale SEOQF with 1.000000e-02/1.000000e-02/1.000000e-02

 Standard Electronic Orientation quadrupole field applied
 Nucleus-field energy     =    -0.0000000002 hartrees
 Guess from superposition of atomic densities
 Warning:  Energy on first SCF cycle will be non-variational
 Long-range K will be added via erf
 Coulomb attenuation parameter = 0.54 bohr**(-1)
 An unrestricted Kohn-Sham SCF calculation will be
 performed using Pulay DIIS extrapolation
 Exchange:  wPBE + LR-HF      Correlation:  PBE
 Using SG-1 standard quadrature grid
 SCF converges when DIIS error is below 1.0E-05
 Requested basis set is G3large
 There are 20 shells and 84 basis functions
 A cutoff of  1.0D-08 yielded    205 shell pairs
 There are   3657 function pairs (  4803 Cartesian)
 Warning!  Inaccurate integrated density:
   Number of electrons =    11
   Numerical integral  =    12.013154537662
   Relative error      =     9.2104957969 %
 ---------------------------------------
  Cycle       Energy         DIIS Error
 ---------------------------------------
    1    -106.9659222925      1.07E-02
    2    -106.9618723290      2.06E-03
    3    -106.9687035892      1.25E-03
    4    -106.9695923184      2.13E-04
    5    -106.9697578249      5.27E-05
    6    -106.9697810543      3.19E-05
    7    -106.9697954850      3.03E-05
    8    -106.9698379949      2.67E-05
    9    -106.9699581721      1.81E-05
   10    -106.9699655524      1.09E-05
   11    -106.9699736322      3.94E-06 Convergence criterion met
 ---------------------------------------
 One-Electron    Energy =  -163.3642995365
 Total Coulomb   Energy =    59.3293444254
 Alpha Exchange  Energy =    -1.6469449627
 Beta  Exchange  Energy =    -1.3711820702
 DFT   Exchange  Energy =    -8.6809181935
 DFT Correlation Energy =    -0.3383863440
 Nuclear Repu.   Energy =     9.1024130494
 Nuclear Attr.   Energy =  -270.2482983933
 Kinetic         Energy =   106.8839988567
 <S^2> = 0.7514
 SCF time:  CPU 11.94 s  wall 12.24 s
 Final Alpha MO Eigenvalues
            1           2           3           4           5           6
    1 -24.9590397  -2.4656174  -1.7402457  -1.0550775  -0.9768650  -0.9605740
            7           8           9          10          11
    1  -0.1783042  -0.1208793  -0.1168903  -0.0979361  -0.0692869
 Final Beta MO Eigenvalues
            1           2           3           4           5           6
    1 -24.9306543  -2.4655867  -1.6476902  -0.9462762  -0.9299742  -0.4294662
            7           8           9          10
    1  -0.1776008  -0.1163661  -0.1146156  -0.0967441
 Analysis of SCF Wavefunction
 
 --------------------------------------------------------------
                    Orbital Energies (a.u.)
 --------------------------------------------------------------
 
 Alpha MOs
 -- Occupied --
-24.959  -2.466  -1.740  -1.055  -0.977  -0.961
 -- Virtual --
 -0.178  -0.121  -0.117  -0.098  -0.069  -0.056  -0.055  -0.046
 -0.003  -0.001   0.000   0.027   0.079   0.079   0.091   0.102
  0.115   0.192   0.198   0.204   0.285   0.301   0.305   0.374
  0.374   0.396   0.396   0.467   0.531   0.538   0.607   0.962
  0.978   1.016   1.017   1.115   1.209   1.248   1.287   1.786
  1.849   1.861   2.045   2.102   2.150   3.803   5.864   5.947
  5.986   6.339   6.346   6.355   6.367   6.396   6.448   6.458
  6.681   6.687   7.049   8.749   8.756   8.889   8.968   9.036
 19.817  19.857  20.973  20.989  20.989  49.713  49.747  49.812
 49.845  49.869  55.223  55.276  55.322  66.258
 
 Beta MOs
 -- Occupied --
-24.931  -2.466  -1.648  -0.946  -0.930
 -- Virtual --
 -0.429  -0.178  -0.116  -0.115  -0.097  -0.069  -0.055  -0.055
 -0.046  -0.003   0.000   0.000   0.028   0.080   0.080   0.104
  0.108   0.119   0.193   0.203   0.204   0.291   0.304   0.305
  0.377   0.378   0.396   0.396   0.470   0.538   0.539   0.609
  0.981   0.986   1.017   1.017   1.126   1.259   1.271   1.298
  1.837   1.919   1.930   2.070   2.159   2.166   3.810   5.975
  6.005   6.010   6.424   6.438   6.439   6.440   6.457   6.463
  6.479   6.688   6.688   7.052   8.876   8.897   8.989   9.009
  9.091  19.817  19.857  20.973  20.989  20.989  49.795  49.840
 49.872  49.878  49.893  55.294  55.310  55.339  66.288
 --------------------------------------------------------------
 
          Ground-State Mulliken Net Atomic Charges

     Atom                 Charge (a.u.)    Spin (a.u.)
  --------------------------------------------------------
      1 Li                    0.786503       0.005365
      2 F                     0.213497       0.994635
  --------------------------------------------------------
  Sum of atomic charges =     1.000000
  Sum of spin   charges =     1.000000

 -----------------------------------------------------------------
                    Cartesian Multipole Moments
 -----------------------------------------------------------------
    Charge (ESU x 10^10)
                 4.8032
    Dipole Moment (Debye)
         X       0.0000      Y       0.0000      Z       0.5294
       Tot       0.5294
    Quadrupole Moments (Debye-Ang)
        XX      -4.8531     XY       0.4401     YY      -4.8533
        XZ       0.0002     YZ       0.0002     ZZ      -3.7114
    Octapole Moments (Debye-Ang^2)
       XXX       0.0000    XXY       0.0000    XYY       0.0000
       YYY       0.0000    XXZ      -6.7659    XYZ       0.6613
       YYZ      -6.7661    XZZ       0.0007    YZZ       0.0007
       ZZZ     -18.9276
    Hexadecapole Moments (Debye-Ang^3)
      XXXX      -2.8569   XXXY       0.2329   XXYY      -0.9521
      XYYY       0.2329   YYYY      -2.8570   XXXZ       0.0001
      XXYZ       0.0000   XYYZ       0.0000   YYYZ       0.0001
      XXZZ     -11.3751   XYZZ       1.0809   YYZZ     -11.3754
      XZZZ       0.0018   YZZZ       0.0018   ZZZZ     -65.2734
 -----------------------------------------------------------------
 Total job time:  12.33s(wall), 12.03s(cpu) 
 Wed May 29 17:02:27 2013

        *************************************************************
        *                                                           *
        *  Thank you very much for using Q-Chem.  Have a nice day.  *
        *                                                           *
        *************************************************************


0 sent ACK to 0 
now end server 0 ... 
