Process 0 of 1 is on cl181 - thread support 1
initial socket setup ...start
initial socket setup ...done 
now start server 0 ... 

cmd = /usr/bin/ssh clhead /usr/local/qchem/bin/get_hostid 1811387418 > /tmp/1622718.1.medium.q/qchem24819/lic.dat

cmd = /usr/bin/ssh clhead /usr/local/qchem/bin/get_hostid 1811387418 > /tmp/1622718.1.medium.q/qchem24819/lic.dat

cmd = /usr/bin/ssh clhead /usr/local/qchem/bin/get_hostid 1811387418 > /tmp/1622718.1.medium.q/qchem24819/lic.dat

cmd = /usr/bin/ssh clhead /usr/local/qchem/bin/get_hostid 1811387418 > /tmp/1622718.1.medium.q/qchem24819/lic.dat

cmd = /usr/bin/ssh clhead /usr/local/qchem/bin/get_hostid 1811387418 > /tmp/1622718.1.medium.q/qchem24819/lic.dat
                  Welcome to Q-Chem
     A Quantum Leap Into The Future Of Chemistry

 Y. Shao, L. Fusti-Molnar, Y. Jung, J. Kussmann, C. Ochsenfeld,
 S. T. Brown, A. T. B. Gilbert, L. V. Slipchenko,S. V. Levchenko,
 D. P. O'Neill, R. A. DiStasio Jr., R. C. Lochan, T. Wang,
 G. J. O. Beran, N. A. Besley, J. M. Herbert, C. Y. Lin,
 T. Van Voorhis, S. H. Chien, A. Sodt, R. P. Steele, 
 V. A. Rassolov, P. E. Maslen, P. P. Korambath, R. D. Adamson,
 B. Austin, J. Baker, E. F. C. Byrd, H. Dachsel, R. J. Doerksen,
 A. Dreuw, B. D. Dunietz, A. D. Dutoi, T. R. Furlani,
 S. R. Gwaltney, A. Heyden, S. Hirata, C.-P. Hsu, G. Kedziora,
 R. Z. Khaliullin, P. Klunzinger, A. M. Lee, M. S. Lee, W. Liang,
 I. Lotan, N. Nair, B. Peters, E. I. Proynov, P. A. Pieniazek, 
 Y. M. Rhee, J. Ritchie, E. Rosta, C. D. Sherrill, 
 A. C. Simmonett, J. E. Subotnik, H. L. Woodcock III,
 W. Zhang, A. T. Bell, A. K. Chakraborty, D. M. Chipman,
 F. J. Keil, A. Warshel, W. J. Hehre, H. F. Schaefer III,
 J. Kong, A. I. Krylov, P. M. W. Gill, M. Head-Gordon,
 Q-Chem, Version 3.1, Q-Chem, Inc., Pittsburgh, PA (2007).

 Additional authors for Version 3.1: 
 Z. Gan, Y. Zhao, N. E. Schultz, D. Truhlar, E. Epifanovsky and M. Oana.

 Additional authors for Version 3.2: 
 R. Baer, B. R. Brooks, D. Casanova, J.-D. Chai, C.-L. Cheng, 
 C. Cramer, D. Crittenden, A. Ghysels, G. Hawkins, E. G. Hohenstein, 
 C. Kelley, W. Kurlancheek, D. Liotard, E. Livshits, P. Manohar, 
 A. Marenich, D. Neuhauser, R. Olson, M. A. Rohrdanz, K. S. Thanthiriwatte, 
 A. J. W. Thom, V. Vanovschi, C. F. Williams, Q. Wu and Z.-Q. You. 


 Intel X86 Linux Version

 Q-chem begins on Fri May 16 04:04:29 2014  

 Parallel job on  1  processors
Processing $rem in /usr/local/qchem/config/preferences.

theFileMan(): MAXOPENFILES=974 MAX_SUB_FILE_NUM=16
Maximum size of a physical file is 2.0 GB, maximum size of a tmp-file is 32.0 GB


--------------------------------------------------------------
User input:
--------------------------------------------------------------

$molecule
0,1
B
X,1,1.
X,1,1.,2,90.
F,1,R2,2,ALPHA,3,0.,0
F,1,R2,2,ALPHA,3,120.,0
F,1,R2,2,ALPHA,3,-120.,0

 R2=1.75274159
 ALPHA=90.

$end


$comment
b3lyp opt
$end

$rem
   EXCHANGE B3LYP
   UNRESTRICTED TRUE
   SYMMETRY_DECOMPOSITION	0
   BASIS                   g3large
   JOBTYPE                 opt
   mem_static              760
   max_scf_cycles          200
   scf_final_print         1
   sym_ignore              true
$end


--------------------------------------------------------------
 Writing REM_CC_EA            4
 ----------------------------------------------------
       Standard Nuclear Orientation (Angstroms)
    I     Atom         X            Y            Z
 ----------------------------------------------------
    1      B       0.000000     0.000000     0.000000
    2      F       1.752742     0.000000     0.000000
    3      F      -0.876371    -1.517919     0.000000
    4      F      -0.876371     1.517919     0.000000
 ----------------------------------------------------
 Nuclear Repulsion Energy =    83.1157492522 hartrees
 There are       16 alpha and       16 beta electrons
 Requested basis set is G3large
 There are 40 shells and 168 basis functions

Total QAlloc Memory Limit   2000 MB
Mega-Array Size       743 MB
MEM_STATIC part       760 MB
 A cutoff of  1.0D-11 yielded    661 shell pairs
 There are  11949 function pairs ( 15510 Cartesian)
Evaluating contribution to one-electron hamiltonian from nuclear
 Smallest overlap matrix eigenvalue = 2.37E-03
 Multipole matrices computed through 2nd order

  Scale SEOQF with 1.000000e-01/1.000000e-01/1.000000e-01

 Standard Electronic Orientation quadrupole field applied
 Nucleus-field energy     =     0.0000000044 hartrees
 Guess from superposition of atomic densities
 Warning:  Energy on first SCF cycle will be non-variational
 An unrestricted hybrid HF-DFT SCF calculation will be
 performed using Pulay DIIS extrapolation
 Exchange:     0.2000 Hartree-Fock + 0.0800 Slater + 0.7200 Becke88
 Correlation:  0.8100 LYP + 0.1900 VWN1RPA
 Using SG-1 standard quadrature grid
 SCF converges when DIIS error is below 1.0E-08
 ---------------------------------------
  Cycle       Energy         DIIS Error
 ---------------------------------------
    1    -324.1039919137      1.59E-02
    2    -324.2471842849      7.56E-03
    3    -323.7210384748      1.68E-02
    4    -324.4254311941      6.25E-04
    5    -324.4250722296      7.70E-04
    6    -324.4264132397      1.10E-04
    7    -324.4264391255      1.77E-05
    8    -324.4264397695      1.39E-05
    9    -324.4264400511      6.64E-06
   10    -324.4264402017      5.79E-07
   11    -324.4264402202      5.47E-08
   12    -324.4264402190      1.07E-08
   13    -324.4264402185      2.26E-09 Convergence criterion met
 ---------------------------------------
 One-Electron    Energy =  -616.2977681409
 Total Coulomb   Energy =   243.8432741032
 Alpha Exchange  Energy =    -3.3603929511
 Beta  Exchange  Energy =    -3.3603929511
 DFT   Exchange  Energy =   -26.8763564684
 DFT Correlation Energy =    -1.4905530669
 Nuclear Repu.   Energy =    83.1157492567
 Nuclear Attr.   Energy =  -938.5620171717
 Kinetic         Energy =   322.2642490308
 <S^2> = 0.0000
 SCF time:  CPU 56.78 s  wall 59.16 s
 Final Alpha MO Eigenvalues
            1           2           3           4           5           6
    1 -24.7351314 -24.7351267 -24.7351175  -7.0953454  -1.1963934  -1.1887000
            7           8           9          10          11          12
    1  -1.1886950  -0.5883998  -0.5131813  -0.5131775  -0.4717376  -0.4530340
           13          14          15          16          17          18
    1  -0.4530317  -0.4504166  -0.4504154  -0.4422299  -0.1826825  -0.1509695
           19          20          21
    1  -0.0230731  -0.0230656   0.0190143
 Final Beta MO Eigenvalues
            1           2           3           4           5           6
    1 -24.7351314 -24.7351267 -24.7351175  -7.0953454  -1.1963934  -1.1887000
            7           8           9          10          11          12
    1  -1.1886950  -0.5883998  -0.5131813  -0.5131775  -0.4717376  -0.4530340
           13          14          15          16          17          18
    1  -0.4530317  -0.4504166  -0.4504154  -0.4422299  -0.1826825  -0.1509695
           19          20          21
    1  -0.0230731  -0.0230656   0.0190143
 Analysis of SCF Wavefunction
 
 --------------------------------------------------------------
                    Orbital Energies (a.u.)
 --------------------------------------------------------------
 
 Alpha MOs
 -- Occupied --
-24.735 -24.735 -24.735  -7.095  -1.196  -1.189  -1.189  -0.588
 -0.513  -0.513  -0.472  -0.453  -0.453  -0.450  -0.450  -0.442
 -- Virtual --
 -0.183  -0.151  -0.023  -0.023   0.019   0.038   0.051   0.051
  0.185   0.185   0.211   0.211   0.218   0.280   0.282   0.286
  0.286   0.287   0.345   0.348   0.348   0.382   0.445   0.445
  0.453   0.453   0.704   0.704   0.712   1.216   1.231   1.231
  1.276   1.310   1.310   1.329   1.347   1.347   1.537   1.537
  1.540   1.545   1.586   1.586   1.635   1.667   1.683   1.684
  1.815   1.907   1.907   1.960   1.977   1.977   2.024   2.024
  2.065   2.065   2.082   2.179   2.180   2.232   2.314   2.314
  2.459   2.479   2.479   2.815   2.828   3.252   3.252   6.091
  6.091   6.095   6.132   6.146   6.146   6.180   6.180   6.300
  6.583   6.592   6.592   6.594   6.594   6.603   6.604   6.604
  6.604   6.604   6.604   6.605   6.621   6.621   6.669   6.669
  6.675   6.716   6.717   6.722   6.811   8.985   8.996   8.996
  9.013   9.013   9.023   9.139   9.171   9.172   9.172   9.172
  9.266   9.318   9.494   9.495  13.994  18.453  18.844  18.844
 35.720  35.746  36.147  36.147  36.185  50.042  50.050  50.056
 50.079  50.089  50.089  50.118  50.129  50.135  50.149  50.149
 50.163  50.212  50.254  50.264  55.664  55.664  55.666  55.691
 55.700  55.701  55.736  55.736  55.797  66.683  66.738  66.738
 
 Beta MOs
 -- Occupied --
-24.735 -24.735 -24.735  -7.095  -1.196  -1.189  -1.189  -0.588
 -0.513  -0.513  -0.472  -0.453  -0.453  -0.450  -0.450  -0.442
 -- Virtual --
 -0.183  -0.151  -0.023  -0.023   0.019   0.038   0.051   0.051
  0.185   0.185   0.211   0.211   0.218   0.280   0.282   0.286
  0.286   0.287   0.345   0.348   0.348   0.382   0.445   0.445
  0.453   0.453   0.704   0.704   0.712   1.216   1.231   1.231
  1.276   1.310   1.310   1.329   1.347   1.347   1.537   1.537
  1.540   1.545   1.586   1.586   1.635   1.667   1.683   1.684
  1.815   1.907   1.907   1.960   1.977   1.977   2.024   2.024
  2.065   2.065   2.082   2.179   2.180   2.232   2.314   2.314
  2.459   2.479   2.479   2.815   2.828   3.252   3.252   6.091
  6.091   6.095   6.132   6.146   6.146   6.180   6.180   6.300
  6.583   6.592   6.592   6.594   6.594   6.603   6.604   6.604
  6.604   6.604   6.604   6.605   6.621   6.621   6.669   6.669
  6.675   6.716   6.717   6.722   6.811   8.985   8.996   8.996
  9.013   9.013   9.023   9.139   9.171   9.172   9.172   9.172
  9.266   9.318   9.494   9.495  13.994  18.453  18.844  18.844
 35.720  35.746  36.147  36.147  36.185  50.042  50.050  50.056
 50.079  50.089  50.089  50.118  50.129  50.135  50.149  50.149
 50.163  50.212  50.254  50.264  55.664  55.664  55.666  55.691
 55.700  55.701  55.736  55.736  55.797  66.683  66.738  66.738
 --------------------------------------------------------------
 
          Ground-State Mulliken Net Atomic Charges

     Atom                 Charge (a.u.)    Spin (a.u.)
  --------------------------------------------------------
      1 B                     0.695761       0.000000
      2 F                    -0.232154       0.000000
      3 F                    -0.231803       0.000000
      4 F                    -0.231803       0.000000
  --------------------------------------------------------
  Sum of atomic charges =     0.000000
  Sum of spin   charges =     0.000000

 -----------------------------------------------------------------
                    Cartesian Multipole Moments
 -----------------------------------------------------------------
    Charge (ESU x 10^10)
                 0.0000
    Dipole Moment (Debye)
         X       0.0001      Y       0.0000      Z       0.0000
       Tot       0.0001
    Quadrupole Moments (Debye-Ang)
        XX     -25.4996     XY       0.0000     YY     -25.4985
        XZ       0.0000     YZ       0.0000     ZZ     -19.3056
    Octapole Moments (Debye-Ang^2)
       XXX      -3.2114    XXY       0.0000    XYY       3.2095
       YYY       0.0000    XXZ       0.0000    XYZ       0.0000
       YYZ       0.0000    XZZ      -0.0002    YZZ       0.0000
       ZZZ       0.0000
    Hexadecapole Moments (Debye-Ang^3)
      XXXX    -164.2240   XXXY       0.0000   XXYY     -54.7409
      XYYY       0.0000   YYYY    -164.2170   XXXZ       0.0000
      XXYZ       0.0000   XYYZ       0.0000   YYYZ       0.0000
      XXZZ     -29.4060   XYZZ       0.0000   YYZZ     -29.4052
      XZZZ       0.0000   YZZZ       0.0000   ZZZZ     -14.9933
 -----------------------------------------------------------------
 Calculating analytic gradient of the SCF energy
 Gradient of XC Energy
            1           2           3           4
    1  -0.0000963   0.1909782  -0.0954410  -0.0954410
    2  -0.0000000   0.0000000  -0.1655227   0.1655227
    3  -0.0000000  -0.0000000   0.0000000  -0.0000000
 Gradient of SCF Energy
            1           2           3           4
    1  -0.0000627   0.1354331  -0.0676852  -0.0676852
    2  -0.0000000   0.0000000  -0.1174130   0.1174130
    3   0.0000000   0.0000000  -0.0000000   0.0000000
 Max gradient component =       1.354E-01
 RMS gradient           =       6.775E-02
 Gradient time:  CPU 16.99 s  wall 20.75 s
 Geometry Optimization Parameters
   NAtoms,    NIC,     NZ,  NCons,   NDum,   NFix, NCnnct, MaxDiis
        4      17       6       0       0       0       0       0


** GEOMETRY OPTIMIZATION IN DELOCALIZED INTERNAL COORDINATES **
   Searching for a Minimum

   Optimization Cycle:   1

                       Coordinates (Angstroms)
     ATOM              X           Y           Z
    1  B           0.000000    0.000000    0.000000
    2  F           1.752742    0.000000    0.000000
    3  F          -0.876371   -1.517919    0.000000
    4  F          -0.876371    1.517919    0.000000
   Point Group: c1    Number of degrees of freedom:   6


   Energy is   -324.426440219


 Attempting to Generate Delocalized Internal Coordinates

  ***ERROR*** Wrong Number of Internal Coordinates
              Should be:   6  Found:   5
**WARNING** Problems with Internal Coordinates
  Switching to Cartesian Coordinates

 Translations and Rotations Projected Out of Hessian

  6 Hessian modes will be used to form the next step
  Hessian Eigenvalues:
     1.000000    1.000000    1.000000    1.000000    1.000000    1.000000

 Minimum Search - Taking Simple RFO Step
 Searching for Lamda that Minimizes Along All modes
 Value Taken    Lamda =  -0.05233680
 Step Taken.  Stepsize is  0.223012

                             Maximum     Tolerance    Cnvgd?
         Gradient           0.135433      0.000300      NO
         Displacement       0.128697      0.001200      NO
         Energy change     *********      0.000001      NO

 Writing REM_CC_EA            4
 ----------------------------------------------------
       Standard Nuclear Orientation (Angstroms)
    I     Atom         X            Y            Z
 ----------------------------------------------------
    1      B       0.000032     0.000000     0.000000
    2      F       1.684638     0.000000     0.000000
    3      F      -0.842335    -1.458877     0.000000
    4      F      -0.842335     1.458877     0.000000
 ----------------------------------------------------
 Nuclear Repulsion Energy =    86.4774017950 hartrees
 There are       16 alpha and       16 beta electrons
 Applying Cartesian multipole field
    Component          Value
    ---------          -----
     (2,0,0)        1.00000E-11
     (0,2,0)        2.00000E-11
     (0,0,2)       -3.00000E-11
 Nucleus-field energy     =     0.0000000041 hartrees
 Requested basis set is G3large
 There are 40 shells and 168 basis functions
 A cutoff of  1.0D-11 yielded    679 shell pairs
 There are  12348 function pairs ( 16086 Cartesian)
Evaluating contribution to one-electron hamiltonian from nuclear
 Smallest overlap matrix eigenvalue = 1.74E-03
 Multipole matrices computed through 2nd order
 Guess MOs from SCF MO coefficient file
Reading MOs from coefficient file
Reading MOs from coefficient file
 An unrestricted hybrid HF-DFT SCF calculation will be
 performed using Pulay DIIS extrapolation
 Exchange:     0.2000 Hartree-Fock + 0.0800 Slater + 0.7200 Becke88
 Correlation:  0.8100 LYP + 0.1900 VWN1RPA
 Using SG-1 standard quadrature grid
 SCF converges when DIIS error is below 1.0E-08
 Warning!  Inaccurate integrated density:
   Number of electrons =    32
   Numerical integral  =    32.105232147353
   Relative error      =     0.3288504605 %
 ---------------------------------------
  Cycle       Energy         DIIS Error
 ---------------------------------------
    1    -324.5645427885      1.71E-03
    2    -324.4778769465      6.83E-04
    3    -324.4785559205      4.67E-04
    4    -324.4788968032      3.90E-04
    5    -324.4792222322      2.88E-05
    6    -324.4792245018      1.16E-06
    7    -324.4792245788      3.00E-07
    8    -324.4792245630      1.41E-07
    9    -324.4792245640      6.82E-08
   10    -324.4792245658      1.56E-09 Convergence criterion met
 ---------------------------------------
 One-Electron    Energy =  -622.9986559053
 Total Coulomb   Energy =   247.1813400707
 Alpha Exchange  Energy =    -3.3667713039
 Beta  Exchange  Energy =    -3.3667713039
 DFT   Exchange  Energy =   -26.9114324254
 DFT Correlation Energy =    -1.4943354972
 Nuclear Repu.   Energy =    86.4774017991
 Nuclear Attr.   Energy =  -945.3526919612
 Kinetic         Energy =   322.3540360559
 <S^2> = 0.0000
 SCF time:  CPU 44.83 s  wall 45.48 s
 Final Alpha MO Eigenvalues
            1           2           3           4           5           6
    1 -24.7350705 -24.7350558 -24.7350475  -7.0764267  -1.2051338  -1.1949728
            7           8           9          10          11          12
    1  -1.1949621  -0.5944371  -0.5231115  -0.5231012  -0.4794551  -0.4568560
           13          14          15          16          17          18
    1  -0.4568509  -0.4535383  -0.4535306  -0.4435104  -0.1490300  -0.1334451
           19          20          21
    1   0.0035404   0.0035621   0.0240115
 Final Beta MO Eigenvalues
            1           2           3           4           5           6
    1 -24.7350705 -24.7350558 -24.7350475  -7.0764267  -1.2051338  -1.1949728
            7           8           9          10          11          12
    1  -1.1949621  -0.5944371  -0.5231115  -0.5231012  -0.4794551  -0.4568560
           13          14          15          16          17          18
    1  -0.4568509  -0.4535383  -0.4535306  -0.4435104  -0.1490300  -0.1334451
           19          20          21
    1   0.0035404   0.0035621   0.0240115
 Analysis of SCF Wavefunction
 
 --------------------------------------------------------------
                    Orbital Energies (a.u.)
 --------------------------------------------------------------
 
 Alpha MOs
 -- Occupied --
-24.735 -24.735 -24.735  -7.076  -1.205  -1.195  -1.195  -0.594
 -0.523  -0.523  -0.479  -0.457  -0.457  -0.454  -0.454  -0.444
 -- Virtual --
 -0.149  -0.133   0.004   0.004   0.024   0.039   0.062   0.062
  0.187   0.187   0.214   0.214   0.221   0.280   0.282   0.287
  0.287   0.290   0.352   0.353   0.353   0.386   0.456   0.456
  0.466   0.466   0.715   0.718   0.719   1.235   1.235   1.238
  1.292   1.306   1.306   1.319   1.347   1.347   1.532   1.532
  1.546   1.553   1.623   1.623   1.651   1.697   1.701   1.702
  1.827   1.915   1.915   1.956   2.002   2.002   2.052   2.053
  2.070   2.070   2.091   2.178   2.178   2.319   2.366   2.366
  2.535   2.552   2.552   2.800   2.945   3.366   3.366   6.089
  6.089   6.102   6.132   6.151   6.151   6.203   6.204   6.336
  6.578   6.594   6.594   6.594   6.594   6.600   6.600   6.600
  6.601   6.602   6.602   6.611   6.639   6.639   6.697   6.697
  6.697   6.739   6.739   6.756   6.881   8.983   8.999   8.999
  9.021   9.021   9.033   9.178   9.207   9.207   9.209   9.209
  9.312   9.348   9.568   9.568  14.194  18.482  18.899  18.899
 35.746  35.779  36.167  36.167  36.219  50.043  50.052  50.060
 50.078  50.093  50.093  50.133  50.145  50.152  50.164  50.164
 50.190  50.225  50.281  50.295  55.664  55.664  55.667  55.692
 55.707  55.707  55.745  55.745  55.834  66.691  66.747  66.747
 
 Beta MOs
 -- Occupied --
-24.735 -24.735 -24.735  -7.076  -1.205  -1.195  -1.195  -0.594
 -0.523  -0.523  -0.479  -0.457  -0.457  -0.454  -0.454  -0.444
 -- Virtual --
 -0.149  -0.133   0.004   0.004   0.024   0.039   0.062   0.062
  0.187   0.187   0.214   0.214   0.221   0.280   0.282   0.287
  0.287   0.290   0.352   0.353   0.353   0.386   0.456   0.456
  0.466   0.466   0.715   0.718   0.719   1.235   1.235   1.238
  1.292   1.306   1.306   1.319   1.347   1.347   1.532   1.532
  1.546   1.553   1.623   1.623   1.651   1.697   1.701   1.702
  1.827   1.915   1.915   1.956   2.002   2.002   2.052   2.053
  2.070   2.070   2.091   2.178   2.178   2.319   2.366   2.366
  2.535   2.552   2.552   2.800   2.945   3.366   3.366   6.089
  6.089   6.102   6.132   6.151   6.151   6.203   6.204   6.336
  6.578   6.594   6.594   6.594   6.594   6.600   6.600   6.600
  6.601   6.602   6.602   6.611   6.639   6.639   6.697   6.697
  6.697   6.739   6.739   6.756   6.881   8.983   8.999   8.999
  9.021   9.021   9.033   9.178   9.207   9.207   9.209   9.209
  9.312   9.348   9.568   9.568  14.194  18.482  18.899  18.899
 35.746  35.779  36.167  36.167  36.219  50.043  50.052  50.060
 50.078  50.093  50.093  50.133  50.145  50.152  50.164  50.164
 50.190  50.225  50.281  50.295  55.664  55.664  55.667  55.692
 55.707  55.707  55.745  55.745  55.834  66.691  66.747  66.747
 --------------------------------------------------------------
 
          Ground-State Mulliken Net Atomic Charges

     Atom                 Charge (a.u.)    Spin (a.u.)
  --------------------------------------------------------
      1 B                     0.660668       0.000000
      2 F                    -0.220486       0.000000
      3 F                    -0.220091       0.000000
      4 F                    -0.220091       0.000000
  --------------------------------------------------------
  Sum of atomic charges =     0.000000
  Sum of spin   charges =     0.000000

 -----------------------------------------------------------------
                    Cartesian Multipole Moments
 -----------------------------------------------------------------
    Charge (ESU x 10^10)
                 0.0000
    Dipole Moment (Debye)
         X       0.0002      Y       0.0000      Z       0.0000
       Tot       0.0002
    Quadrupole Moments (Debye-Ang)
        XX     -24.9898     XY       0.0000     YY     -24.9886
        XZ       0.0000     YZ       0.0000     ZZ     -19.1524
    Octapole Moments (Debye-Ang^2)
       XXX      -2.9234    XXY       0.0000    XYY       2.9210
       YYY       0.0000    XXZ       0.0000    XYZ       0.0000
       YYZ       0.0000    XZZ      -0.0002    YZZ       0.0000
       ZZZ       0.0000
    Hexadecapole Moments (Debye-Ang^3)
      XXXX    -151.9421   XXXY       0.0000   XXYY     -50.6449
      XYYY       0.0000   YYYY    -151.9246   XXXZ       0.0000
      XXYZ       0.0000   XYYZ       0.0000   YYYZ       0.0000
      XXZZ     -27.3468   XYZZ       0.0000   YYZZ     -27.3442
      XZZZ       0.0000   YZZZ       0.0000   ZZZZ     -14.7204
 -----------------------------------------------------------------
 Calculating analytic gradient of the SCF energy
 Gradient of XC Energy
            1           2           3           4
    1  -0.0002450   0.2086581  -0.1042066  -0.1042066
    2  -0.0000000   0.0000000  -0.1807226   0.1807226
    3   0.0000000  -0.0000000  -0.0000000  -0.0000000
 Gradient of SCF Energy
            1           2           3           4
    1  -0.0001724   0.1372744  -0.0685510  -0.0685510
    2   0.0000000  -0.0000000  -0.1188988   0.1188988
    3   0.0000000  -0.0000000  -0.0000000  -0.0000000
 Max gradient component =       1.373E-01
 RMS gradient           =       6.863E-02
 Gradient time:  CPU 17.71 s  wall 17.82 s
 Geometry Optimization Parameters
   NAtoms,    NIC,     NZ,  NCons,   NDum,   NFix, NCnnct, MaxDiis
        4      17       6       0       0       0       0       0

 Cartesian Hessian Update
 Hessian Updated using BFGS Update
**WARNING** Hereditary positive definiteness endangered


** GEOMETRY OPTIMIZATION IN CARTESIAN COORDINATES **
   Searching for a Minimum

   Optimization Cycle:   2

                       Coordinates (Angstroms)
     ATOM              X           Y           Z
    1  B           0.000032    0.000000    0.000000
    2  F           1.684638    0.000000    0.000000
    3  F          -0.842335   -1.458877    0.000000
    4  F          -0.842335    1.458877    0.000000
   Point Group: c1    Number of degrees of freedom:   6


   Energy is   -324.479224566


 Translations and Rotations Projected Out of Hessian

  2 Hessian modes will be used to form the next step
  Hessian Eigenvalues:
    -0.013671    0.999968
**WARNING** Hessian does not have the Desired Local Structure

 Minimum Search - Taking Simple RFO Step
 Searching for Lamda that Minimizes Along All modes
 Value Taken    Lamda =  -0.24466662
 Calculated Step too Large.  Step scaled by  0.291498
 Step Taken.  Stepsize is  0.300000

                             Maximum     Tolerance    Cnvgd?
         Gradient           0.137274      0.000300      NO
         Displacement       0.173234      0.001200      NO
         Energy change     -0.052784      0.000001      NO

 Writing REM_CC_EA            4
 ----------------------------------------------------
       Standard Nuclear Orientation (Angstroms)
    I     Atom         X            Y            Z
 ----------------------------------------------------
    1      B       0.000150     0.000000     0.000000
    2      F       1.592966     0.000000     0.000000
    3      F      -0.796558    -1.379479     0.000000
    4      F      -0.796558     1.379479     0.000000
 ----------------------------------------------------
 Nuclear Repulsion Energy =    91.4531895756 hartrees
 There are       16 alpha and       16 beta electrons
 Applying Cartesian multipole field
    Component          Value
    ---------          -----
     (2,0,0)        1.00000E-11
     (0,2,0)        2.00000E-11
     (0,0,2)       -3.00000E-11
 Nucleus-field energy     =     0.0000000037 hartrees
 Requested basis set is G3large
 There are 40 shells and 168 basis functions
 A cutoff of  1.0D-11 yielded    687 shell pairs
 There are  12492 function pairs ( 16254 Cartesian)
Evaluating contribution to one-electron hamiltonian from nuclear
 Smallest overlap matrix eigenvalue = 1.14E-03
 Multipole matrices computed through 2nd order
 Guess MOs from SCF MO coefficient file
Reading MOs from coefficient file
Reading MOs from coefficient file
 An unrestricted hybrid HF-DFT SCF calculation will be
 performed using Pulay DIIS extrapolation
 Exchange:     0.2000 Hartree-Fock + 0.0800 Slater + 0.7200 Becke88
 Correlation:  0.8100 LYP + 0.1900 VWN1RPA
 Using SG-1 standard quadrature grid
 SCF converges when DIIS error is below 1.0E-08
 Warning!  Inaccurate integrated density:
   Number of electrons =    32
   Numerical integral  =    32.143684825754
   Relative error      =     0.4490150805 %
 ---------------------------------------
  Cycle       Energy         DIIS Error
 ---------------------------------------
    1    -324.6728723554      2.68E-03
    2    -324.5475316398      9.16E-04
    3    -324.5490846712      4.87E-04
    4    -324.5495472978      3.32E-04
    5    -324.5497850582      2.51E-05
    6    -324.5497868076      1.49E-06
    7    -324.5497868755      5.94E-07
    8    -324.5497868503      6.05E-07
    9    -324.5497868461      3.28E-08
   10    -324.5497868483      1.44E-09 Convergence criterion met
 ---------------------------------------
 One-Electron    Energy =  -632.9081248640
 Total Coulomb   Energy =   252.1263941281
 Alpha Exchange  Energy =    -3.3765990160
 Beta  Exchange  Energy =    -3.3765990160
 DFT   Exchange  Energy =   -26.9680466178
 DFT Correlation Energy =    -1.5000010418
 Nuclear Repu.   Energy =    91.4531895792
 Nuclear Attr.   Energy =  -955.4458634295
 Kinetic         Energy =   322.5377385655
 <S^2> = 0.0000
 SCF time:  CPU 46.42 s  wall 47.34 s
 Final Alpha MO Eigenvalues
            1           2           3           4           5           6
    1 -24.7343054 -24.7342179 -24.7342115  -7.0456674  -1.2193898  -1.2048807
            7           8           9          10          11          12
    1  -1.2048099  -0.6024639  -0.5371523  -0.5370980  -0.4916083  -0.4624921
           13          14          15          16          17          18
    1  -0.4624522  -0.4580673  -0.4580099  -0.4448331  -0.1058959  -0.1014176
           19          20          21
    1   0.0245375   0.0245706   0.0359477
 Final Beta MO Eigenvalues
            1           2           3           4           5           6
    1 -24.7343054 -24.7342179 -24.7342115  -7.0456674  -1.2193898  -1.2048807
            7           8           9          10          11          12
    1  -1.2048099  -0.6024639  -0.5371523  -0.5370980  -0.4916083  -0.4624921
           13          14          15          16          17          18
    1  -0.4624522  -0.4580673  -0.4580099  -0.4448331  -0.1058959  -0.1014176
           19          20          21
    1   0.0245375   0.0245706   0.0359477
 Analysis of SCF Wavefunction
 
 --------------------------------------------------------------
                    Orbital Energies (a.u.)
 --------------------------------------------------------------
 
 Alpha MOs
 -- Occupied --
-24.734 -24.734 -24.734  -7.046  -1.219  -1.205  -1.205  -0.602
 -0.537  -0.537  -0.492  -0.462  -0.462  -0.458  -0.458  -0.445
 -- Virtual --
 -0.106  -0.101   0.025   0.025   0.036   0.040   0.098   0.098
  0.190   0.190   0.217   0.217   0.226   0.280   0.284   0.290
  0.290   0.295   0.361   0.361   0.361   0.392   0.472   0.473
  0.482   0.482   0.713   0.740   0.740   1.241   1.241   1.266
  1.295   1.295   1.304   1.311   1.351   1.351   1.531   1.531
  1.568   1.583   1.635   1.636   1.675   1.712   1.736   1.737
  1.868   1.930   1.931   1.949   2.001   2.002   2.076   2.108
  2.108   2.109   2.109   2.183   2.184   2.459   2.486   2.486
  2.641   2.664   2.665   2.818   3.129   3.494   3.494   6.089
  6.089   6.128   6.132   6.156   6.156   6.271   6.271   6.360
  6.571   6.593   6.593   6.595   6.595   6.595   6.595   6.601
  6.601   6.604   6.604   6.636   6.681   6.681   6.725   6.746
  6.746   6.782   6.782   6.817   6.997   8.980   9.007   9.007
  9.038   9.038   9.054   9.242   9.262   9.262   9.272   9.272
  9.333   9.487   9.672   9.672  14.550  18.527  18.959  18.959
 35.791  35.841  36.201  36.201  36.280  50.047  50.056  50.069
 50.078  50.100  50.100  50.160  50.172  50.179  50.188  50.188
 50.236  50.248  50.322  50.339  55.666  55.666  55.680  55.695
 55.715  55.715  55.781  55.781  55.889  66.711  66.757  66.757
 
 Beta MOs
 -- Occupied --
-24.734 -24.734 -24.734  -7.046  -1.219  -1.205  -1.205  -0.602
 -0.537  -0.537  -0.492  -0.462  -0.462  -0.458  -0.458  -0.445
 -- Virtual --
 -0.106  -0.101   0.025   0.025   0.036   0.040   0.098   0.098
  0.190   0.190   0.217   0.217   0.226   0.280   0.284   0.290
  0.290   0.295   0.361   0.361   0.361   0.392   0.472   0.473
  0.482   0.482   0.713   0.740   0.740   1.241   1.241   1.266
  1.295   1.295   1.304   1.311   1.351   1.351   1.531   1.531
  1.568   1.583   1.635   1.636   1.675   1.712   1.736   1.737
  1.868   1.930   1.931   1.949   2.001   2.002   2.076   2.108
  2.108   2.109   2.109   2.183   2.184   2.459   2.486   2.486
  2.641   2.664   2.665   2.818   3.129   3.494   3.494   6.089
  6.089   6.128   6.132   6.156   6.156   6.271   6.271   6.360
  6.571   6.593   6.593   6.595   6.595   6.595   6.595   6.601
  6.601   6.604   6.604   6.636   6.681   6.681   6.725   6.746
  6.746   6.782   6.782   6.817   6.997   8.980   9.007   9.007
  9.038   9.038   9.054   9.242   9.262   9.262   9.272   9.272
  9.333   9.487   9.672   9.672  14.550  18.527  18.959  18.959
 35.791  35.841  36.201  36.201  36.280  50.047  50.056  50.069
 50.078  50.100  50.100  50.160  50.172  50.179  50.188  50.188
 50.236  50.248  50.322  50.339  55.666  55.666  55.680  55.695
 55.715  55.715  55.781  55.781  55.889  66.711  66.757  66.757
 --------------------------------------------------------------
 
          Ground-State Mulliken Net Atomic Charges

     Atom                 Charge (a.u.)    Spin (a.u.)
  --------------------------------------------------------
      1 B                     0.585877       0.000000
      2 F                    -0.195362       0.000000
      3 F                    -0.195258       0.000000
      4 F                    -0.195258       0.000000
  --------------------------------------------------------
  Sum of atomic charges =     0.000000
  Sum of spin   charges =     0.000000

 -----------------------------------------------------------------
                    Cartesian Multipole Moments
 -----------------------------------------------------------------
    Charge (ESU x 10^10)
                 0.0000
    Dipole Moment (Debye)
         X       0.0014      Y       0.0000      Z       0.0000
       Tot       0.0014
    Quadrupole Moments (Debye-Ang)
        XX     -24.2896     XY       0.0000     YY     -24.2904
        XZ       0.0000     YZ       0.0000     ZZ     -18.9237
    Octapole Moments (Debye-Ang^2)
       XXX      -2.5738    XXY       0.0000    XYY       2.5756
       YYY       0.0000    XXZ       0.0000    XYZ       0.0000
       YYZ       0.0000    XZZ       0.0005    YZZ       0.0000
       ZZZ       0.0000
    Hexadecapole Moments (Debye-Ang^3)
      XXXX    -136.2486   XXXY       0.0000   XXYY     -45.4146
      XYYY       0.0000   YYYY    -136.2378   XXXZ       0.0000
      XXYZ       0.0000   XYYZ       0.0000   YYYZ       0.0000
      XXZZ     -24.6958   XYZZ       0.0000   YYZZ     -24.6934
      XZZZ       0.0000   YZZZ       0.0000   ZZZZ     -14.3129
 -----------------------------------------------------------------
 Calculating analytic gradient of the SCF energy
 Gradient of XC Energy
            1           2           3           4
    1  -0.0002198   0.2340833  -0.1169318  -0.1169318
    2  -0.0000000   0.0000000  -0.2026211   0.2026211
    3   0.0000000  -0.0000000  -0.0000000  -0.0000000
 Gradient of SCF Energy
            1           2           3           4
    1  -0.0000316   0.1327060  -0.0663372  -0.0663372
    2  -0.0000000   0.0000000  -0.1148963   0.1148963
    3   0.0000000  -0.0000000  -0.0000000   0.0000000
 Max gradient component =       1.327E-01
 RMS gradient           =       6.634E-02
 Gradient time:  CPU 18.75 s  wall 18.82 s
 Geometry Optimization Parameters
   NAtoms,    NIC,     NZ,  NCons,   NDum,   NFix, NCnnct, MaxDiis
        4      17       6       0       0       0       0       0

 Cartesian Hessian Update
 Hessian Updated using BFGS Update


** GEOMETRY OPTIMIZATION IN CARTESIAN COORDINATES **
   Searching for a Minimum

   Optimization Cycle:   3

                       Coordinates (Angstroms)
     ATOM              X           Y           Z
    1  B           0.000150    0.000000    0.000000
    2  F           1.592966    0.000000    0.000000
    3  F          -0.796558   -1.379479    0.000000
    4  F          -0.796558    1.379479    0.000000
   Point Group: c1    Number of degrees of freedom:   6


   Energy is   -324.549786848


 Translations and Rotations Projected Out of Hessian

  3 Hessian modes will be used to form the next step
  Hessian Eigenvalues:
     0.026394    0.999970    1.000011

 Minimum Search - Taking Simple RFO Step
 Searching for Lamda that Minimizes Along All modes
 Value Taken    Lamda =  -0.21699593
 Calculated Step too Large.  Step scaled by  0.317722
 Step Taken.  Stepsize is  0.300000

                             Maximum     Tolerance    Cnvgd?
         Gradient           0.132706      0.000300      NO
         Displacement       0.173238      0.001200      NO
         Energy change     -0.070562      0.000001      NO

 Writing REM_CC_EA            4
 ----------------------------------------------------
       Standard Nuclear Orientation (Angstroms)
    I     Atom         X            Y            Z
 ----------------------------------------------------
    1      B       0.000190     0.000000     0.000000
    2      F       1.501293     0.000000     0.000000
    3      F      -0.750741    -1.300106     0.000000
    4      F      -0.750741     1.300106     0.000000
 ----------------------------------------------------
 Nuclear Repulsion Energy =    97.0365372841 hartrees
 There are       16 alpha and       16 beta electrons
 Applying Cartesian multipole field
    Component          Value
    ---------          -----
     (2,0,0)        1.00000E-11
     (0,2,0)        2.00000E-11
     (0,0,2)       -3.00000E-11
 Nucleus-field energy     =     0.0000000033 hartrees
 Requested basis set is G3large
 There are 40 shells and 168 basis functions
 A cutoff of  1.0D-11 yielded    709 shell pairs
 There are  12798 function pairs ( 16713 Cartesian)
Evaluating contribution to one-electron hamiltonian from nuclear
 Smallest overlap matrix eigenvalue = 7.53E-04
 Multipole matrices computed through 2nd order
 Guess MOs from SCF MO coefficient file
Reading MOs from coefficient file
Reading MOs from coefficient file
 An unrestricted hybrid HF-DFT SCF calculation will be
 performed using Pulay DIIS extrapolation
 Exchange:     0.2000 Hartree-Fock + 0.0800 Slater + 0.7200 Becke88
 Correlation:  0.8100 LYP + 0.1900 VWN1RPA
 Using SG-1 standard quadrature grid
 SCF converges when DIIS error is below 1.0E-08
 Warning!  Inaccurate integrated density:
   Number of electrons =    32
   Numerical integral  =    32.145329920151
   Relative error      =     0.4541560005 %
 ---------------------------------------
  Cycle       Energy         DIIS Error
 ---------------------------------------
    1    -324.7476825947      3.19E-03
    2    -324.6128292815      9.13E-04
    3    -324.6144114884      4.51E-04
    4    -324.6148981483      7.04E-05
    5    -324.6149048441      5.06E-05
    6    -324.6149099188      1.55E-06
    7    -324.6149099423      3.97E-07
    8    -324.6149099041      3.38E-07
    9    -324.6149099088      2.90E-08
   10    -324.6149099120      8.90E-10 Convergence criterion met
 ---------------------------------------
 One-Electron    Energy =  -644.0098919238
 Total Coulomb   Energy =   257.6786710882
 Alpha Exchange  Energy =    -3.3881188451
 Beta  Exchange  Energy =    -3.3881188451
 DFT   Exchange  Energy =   -27.0375506299
 DFT Correlation Energy =    -1.5064380437
 Nuclear Repu.   Energy =    97.0365372874
 Nuclear Attr.   Energy =  -966.8251837346
 Kinetic         Energy =   322.8152918108
 <S^2> = 0.0000
 SCF time:  CPU 48.18 s  wall 48.81 s
 Final Alpha MO Eigenvalues
            1           2           3           4           5           6
    1 -24.7323511 -24.7322255 -24.7322214  -7.0088401  -1.2369711  -1.2166039
            7           8           9          10          11          12
    1  -1.2164974  -0.6099699  -0.5519322  -0.5518646  -0.5061590  -0.4685365
           13          14          15          16          17          18
    1  -0.4684829  -0.4628300  -0.4627455  -0.4453178  -0.0733185  -0.0591147
           19          20          21
    1   0.0318692   0.0318732   0.0408095
 Final Beta MO Eigenvalues
            1           2           3           4           5           6
    1 -24.7323511 -24.7322255 -24.7322214  -7.0088401  -1.2369711  -1.2166039
            7           8           9          10          11          12
    1  -1.2164974  -0.6099699  -0.5519322  -0.5518646  -0.5061590  -0.4685365
           13          14          15          16          17          18
    1  -0.4684829  -0.4628300  -0.4627455  -0.4453178  -0.0733185  -0.0591147
           19          20          21
    1   0.0318692   0.0318732   0.0408095
 Analysis of SCF Wavefunction
 
 --------------------------------------------------------------
                    Orbital Energies (a.u.)
 --------------------------------------------------------------
 
 Alpha MOs
 -- Occupied --
-24.732 -24.732 -24.732  -7.009  -1.237  -1.217  -1.216  -0.610
 -0.552  -0.552  -0.506  -0.469  -0.468  -0.463  -0.463  -0.445
 -- Virtual --
 -0.073  -0.059   0.032   0.032   0.041   0.060   0.150   0.150
  0.195   0.195   0.220   0.220   0.231   0.280   0.288   0.296
  0.296   0.299   0.371   0.373   0.373   0.402   0.490   0.490
  0.497   0.497   0.711   0.764   0.764   1.248   1.248   1.282
  1.282   1.284   1.287   1.323   1.360   1.360   1.540   1.540
  1.608   1.630   1.630   1.643   1.703   1.706   1.751   1.751
  1.933   1.934   1.935   1.943   1.963   1.963   2.047   2.161
  2.161   2.183   2.183   2.297   2.298   2.595   2.639   2.639
  2.748   2.794   2.794   2.946   3.316   3.571   3.572   6.093
  6.093   6.132   6.161   6.162   6.183   6.359   6.375   6.375
  6.562   6.587   6.587   6.588   6.588   6.589   6.589   6.613
  6.613   6.625   6.625   6.669   6.738   6.739   6.748   6.812
  6.812   6.867   6.867   6.897   7.141   8.977   9.021   9.021
  9.063   9.063   9.084   9.318   9.326   9.326   9.358   9.358
  9.413   9.660   9.767   9.767  14.985  18.575  19.018  19.018
 35.847  35.921  36.246  36.246  36.361  50.054  50.063  50.079
 50.081  50.111  50.111  50.197  50.207  50.212  50.215  50.215
 50.287  50.291  50.364  50.383  55.671  55.671  55.698  55.721
 55.723  55.723  55.858  55.858  55.945  66.747  66.765  66.765
 
 Beta MOs
 -- Occupied --
-24.732 -24.732 -24.732  -7.009  -1.237  -1.217  -1.216  -0.610
 -0.552  -0.552  -0.506  -0.469  -0.468  -0.463  -0.463  -0.445
 -- Virtual --
 -0.073  -0.059   0.032   0.032   0.041   0.060   0.150   0.150
  0.195   0.195   0.220   0.220   0.231   0.280   0.288   0.296
  0.296   0.299   0.371   0.373   0.373   0.402   0.490   0.490
  0.497   0.497   0.711   0.764   0.764   1.248   1.248   1.282
  1.282   1.284   1.287   1.323   1.360   1.360   1.540   1.540
  1.608   1.630   1.630   1.643   1.703   1.706   1.751   1.751
  1.933   1.934   1.935   1.943   1.963   1.963   2.047   2.161
  2.161   2.183   2.183   2.297   2.298   2.595   2.639   2.639
  2.748   2.794   2.794   2.946   3.316   3.571   3.572   6.093
  6.093   6.132   6.161   6.162   6.183   6.359   6.375   6.375
  6.562   6.587   6.587   6.588   6.588   6.589   6.589   6.613
  6.613   6.625   6.625   6.669   6.738   6.739   6.748   6.812
  6.812   6.867   6.867   6.897   7.141   8.977   9.021   9.021
  9.063   9.063   9.084   9.318   9.326   9.326   9.358   9.358
  9.413   9.660   9.767   9.767  14.985  18.575  19.018  19.018
 35.847  35.921  36.246  36.246  36.361  50.054  50.063  50.079
 50.081  50.111  50.111  50.197  50.207  50.212  50.215  50.215
 50.287  50.291  50.364  50.383  55.671  55.671  55.698  55.721
 55.723  55.723  55.858  55.858  55.945  66.747  66.765  66.765
 --------------------------------------------------------------
 
          Ground-State Mulliken Net Atomic Charges

     Atom                 Charge (a.u.)    Spin (a.u.)
  --------------------------------------------------------
      1 B                     0.466982       0.000000
      2 F                    -0.155487       0.000000
      3 F                    -0.155748       0.000000
      4 F                    -0.155748       0.000000
  --------------------------------------------------------
  Sum of atomic charges =     0.000000
  Sum of spin   charges =     0.000000

 -----------------------------------------------------------------
                    Cartesian Multipole Moments
 -----------------------------------------------------------------
    Charge (ESU x 10^10)
                 0.0000
    Dipole Moment (Debye)
         X       0.0019      Y       0.0000      Z       0.0000
       Tot       0.0019
    Quadrupole Moments (Debye-Ang)
        XX     -23.5784     XY       0.0000     YY     -23.5807
        XZ       0.0000     YZ       0.0000     ZZ     -18.6652
    Octapole Moments (Debye-Ang^2)
       XXX      -2.2711    XXY       0.0000    XYY       2.2754
       YYY       0.0000    XXZ       0.0000    XYZ       0.0000
       YYZ       0.0000    XZZ       0.0009    YZZ       0.0000
       ZZZ       0.0000
    Hexadecapole Moments (Debye-Ang^3)
      XXXX    -121.5090   XXXY       0.0000   XXYY     -40.5027
      XYYY       0.0000   YYYY    -121.5080   XXXZ       0.0000
      XXYZ       0.0000   XYYZ       0.0000   YYYZ       0.0000
      XXZZ     -22.1848   XYZZ       0.0000   YYZZ     -22.1837
      XZZZ       0.0000   YZZZ       0.0000   ZZZZ     -13.8548
 -----------------------------------------------------------------
 Calculating analytic gradient of the SCF energy
 Gradient of XC Energy
            1           2           3           4
    1  -0.0001651   0.2615582  -0.1306965  -0.1306965
    2  -0.0000000   0.0000000  -0.2262209   0.2262209
    3  -0.0000000   0.0000000  -0.0000000  -0.0000000
 Gradient of SCF Energy
            1           2           3           4
    1   0.0000726   0.1154150  -0.0577438  -0.0577438
    2  -0.0000000  -0.0000000  -0.0998049   0.0998049
    3   0.0000000  -0.0000000  -0.0000000  -0.0000000
 Max gradient component =       1.154E-01
 RMS gradient           =       5.767E-02
 Gradient time:  CPU 19.94 s  wall 20.00 s
 Geometry Optimization Parameters
   NAtoms,    NIC,     NZ,  NCons,   NDum,   NFix, NCnnct, MaxDiis
        4      17       6       0       0       0       0       0

 Cartesian Hessian Update
 Hessian Updated using BFGS Update


** GEOMETRY OPTIMIZATION IN CARTESIAN COORDINATES **
   Searching for a Minimum

   Optimization Cycle:   4

                       Coordinates (Angstroms)
     ATOM              X           Y           Z
    1  B           0.000190    0.000000    0.000000
    2  F           1.501293    0.000000    0.000000
    3  F          -0.750741   -1.300106    0.000000
    4  F          -0.750741    1.300106    0.000000
   Point Group: c1    Number of degrees of freedom:   6


   Energy is   -324.614909912


 Translations and Rotations Projected Out of Hessian

  3 Hessian modes will be used to form the next step
  Hessian Eigenvalues:
     0.100119    0.999970    1.000015

 Minimum Search - Taking Simple RFO Step
 Searching for Lamda that Minimizes Along All modes
 Value Taken    Lamda =  -0.15589558
 Calculated Step too Large.  Step scaled by  0.384448
 Step Taken.  Stepsize is  0.300000

                             Maximum     Tolerance    Cnvgd?
         Gradient           0.115415      0.000300      NO
         Displacement       0.173301      0.001200      NO
         Energy change     -0.065123      0.000001      NO

 Writing REM_CC_EA            4
 ----------------------------------------------------
       Standard Nuclear Orientation (Angstroms)
    I     Atom         X            Y            Z
 ----------------------------------------------------
    1      B       0.000164     0.000000     0.000000
    2      F       1.409586     0.000000     0.000000
    3      F      -0.704875    -1.220781     0.000000
    4      F      -0.704875     1.220781     0.000000
 ----------------------------------------------------
 Nuclear Repulsion Energy =   103.3459544612 hartrees
 There are       16 alpha and       16 beta electrons
 Applying Cartesian multipole field
    Component          Value
    ---------          -----
     (2,0,0)        1.00000E-11
     (0,2,0)        2.00000E-11
     (0,0,2)       -3.00000E-11
 Nucleus-field energy     =     0.0000000029 hartrees
 Requested basis set is G3large
 There are 40 shells and 168 basis functions
 A cutoff of  1.0D-11 yielded    715 shell pairs
 There are  12966 function pairs ( 16953 Cartesian)
Evaluating contribution to one-electron hamiltonian from nuclear
 Smallest overlap matrix eigenvalue = 4.99E-04
 Multipole matrices computed through 2nd order
 Guess MOs from SCF MO coefficient file
Reading MOs from coefficient file
Reading MOs from coefficient file
 An unrestricted hybrid HF-DFT SCF calculation will be
 performed using Pulay DIIS extrapolation
 Exchange:     0.2000 Hartree-Fock + 0.0800 Slater + 0.7200 Becke88
 Correlation:  0.8100 LYP + 0.1900 VWN1RPA
 Using SG-1 standard quadrature grid
 SCF converges when DIIS error is below 1.0E-08
 Warning!  Inaccurate integrated density:
   Number of electrons =    32
   Numerical integral  =    32.144117390592
   Relative error      =     0.4503668456 %
 ---------------------------------------
  Cycle       Energy         DIIS Error
 ---------------------------------------
    1    -324.8069403346      3.83E-03
    2    -324.6642558559      8.96E-04
    3    -324.6655861317      5.18E-04
    4    -324.6661115645      1.05E-04
    5    -324.6661266726      4.89E-05
    6    -324.6661317747      1.66E-06
    7    -324.6661317902      3.12E-07
    8    -324.6661317361      2.09E-07
    9    -324.6661317371      2.47E-08
   10    -324.6661317398      5.54E-10 Convergence criterion met
 ---------------------------------------
 One-Electron    Energy =  -656.5249313918
 Total Coulomb   Energy =   263.9532262027
 Alpha Exchange  Energy =    -3.4017144841
 Beta  Exchange  Energy =    -3.4017144841
 DFT   Exchange  Energy =   -27.1231416063
 DFT Correlation Energy =    -1.5138104403
 Nuclear Repu.   Energy =   103.3459544641
 Nuclear Attr.   Energy =  -979.7464583601
 Kinetic         Energy =   323.2215269684
 <S^2> = 0.0000
 SCF time:  CPU 49.40 s  wall 50.08 s
 Final Alpha MO Eigenvalues
            1           2           3           4           5           6
    1 -24.7287016 -24.7285847 -24.7285839  -6.9663368  -1.2583673  -1.2303256
            7           8           9          10          11          12
    1  -1.2302113  -0.6164220  -0.5675292  -0.5674754  -0.5236452  -0.4747374
           13          14          15          16          17          18
    1  -0.4746951  -0.4676310  -0.4675461  -0.4443671  -0.0355460  -0.0319781
           19          20          21
    1   0.0349832   0.0350134   0.0428764
 Final Beta MO Eigenvalues
            1           2           3           4           5           6
    1 -24.7287016 -24.7285847 -24.7285839  -6.9663368  -1.2583673  -1.2303256
            7           8           9          10          11          12
    1  -1.2302113  -0.6164220  -0.5675292  -0.5674754  -0.5236452  -0.4747374
           13          14          15          16          17          18
    1  -0.4746951  -0.4676310  -0.4675461  -0.4443671  -0.0355460  -0.0319781
           19          20          21
    1   0.0349832   0.0350134   0.0428764
 Analysis of SCF Wavefunction
 
 --------------------------------------------------------------
                    Orbital Energies (a.u.)
 --------------------------------------------------------------
 
 Alpha MOs
 -- Occupied --
-24.729 -24.729 -24.729  -6.966  -1.258  -1.230  -1.230  -0.616
 -0.568  -0.567  -0.524  -0.475  -0.475  -0.468  -0.468  -0.444
 -- Virtual --
 -0.036  -0.032   0.035   0.035   0.043   0.100   0.181   0.181
  0.219   0.219   0.223   0.223   0.236   0.278   0.294   0.303
  0.313   0.313   0.380   0.394   0.394   0.423   0.509   0.509
  0.511   0.511   0.714   0.790   0.790   1.254   1.254   1.258
  1.267   1.267   1.295   1.324   1.372   1.372   1.563   1.563
  1.624   1.624   1.665   1.685   1.740   1.741   1.759   1.759
  1.910   1.910   1.930   1.930   1.938   1.990   2.056   2.216
  2.217   2.280   2.280   2.497   2.498   2.730   2.818   2.818
  2.853   2.936   2.936   3.163   3.491   3.585   3.585   6.107
  6.107   6.134   6.169   6.169   6.269   6.351   6.484   6.484
  6.552   6.581   6.581   6.582   6.582   6.582   6.585   6.632
  6.632   6.677   6.677   6.710   6.761   6.807   6.807   6.895
  6.895   6.998   7.037   7.037   7.307   8.977   9.041   9.041
  9.099   9.099   9.124   9.398   9.398   9.409   9.474   9.475
  9.563   9.834   9.834   9.859  15.452  18.622  19.130  19.131
 35.911  36.017  36.304  36.304  36.457  50.065  50.074  50.082
 50.100  50.127  50.127  50.246  50.247  50.247  50.253  50.254
 50.343  50.349  50.399  50.422  55.684  55.684  55.703  55.734
 55.734  55.820  55.991  55.992  56.007  66.772  66.772  66.806
 
 Beta MOs
 -- Occupied --
-24.729 -24.729 -24.729  -6.966  -1.258  -1.230  -1.230  -0.616
 -0.568  -0.567  -0.524  -0.475  -0.475  -0.468  -0.468  -0.444
 -- Virtual --
 -0.036  -0.032   0.035   0.035   0.043   0.100   0.181   0.181
  0.219   0.219   0.223   0.223   0.236   0.278   0.294   0.303
  0.313   0.313   0.380   0.394   0.394   0.423   0.509   0.509
  0.511   0.511   0.714   0.790   0.790   1.254   1.254   1.258
  1.267   1.267   1.295   1.324   1.372   1.372   1.563   1.563
  1.624   1.624   1.665   1.685   1.740   1.741   1.759   1.759
  1.910   1.910   1.930   1.930   1.938   1.990   2.056   2.216
  2.217   2.280   2.280   2.497   2.498   2.730   2.818   2.818
  2.853   2.936   2.936   3.163   3.491   3.585   3.585   6.107
  6.107   6.134   6.169   6.169   6.269   6.351   6.484   6.484
  6.552   6.581   6.581   6.582   6.582   6.582   6.585   6.632
  6.632   6.677   6.677   6.710   6.761   6.807   6.807   6.895
  6.895   6.998   7.037   7.037   7.307   8.977   9.041   9.041
  9.099   9.099   9.124   9.398   9.398   9.409   9.474   9.475
  9.563   9.834   9.834   9.859  15.452  18.622  19.130  19.131
 35.911  36.017  36.304  36.304  36.457  50.065  50.074  50.082
 50.100  50.127  50.127  50.246  50.247  50.247  50.253  50.254
 50.343  50.349  50.399  50.422  55.684  55.684  55.703  55.734
 55.734  55.820  55.991  55.992  56.007  66.772  66.772  66.806
 --------------------------------------------------------------
 
          Ground-State Mulliken Net Atomic Charges

     Atom                 Charge (a.u.)    Spin (a.u.)
  --------------------------------------------------------
      1 B                     0.284735       0.000000
      2 F                    -0.094548       0.000000
      3 F                    -0.095094       0.000000
      4 F                    -0.095094       0.000000
  --------------------------------------------------------
  Sum of atomic charges =     0.000000
  Sum of spin   charges =     0.000000

 -----------------------------------------------------------------
                    Cartesian Multipole Moments
 -----------------------------------------------------------------
    Charge (ESU x 10^10)
                 0.0000
    Dipole Moment (Debye)
         X       0.0017      Y       0.0000      Z       0.0000
       Tot       0.0017
    Quadrupole Moments (Debye-Ang)
        XX     -22.8622     XY       0.0000     YY     -22.8651
        XZ       0.0000     YZ       0.0000     ZZ     -18.3732
    Octapole Moments (Debye-Ang^2)
       XXX      -2.0119    XXY       0.0000    XYY       2.0172
       YYY       0.0000    XXZ       0.0000    XYZ       0.0000
       YYZ       0.0000    XZZ       0.0011    YZZ       0.0000
       ZZZ       0.0000
    Hexadecapole Moments (Debye-Ang^3)
      XXXX    -107.7192   XXXY       0.0000   XXYY     -35.9085
      XYYY       0.0000   YYYY    -107.7350   XXXZ       0.0000
      XXYZ       0.0000   XYYZ       0.0000   YYYZ       0.0000
      XXZZ     -19.8166   XYZZ       0.0000   YYZZ     -19.8186
      XZZZ       0.0000   YZZZ       0.0000   ZZZZ     -13.3445
 -----------------------------------------------------------------
 Calculating analytic gradient of the SCF energy
 Gradient of XC Energy
            1           2           3           4
    1   0.0001218   0.2897106  -0.1449162  -0.1449162
    2   0.0000000  -0.0000000  -0.2505093   0.2505093
    3   0.0000000   0.0000000  -0.0000000  -0.0000000
 Gradient of SCF Energy
            1           2           3           4
    1   0.0002717   0.0774740  -0.0388728  -0.0388728
    2   0.0000000  -0.0000000  -0.0669408   0.0669408
    3   0.0000000   0.0000000  -0.0000000  -0.0000000
 Max gradient component =       7.747E-02
 RMS gradient           =       3.872E-02
 Gradient time:  CPU 20.75 s  wall 20.83 s
 Geometry Optimization Parameters
   NAtoms,    NIC,     NZ,  NCons,   NDum,   NFix, NCnnct, MaxDiis
        4      17       6       0       0       0       0       0

 Cartesian Hessian Update
 Hessian Updated using BFGS Update


** GEOMETRY OPTIMIZATION IN CARTESIAN COORDINATES **
   Searching for a Minimum

   Optimization Cycle:   5

                       Coordinates (Angstroms)
     ATOM              X           Y           Z
    1  B           0.000164    0.000000    0.000000
    2  F           1.409586    0.000000    0.000000
    3  F          -0.704875   -1.220781    0.000000
    4  F          -0.704875    1.220781    0.000000
   Point Group: c1    Number of degrees of freedom:   6


   Energy is   -324.666131740


 Translations and Rotations Projected Out of Hessian

  3 Hessian modes will be used to form the next step
  Hessian Eigenvalues:
     0.218881    0.999971    1.000019

 Minimum Search - Taking Simple RFO Step
 Searching for Lamda that Minimizes Along All modes
 Value Taken    Lamda =  -0.06365960
 Calculated Step too Large.  Step scaled by  0.632015
 Step Taken.  Stepsize is  0.300000

                             Maximum     Tolerance    Cnvgd?
         Gradient           0.077474      0.000300      NO
         Displacement       0.173293      0.001200      NO
         Energy change     -0.051222      0.000001      NO

 Writing REM_CC_EA            4
 ----------------------------------------------------
       Standard Nuclear Orientation (Angstroms)
    I     Atom         X            Y            Z
 ----------------------------------------------------
    1      B      -0.000044     0.000000     0.000000
    2      F       1.317883     0.000000     0.000000
    3      F      -0.658920    -1.141505     0.000000
    4      F      -0.658920     1.141505     0.000000
 ----------------------------------------------------
 Nuclear Repulsion Energy =   110.5329064398 hartrees
 There are       16 alpha and       16 beta electrons
 Applying Cartesian multipole field
    Component          Value
    ---------          -----
     (2,0,0)        1.00000E-11
     (0,2,0)        2.00000E-11
     (0,0,2)       -3.00000E-11
 Nucleus-field energy     =     0.0000000025 hartrees
 Requested basis set is G3large
 There are 40 shells and 168 basis functions
 A cutoff of  1.0D-11 yielded    727 shell pairs
 There are  13218 function pairs ( 17373 Cartesian)
Evaluating contribution to one-electron hamiltonian from nuclear
 Smallest overlap matrix eigenvalue = 3.37E-04
 Multipole matrices computed through 2nd order
 Guess MOs from SCF MO coefficient file
Reading MOs from coefficient file
Reading MOs from coefficient file
 An unrestricted hybrid HF-DFT SCF calculation will be
 performed using Pulay DIIS extrapolation
 Exchange:     0.2000 Hartree-Fock + 0.0800 Slater + 0.7200 Becke88
 Correlation:  0.8100 LYP + 0.1900 VWN1RPA
 Using SG-1 standard quadrature grid
 SCF converges when DIIS error is below 1.0E-08
 Warning!  Inaccurate integrated density:
   Number of electrons =    32
   Numerical integral  =    32.137614986307
   Relative error      =     0.4300468322 %
 ---------------------------------------
  Cycle       Energy         DIIS Error
 ---------------------------------------
    1    -324.8342129972      4.62E-03
    2    -324.6879770629      8.35E-04
    3    -324.6888824003      5.72E-04
    4    -324.6894537627      1.56E-04
    5    -324.6894945262      4.25E-05
    6    -324.6894983255      1.77E-06
    7    -324.6894983333      7.19E-07
    8    -324.6894983244      3.55E-07
    9    -324.6894982923      1.14E-08
   10    -324.6894982959      4.22E-10 Convergence criterion met
 ---------------------------------------
 One-Electron    Energy =  -670.7287752402
 Total Coulomb   Energy =   271.0935717627
 Alpha Exchange  Energy =    -3.4179078646
 Beta  Exchange  Energy =    -3.4179078646
 DFT   Exchange  Energy =   -27.2290701210
 DFT Correlation Energy =    -1.5223154104
 Nuclear Repu.   Energy =   110.5329064423
 Nuclear Attr.   Energy =  -994.5362655047
 Kinetic         Energy =   323.8074902645
 <S^2> = 0.0000
 SCF time:  CPU 52.71 s  wall 53.35 s
 Final Alpha MO Eigenvalues
            1           2           3           4           5           6
    1 -24.7226431 -24.7226398 -24.7226299  -6.9194134  -1.2839469  -1.2461907
            7           8           9          10          11          12
    1  -1.2461798  -0.6211542  -0.5840835  -0.5840689  -0.5448667  -0.4807164
           13          14          15          16          17          18
    1  -0.4807041  -0.4721863  -0.4721797  -0.4411378  -0.0179349   0.0046907
           19          20          21
    1   0.0367031   0.0367412   0.0493891
 Final Beta MO Eigenvalues
            1           2           3           4           5           6
    1 -24.7226431 -24.7226398 -24.7226299  -6.9194134  -1.2839469  -1.2461907
            7           8           9          10          11          12
    1  -1.2461798  -0.6211542  -0.5840835  -0.5840689  -0.5448667  -0.4807164
           13          14          15          16          17          18
    1  -0.4807041  -0.4721863  -0.4721797  -0.4411378  -0.0179349   0.0046907
           19          20          21
    1   0.0367031   0.0367412   0.0493891
 Analysis of SCF Wavefunction
 
 --------------------------------------------------------------
                    Orbital Energies (a.u.)
 --------------------------------------------------------------
 
 Alpha MOs
 -- Occupied --
-24.723 -24.723 -24.723  -6.919  -1.284  -1.246  -1.246  -0.621
 -0.584  -0.584  -0.545  -0.481  -0.481  -0.472  -0.472  -0.441
 -- Virtual --
 -0.018   0.005   0.037   0.037   0.049   0.141   0.188   0.188
  0.226   0.226   0.240   0.243   0.243   0.276   0.299   0.308
  0.337   0.337   0.391   0.446   0.446   0.467   0.525   0.525
  0.526   0.527   0.733   0.816   0.816   1.226   1.254   1.254
  1.259   1.259   1.289   1.315   1.382   1.382   1.604   1.604
  1.622   1.623   1.655   1.716   1.793   1.793   1.801   1.851
  1.851   1.875   1.933   1.933   1.938   1.983   2.161   2.278
  2.278   2.396   2.397   2.734   2.734   2.892   2.948   3.014
  3.014   3.088   3.088   3.404   3.551   3.551   3.622   6.134
  6.134   6.137   6.185   6.185   6.353   6.380   6.540   6.545
  6.545   6.574   6.574   6.575   6.584   6.588   6.588   6.691
  6.691   6.767   6.771   6.771   6.778   6.889   6.889   6.993
  6.993   7.127   7.314   7.314   7.476   8.979   9.073   9.073
  9.152   9.152   9.178   9.474   9.474   9.517   9.621   9.622
  9.771   9.870   9.871  10.025  15.852  18.674  19.387  19.387
 35.979  36.118  36.376  36.376  36.559  50.082  50.087  50.091
 50.125  50.151  50.151  50.279  50.279  50.304  50.306  50.308
 50.399  50.410  50.429  50.454  55.712  55.712  55.713  55.753
 55.753  56.029  56.098  56.183  56.183  66.787  66.787  66.892
 
 Beta MOs
 -- Occupied --
-24.723 -24.723 -24.723  -6.919  -1.284  -1.246  -1.246  -0.621
 -0.584  -0.584  -0.545  -0.481  -0.481  -0.472  -0.472  -0.441
 -- Virtual --
 -0.018   0.005   0.037   0.037   0.049   0.141   0.188   0.188
  0.226   0.226   0.240   0.243   0.243   0.276   0.299   0.308
  0.337   0.337   0.391   0.446   0.446   0.467   0.525   0.525
  0.526   0.527   0.733   0.816   0.816   1.226   1.254   1.254
  1.259   1.259   1.289   1.315   1.382   1.382   1.604   1.604
  1.622   1.623   1.655   1.716   1.793   1.793   1.801   1.851
  1.851   1.875   1.933   1.933   1.938   1.983   2.161   2.278
  2.278   2.396   2.397   2.734   2.734   2.892   2.948   3.014
  3.014   3.088   3.088   3.404   3.551   3.551   3.622   6.134
  6.134   6.137   6.185   6.185   6.353   6.380   6.540   6.545
  6.545   6.574   6.574   6.575   6.584   6.588   6.588   6.691
  6.691   6.767   6.771   6.771   6.778   6.889   6.889   6.993
  6.993   7.127   7.314   7.314   7.476   8.979   9.073   9.073
  9.152   9.152   9.178   9.474   9.474   9.517   9.621   9.622
  9.771   9.870   9.871  10.025  15.852  18.674  19.387  19.387
 35.979  36.118  36.376  36.376  36.559  50.082  50.087  50.091
 50.125  50.151  50.151  50.279  50.279  50.304  50.306  50.308
 50.399  50.410  50.429  50.454  55.712  55.712  55.713  55.753
 55.753  56.029  56.098  56.183  56.183  66.787  66.787  66.892
 --------------------------------------------------------------
 
          Ground-State Mulliken Net Atomic Charges

     Atom                 Charge (a.u.)    Spin (a.u.)
  --------------------------------------------------------
      1 B                     0.017304       0.000000
      2 F                    -0.005549       0.000000
      3 F                    -0.005877       0.000000
      4 F                    -0.005877       0.000000
  --------------------------------------------------------
  Sum of atomic charges =     0.000000
  Sum of spin   charges =     0.000000

 -----------------------------------------------------------------
                    Cartesian Multipole Moments
 -----------------------------------------------------------------
    Charge (ESU x 10^10)
                 0.0000
    Dipole Moment (Debye)
         X      -0.0004      Y       0.0000      Z       0.0000
       Tot       0.0004
    Quadrupole Moments (Debye-Ang)
        XX     -22.1493     XY       0.0000     YY     -22.1506
        XZ       0.0000     YZ       0.0000     ZZ     -18.0446
    Octapole Moments (Debye-Ang^2)
       XXX      -1.7960    XXY       0.0000    XYY       1.7973
       YYY       0.0000    XXZ       0.0000    XYZ       0.0000
       YYZ       0.0000    XZZ       0.0002    YZZ       0.0000
       ZZZ       0.0000
    Hexadecapole Moments (Debye-Ang^3)
      XXXX     -94.8883   XXXY       0.0000   XXYY     -31.6341
      XYYY       0.0000   YYYY     -94.9194   XXXZ       0.0000
      XXYZ       0.0000   XYYZ       0.0000   YYYZ       0.0000
      XXZZ     -17.5958   XYZZ       0.0000   YYZZ     -17.6011
      XZZZ       0.0000   YZZZ       0.0000   ZZZZ     -12.7831
 -----------------------------------------------------------------
 Calculating analytic gradient of the SCF energy
 Gradient of XC Energy
            1           2           3           4
    1   0.0004754   0.3128907  -0.1566830  -0.1566830
    2   0.0000000  -0.0000000  -0.2708732   0.2708732
    3   0.0000000  -0.0000000  -0.0000000  -0.0000000
 Gradient of SCF Energy
            1           2           3           4
    1   0.0002693   0.0053451  -0.0028072  -0.0028072
    2   0.0000000  -0.0000000  -0.0046161   0.0046161
    3   0.0000000  -0.0000000   0.0000000  -0.0000000
 Max gradient component =       5.345E-03
 RMS gradient           =       2.693E-03
 Gradient time:  CPU 22.39 s  wall 22.46 s
 Geometry Optimization Parameters
   NAtoms,    NIC,     NZ,  NCons,   NDum,   NFix, NCnnct, MaxDiis
        4      17       6       0       0       0       0       0

 Cartesian Hessian Update
 Hessian Updated using BFGS Update


** GEOMETRY OPTIMIZATION IN CARTESIAN COORDINATES **
   Searching for a Minimum

   Optimization Cycle:   6

                       Coordinates (Angstroms)
     ATOM              X           Y           Z
    1  B          -0.000044    0.000000    0.000000
    2  F           1.317883    0.000000    0.000000
    3  F          -0.658920   -1.141505    0.000000
    4  F          -0.658920    1.141505    0.000000
   Point Group: c1    Number of degrees of freedom:   6


   Energy is   -324.689498296


 Translations and Rotations Projected Out of Hessian

  3 Hessian modes will be used to form the next step
  Hessian Eigenvalues:
     0.415968    0.999972    1.000020

 Minimum Search - Taking Simple RFO Step
 Searching for Lamda that Minimizes Along All modes
 Value Taken    Lamda =  -0.00020907
 Step Taken.  Stepsize is  0.022405

                             Maximum     Tolerance    Cnvgd?
         Gradient           0.005345      0.000300      NO
         Displacement       0.012897      0.001200      NO
         Energy change     -0.023367      0.000001      NO

 Writing REM_CC_EA            4
 ----------------------------------------------------
       Standard Nuclear Orientation (Angstroms)
    I     Atom         X            Y            Z
 ----------------------------------------------------
    1      B      -0.000202     0.000000     0.000000
    2      F       1.311059     0.000000     0.000000
    3      F      -0.655428    -1.135606     0.000000
    4      F      -0.655428     1.135606     0.000000
 ----------------------------------------------------
 Nuclear Repulsion Energy =   111.1099056889 hartrees
 There are       16 alpha and       16 beta electrons
 Applying Cartesian multipole field
    Component          Value
    ---------          -----
     (2,0,0)        1.00000E-11
     (0,2,0)        2.00000E-11
     (0,0,2)       -3.00000E-11
 Nucleus-field energy     =     0.0000000025 hartrees
 Requested basis set is G3large
 There are 40 shells and 168 basis functions
 A cutoff of  1.0D-11 yielded    727 shell pairs
 There are  13218 function pairs ( 17373 Cartesian)
Evaluating contribution to one-electron hamiltonian from nuclear
 Smallest overlap matrix eigenvalue = 3.28E-04
 Multipole matrices computed through 2nd order
 Guess MOs from SCF MO coefficient file
Reading MOs from coefficient file
Reading MOs from coefficient file
 An unrestricted hybrid HF-DFT SCF calculation will be
 performed using Pulay DIIS extrapolation
 Exchange:     0.2000 Hartree-Fock + 0.0800 Slater + 0.7200 Becke88
 Correlation:  0.8100 LYP + 0.1900 VWN1RPA
 Using SG-1 standard quadrature grid
 SCF converges when DIIS error is below 1.0E-08
 ---------------------------------------
  Cycle       Energy         DIIS Error
 ---------------------------------------
    1    -324.6996006623      3.82E-04
    2    -324.6895594010      6.23E-05
    3    -324.6895626369      5.15E-05
    4    -324.6895670532      1.41E-05
    5    -324.6895674051      2.96E-06
    6    -324.6895674258      3.28E-07
    7    -324.6895674720      2.31E-07
    8    -324.6895674520      1.18E-08
    9    -324.6895674470      8.59E-10 Convergence criterion met
 ---------------------------------------
 One-Electron    Energy =  -671.8662891844
 Total Coulomb   Energy =   271.6662417853
 Alpha Exchange  Energy =    -3.4192395848
 Beta  Exchange  Energy =    -3.4192395848
 DFT   Exchange  Energy =   -27.2379451424
 DFT Correlation Energy =    -1.5230014273
 Nuclear Repu.   Energy =   111.1099056913
 Nuclear Attr.   Energy =  -995.7266367597
 Kinetic         Energy =   323.8603475752
 <S^2> = 0.0000
 SCF time:  CPU 46.98 s  wall 47.59 s
 Final Alpha MO Eigenvalues
            1           2           3           4           5           6
    1 -24.7221132 -24.7221099 -24.7220013  -6.9157896  -1.2860294  -1.2475332
            7           8           9          10          11          12
    1  -1.2474018  -0.6214176  -0.5853890  -0.5853285  -0.5466314  -0.4811359
           13          14          15          16          17          18
    1  -0.4811348  -0.4725530  -0.4724656  -0.4407750  -0.0172012   0.0074290
           19          20          21
    1   0.0367999   0.0368389   0.0504413
 Final Beta MO Eigenvalues
            1           2           3           4           5           6
    1 -24.7221132 -24.7221099 -24.7220013  -6.9157896  -1.2860294  -1.2475332
            7           8           9          10          11          12
    1  -1.2474018  -0.6214176  -0.5853890  -0.5853285  -0.5466314  -0.4811359
           13          14          15          16          17          18
    1  -0.4811348  -0.4725530  -0.4724656  -0.4407750  -0.0172012   0.0074290
           19          20          21
    1   0.0367999   0.0368389   0.0504413
 Analysis of SCF Wavefunction
 
 --------------------------------------------------------------
                    Orbital Energies (a.u.)
 --------------------------------------------------------------
 
 Alpha MOs
 -- Occupied --
-24.722 -24.722 -24.722  -6.916  -1.286  -1.248  -1.247  -0.621
 -0.585  -0.585  -0.547  -0.481  -0.481  -0.473  -0.472  -0.441
 -- Virtual --
 -0.017   0.007   0.037   0.037   0.050   0.144   0.188   0.188
  0.226   0.226   0.240   0.244   0.244   0.276   0.299   0.308
  0.339   0.339   0.391   0.452   0.452   0.471   0.526   0.526
  0.528   0.528   0.736   0.818   0.818   1.224   1.253   1.253
  1.260   1.260   1.288   1.314   1.382   1.382   1.608   1.608
  1.623   1.623   1.653   1.719   1.797   1.797   1.806   1.847
  1.847   1.887   1.934   1.934   1.938   1.983   2.170   2.283
  2.283   2.406   2.406   2.751   2.752   2.906   2.955   3.028
  3.029   3.099   3.099   3.420   3.549   3.549   3.629   6.136
  6.136   6.138   6.187   6.187   6.353   6.389   6.539   6.546
  6.547   6.573   6.573   6.575   6.585   6.589   6.590   6.698
  6.698   6.768   6.780   6.780   6.786   6.895   6.896   7.001
  7.001   7.138   7.339   7.339   7.488   8.980   9.076   9.076
  9.157   9.157   9.183   9.479   9.479   9.525   9.633   9.634
  9.788   9.873   9.873  10.033  15.875  18.678  19.414  19.415
 35.984  36.125  36.382  36.382  36.566  50.083  50.088  50.093
 50.127  50.153  50.153  50.282  50.282  50.308  50.310  50.313
 50.402  50.415  50.431  50.456  55.714  55.715  55.715  55.755
 55.755  56.051  56.107  56.199  56.199  66.789  66.789  66.899
 
 Beta MOs
 -- Occupied --
-24.722 -24.722 -24.722  -6.916  -1.286  -1.248  -1.247  -0.621
 -0.585  -0.585  -0.547  -0.481  -0.481  -0.473  -0.472  -0.441
 -- Virtual --
 -0.017   0.007   0.037   0.037   0.050   0.144   0.188   0.188
  0.226   0.226   0.240   0.244   0.244   0.276   0.299   0.308
  0.339   0.339   0.391   0.452   0.452   0.471   0.526   0.526
  0.528   0.528   0.736   0.818   0.818   1.224   1.253   1.253
  1.260   1.260   1.288   1.314   1.382   1.382   1.608   1.608
  1.623   1.623   1.653   1.719   1.797   1.797   1.806   1.847
  1.847   1.887   1.934   1.934   1.938   1.983   2.170   2.283
  2.283   2.406   2.406   2.751   2.752   2.906   2.955   3.028
  3.029   3.099   3.099   3.420   3.549   3.549   3.629   6.136
  6.136   6.138   6.187   6.187   6.353   6.389   6.539   6.546
  6.547   6.573   6.573   6.575   6.585   6.589   6.590   6.698
  6.698   6.768   6.780   6.780   6.786   6.895   6.896   7.001
  7.001   7.138   7.339   7.339   7.488   8.980   9.076   9.076
  9.157   9.157   9.183   9.479   9.479   9.525   9.633   9.634
  9.788   9.873   9.873  10.033  15.875  18.678  19.414  19.415
 35.984  36.125  36.382  36.382  36.566  50.083  50.088  50.093
 50.127  50.153  50.153  50.282  50.282  50.308  50.310  50.313
 50.402  50.415  50.431  50.456  55.714  55.715  55.715  55.755
 55.755  56.051  56.107  56.199  56.199  66.789  66.789  66.899
 --------------------------------------------------------------
 
          Ground-State Mulliken Net Atomic Charges

     Atom                 Charge (a.u.)    Spin (a.u.)
  --------------------------------------------------------
      1 B                    -0.006568       0.000000
      2 F                     0.002066       0.000000
      3 F                     0.002251       0.000000
      4 F                     0.002251       0.000000
  --------------------------------------------------------
  Sum of atomic charges =     0.000000
  Sum of spin   charges =     0.000000

 -----------------------------------------------------------------
                    Cartesian Multipole Moments
 -----------------------------------------------------------------
    Charge (ESU x 10^10)
                 0.0000
    Dipole Moment (Debye)
         X      -0.0024      Y       0.0000      Z       0.0000
       Tot       0.0024
    Quadrupole Moments (Debye-Ang)
        XX     -22.0971     XY       0.0000     YY     -22.0969
        XZ       0.0000     YZ       0.0000     ZZ     -18.0185
    Octapole Moments (Debye-Ang^2)
       XXX      -1.7850    XXY       0.0000    XYY       1.7812
       YYY       0.0000    XXZ       0.0000    XYZ       0.0000
       YYZ       0.0000    XZZ      -0.0009    YZZ       0.0000
       ZZZ       0.0000
    Hexadecapole Moments (Debye-Ang^3)
      XXXX     -93.9697   XXXY       0.0000   XXYY     -31.3280
      XYYY       0.0000   YYYY     -93.9998   XXXZ       0.0000
      XXYZ       0.0000   XYYZ       0.0000   YYYZ       0.0000
      XXZZ     -17.4360   XYZZ       0.0000   YYZZ     -17.4415
      XZZZ       0.0000   YZZZ       0.0000   ZZZZ     -12.7392
 -----------------------------------------------------------------
 Calculating analytic gradient of the SCF energy
 Gradient of XC Energy
            1           2           3           4
    1   0.0005181   0.3141321  -0.1573251  -0.1573251
    2   0.0000000  -0.0000000  -0.2721189   0.2721189
    3   0.0000000  -0.0000000  -0.0000000  -0.0000000
 Gradient of SCF Energy
            1           2           3           4
    1   0.0000335  -0.0017966   0.0008816   0.0008816
    2   0.0000000   0.0000000   0.0017032  -0.0017032
    3  -0.0000000   0.0000000  -0.0000000  -0.0000000
 Max gradient component =       1.797E-03
 RMS gradient           =       9.392E-04
 Gradient time:  CPU 22.26 s  wall 22.32 s
 Geometry Optimization Parameters
   NAtoms,    NIC,     NZ,  NCons,   NDum,   NFix, NCnnct, MaxDiis
        4      17       6       0       0       0       0       0

 Cartesian Hessian Update
 Hessian Updated using BFGS Update


** GEOMETRY OPTIMIZATION IN CARTESIAN COORDINATES **
   Searching for a Minimum

   Optimization Cycle:   7

                       Coordinates (Angstroms)
     ATOM              X           Y           Z
    1  B          -0.000202    0.000000    0.000000
    2  F           1.311059    0.000000    0.000000
    3  F          -0.655428   -1.135606    0.000000
    4  F          -0.655428    1.135606    0.000000
   Point Group: c1    Number of degrees of freedom:   6


   Energy is   -324.689567447


 Translations and Rotations Projected Out of Hessian

  3 Hessian modes will be used to form the next step
  Hessian Eigenvalues:
     0.561131    0.999772    1.000154

 Minimum Search - Taking Simple RFO Step
 Searching for Lamda that Minimizes Along All modes
 Value Taken    Lamda =  -0.00001882
 Step Taken.  Stepsize is  0.005789

                             Maximum     Tolerance    Cnvgd?
         Gradient           0.001797      0.000300      NO
         Displacement       0.003283      0.001200      NO
         Energy change     -0.000069      0.000001      NO

 Writing REM_CC_EA            4
 ----------------------------------------------------
       Standard Nuclear Orientation (Angstroms)
    I     Atom         X            Y            Z
 ----------------------------------------------------
    1      B      -0.000211     0.000000     0.000000
    2      F       1.312796     0.000000     0.000000
    3      F      -0.656292    -1.137167     0.000000
    4      F      -0.656292     1.137167     0.000000
 ----------------------------------------------------
 Nuclear Repulsion Energy =   110.9602673106 hartrees
 There are       16 alpha and       16 beta electrons
 Applying Cartesian multipole field
    Component          Value
    ---------          -----
     (2,0,0)        1.00000E-11
     (0,2,0)        2.00000E-11
     (0,0,2)       -3.00000E-11
 Nucleus-field energy     =     0.0000000025 hartrees
 Requested basis set is G3large
 There are 40 shells and 168 basis functions
 A cutoff of  1.0D-11 yielded    727 shell pairs
 There are  13218 function pairs ( 17373 Cartesian)
Evaluating contribution to one-electron hamiltonian from nuclear
 Smallest overlap matrix eigenvalue = 3.30E-04
 Multipole matrices computed through 2nd order
 Guess MOs from SCF MO coefficient file
Reading MOs from coefficient file
Reading MOs from coefficient file
 An unrestricted hybrid HF-DFT SCF calculation will be
 performed using Pulay DIIS extrapolation
 Exchange:     0.2000 Hartree-Fock + 0.0800 Slater + 0.7200 Becke88
 Correlation:  0.8100 LYP + 0.1900 VWN1RPA
 Using SG-1 standard quadrature grid
 SCF converges when DIIS error is below 1.0E-08
 ---------------------------------------
  Cycle       Energy         DIIS Error
 ---------------------------------------
    1    -324.6870124234      9.92E-05
    2    -324.6895761557      1.61E-05
    3    -324.6895763592      1.35E-05
    4    -324.6895766639      3.67E-06
    5    -324.6895766829      7.54E-07
    6    -324.6895766856      4.55E-08
    7    -324.6895766636      3.26E-08
    8    -324.6895766630      4.77E-09 Convergence criterion met
 ---------------------------------------
 One-Electron    Energy =  -671.5713333467
[...]
    2   0.0000003  -0.0000000  -0.2718280   0.2718278
    3  -0.0003010   0.0000211   0.0000215   0.0002584
 Gradient of SCF Energy
            1           2           3           4
    1   0.0000527   0.0000875  -0.0000700  -0.0000702
    2  -0.0000002  -0.0000000   0.0000416  -0.0000414
    3  -0.0001029   0.0000347   0.0000349   0.0000332
 Max gradient component =       1.029E-04
 RMS gradient           =       5.613E-05
 Gradient time:  CPU 22.39 s  wall 22.47 s
 Writing REM_CC_EA            4
 ----------------------------------------------------
       Standard Nuclear Orientation (Angstroms)
    I     Atom         X            Y            Z
 ----------------------------------------------------
    1      B      -0.000211     0.000000     0.000000
    2      F       1.312796     0.000000     0.000000
    3      F      -0.656292    -1.137167     0.000000
    4      F      -0.656292     1.137167    -0.001000
 ----------------------------------------------------
 Nuclear Repulsion Energy =   110.9602584042 hartrees
 There are       16 alpha and       16 beta electrons

                       Distance Matrix (Angstroms)
             B (  1)   F (  2)   F (  3)
   F (  2)  1.313007
   F (  3)  1.312856  2.273864
   F (  4)  1.312856  2.273864  2.274334
 
 Requested basis set is G3large
 There are 40 shells and 168 basis functions
 A cutoff of  1.0D-11 yielded    727 shell pairs
 There are  13218 function pairs ( 17373 Cartesian)
Evaluating contribution to one-electron hamiltonian from nuclear
 Smallest overlap matrix eigenvalue = 3.30E-04
 Multipole matrices computed through 2nd order
 Guess MOs from SCF MO coefficient file
Reading MOs from coefficient file
Reading MOs from coefficient file
 An unrestricted hybrid HF-DFT SCF calculation will be
 performed using Pulay DIIS extrapolation
 Exchange:     0.2000 Hartree-Fock + 0.0800 Slater + 0.7200 Becke88
 Correlation:  0.8100 LYP + 0.1900 VWN1RPA
 Using SG-1 standard quadrature grid
 SCF converges when DIIS error is below 1.0E-08
 ---------------------------------------
  Cycle       Energy         DIIS Error
 ---------------------------------------
    1    -324.6895741293      2.86E-05
    2    -324.6895766342      2.23E-06
    3    -324.6895766603      6.00E-07
    4    -324.6895766573      1.65E-07
    5    -324.6895766552      8.51E-08
    6    -324.6895766578      2.74E-08
    7    -324.6895766574      2.16E-09 Convergence criterion met
 ---------------------------------------
 One-Electron    Energy =  -671.5713152148
 Total Coulomb   Energy =   271.5177294851
 Alpha Exchange  Energy =    -3.4188937668
 Beta  Exchange  Energy =    -3.4188937668
 DFT   Exchange  Energy =   -27.2356383187
 DFT Correlation Energy =    -1.5228234795
 Nuclear Repu.   Energy =   110.9602584042
 Nuclear Attr.   Energy =  -995.4178714861
 Kinetic         Energy =   323.8465562713
 <S^2> = 0.0000
 SCF time:  CPU 35.89 s  wall 36.39 s
 Final Alpha MO Eigenvalues
            1           2           3           4           5           6
    1 -24.7222595 -24.7222563 -24.7221499  -6.9167269  -1.2854891  -1.2471990
            7           8           9          10          11          12
    1  -1.2470708  -0.6213509  -0.5850580  -0.5849955  -0.5461728  -0.4810298
           13          14          15          16          17          18
    1  -0.4810221  -0.4724680  -0.4723824  -0.4408706  -0.0173879   0.0067313
           19          20          21
    1   0.0367747   0.0368145   0.0501556
 Final Beta MO Eigenvalues
            1           2           3           4           5           6
    1 -24.7222595 -24.7222563 -24.7221499  -6.9167269  -1.2854891  -1.2471990
            7           8           9          10          11          12
    1  -1.2470708  -0.6213509  -0.5850580  -0.5849955  -0.5461728  -0.4810298
           13          14          15          16          17          18
    1  -0.4810221  -0.4724680  -0.4723824  -0.4408706  -0.0173879   0.0067313
           19          20          21
    1   0.0367747   0.0368145   0.0501556
 Analysis of SCF Wavefunction
 
 --------------------------------------------------------------
                    Orbital Energies (a.u.)
 --------------------------------------------------------------
 
 Alpha MOs
 -- Occupied --
-24.722 -24.722 -24.722  -6.917  -1.285  -1.247  -1.247  -0.621
 -0.585  -0.585  -0.546  -0.481  -0.481  -0.472  -0.472  -0.441
 -- Virtual --
 -0.017   0.007   0.037   0.037   0.050   0.143   0.188   0.188
  0.226   0.226   0.240   0.243   0.243   0.276   0.299   0.308
  0.338   0.338   0.391   0.451   0.451   0.470   0.526   0.526
  0.527   0.528   0.735   0.817   0.817   1.224   1.253   1.253
  1.260   1.260   1.288   1.314   1.382   1.382   1.607   1.607
  1.623   1.623   1.653   1.719   1.796   1.796   1.805   1.848
  1.848   1.884   1.933   1.933   1.938   1.983   2.168   2.282
  2.282   2.403   2.404   2.747   2.747   2.902   2.953   3.025
  3.025   3.096   3.096   3.416   3.549   3.549   3.627   6.135
  6.136   6.137   6.186   6.186   6.353   6.387   6.539   6.546
  6.546   6.573   6.573   6.575   6.585   6.589   6.589   6.696
  6.696   6.768   6.777   6.778   6.784   6.893   6.894   6.999
  6.999   7.135   7.333   7.333   7.485   8.980   9.075   9.075
  9.156   9.156   9.182   9.478   9.478   9.523   9.630   9.631
  9.784   9.872   9.872  10.031  15.869  18.677  19.407  19.407
 35.983  36.123  36.381  36.381  36.564  50.083  50.088  50.092
 50.127  50.152  50.152  50.281  50.281  50.307  50.309  50.311
 50.401  50.414  50.430  50.455  55.714  55.714  55.714  55.754
 55.754  56.045  56.105  56.195  56.195  66.788  66.788  66.897
 
 Beta MOs
 -- Occupied --
-24.722 -24.722 -24.722  -6.917  -1.285  -1.247  -1.247  -0.621
 -0.585  -0.585  -0.546  -0.481  -0.481  -0.472  -0.472  -0.441
 -- Virtual --
 -0.017   0.007   0.037   0.037   0.050   0.143   0.188   0.188
  0.226   0.226   0.240   0.243   0.243   0.276   0.299   0.308
  0.338   0.338   0.391   0.451   0.451   0.470   0.526   0.526
  0.527   0.528   0.735   0.817   0.817   1.224   1.253   1.253
  1.260   1.260   1.288   1.314   1.382   1.382   1.607   1.607
  1.623   1.623   1.653   1.719   1.796   1.796   1.805   1.848
  1.848   1.884   1.933   1.933   1.938   1.983   2.168   2.282
  2.282   2.403   2.404   2.747   2.747   2.902   2.953   3.025
  3.025   3.096   3.096   3.416   3.549   3.549   3.627   6.135
  6.136   6.137   6.186   6.186   6.353   6.387   6.539   6.546
  6.546   6.573   6.573   6.575   6.585   6.589   6.589   6.696
  6.696   6.768   6.777   6.778   6.784   6.893   6.894   6.999
  6.999   7.135   7.333   7.333   7.485   8.980   9.075   9.075
  9.156   9.156   9.182   9.478   9.478   9.523   9.630   9.631
  9.784   9.872   9.872  10.031  15.869  18.677  19.407  19.407
 35.983  36.123  36.381  36.381  36.564  50.083  50.088  50.092
 50.127  50.152  50.152  50.281  50.281  50.307  50.309  50.311
 50.401  50.414  50.430  50.455  55.714  55.714  55.714  55.754
 55.754  56.045  56.105  56.195  56.195  66.788  66.788  66.897
 --------------------------------------------------------------
 
          Ground-State Mulliken Net Atomic Charges

     Atom                 Charge (a.u.)    Spin (a.u.)
  --------------------------------------------------------
      1 B                    -0.000347       0.000000
      2 F                     0.000012       0.000000
      3 F                     0.000168       0.000000
      4 F                     0.000167       0.000000
  --------------------------------------------------------
  Sum of atomic charges =     0.000000
  Sum of spin   charges =     0.000000

 -----------------------------------------------------------------
                    Cartesian Multipole Moments
 -----------------------------------------------------------------
    Charge (ESU x 10^10)
                 0.0000
    Dipole Moment (Debye)
         X      -0.0024      Y       0.0000      Z       0.0016
       Tot       0.0028
    Quadrupole Moments (Debye-Ang)
        XX     -22.1106     XY       0.0000     YY     -22.1107
        XZ      -0.0010     YZ       0.0018     ZZ     -18.0253
    Octapole Moments (Debye-Ang^2)
       XXX      -1.7884    XXY       0.0000    XYY       1.7852
       YYY       0.0000    XXZ       0.0051    XYZ      -0.0008
       YYZ       0.0060    XZZ      -0.0009    YZZ       0.0000
       ZZZ       0.0151
    Hexadecapole Moments (Debye-Ang^3)
      XXXX     -94.2021   XXXY       0.0000   XXYY     -31.4070
      XYYY       0.0000   YYYY     -94.2410   XXXZ      -0.0105
      XXYZ       0.0061   XYYZ      -0.0036   YYYZ       0.0184
      XXZZ     -17.4765   XYZZ       0.0000   YYZZ     -17.4834
      XZZZ      -0.0101   YZZZ       0.0175   ZZZZ     -12.7506
 -----------------------------------------------------------------
 Calculating analytic gradient of the SCF energy
 Gradient of XC Energy
            1           2           3           4
    1   0.0004911   0.3137947  -0.1571430  -0.1571428
    2   0.0000003  -0.0000000  -0.2718280   0.2718278
    3   0.0003010  -0.0000211  -0.0000215  -0.0002584
 Gradient of SCF Energy
            1           2           3           4
    1   0.0000527   0.0000875  -0.0000700  -0.0000702
    2  -0.0000002  -0.0000000   0.0000416  -0.0000414
    3   0.0001029  -0.0000347  -0.0000349  -0.0000332
 Max gradient component =       1.029E-04
 RMS gradient           =       5.613E-05
 Gradient time:  CPU 22.52 s  wall 22.59 s
Dipole drv :
gprntSymmMtrx error report: 
 Final Hessian.
            1           2           3           4           5           6
    1   0.6627023   0.0000004  -0.0000080  -0.3853064   0.0000001  -0.0000008
    2   0.0000004   0.6633344  -0.0000011  -0.0000005  -0.0567112  -0.0000011
    3  -0.0000080  -0.0000011   0.1644544   0.0000048   0.0000000  -0.0555993
    4  -0.3853064  -0.0000005   0.0000048   0.4729601   0.0000008  -0.0000003
    5   0.0000001  -0.0567112   0.0000000   0.0000008   0.0647907   0.0000004
    6  -0.0000008  -0.0000011  -0.0555993  -0.0000003   0.0000004   0.0188354
    7  -0.1386977  -0.1426476   0.0000000  -0.0438272  -0.0395283   0.0000007
    8  -0.1427475  -0.3033125   0.0000000  -0.0291061  -0.0040403   0.0000000
    9   0.0000005   0.0000010  -0.0544273  -0.0000008  -0.0000001   0.0183821
   10  -0.1386977   0.1426477   0.0000015  -0.0438272   0.0395274   0.0000004
   11   0.1427473  -0.3033139  -0.0000012   0.0291064  -0.0040388   0.0000000
   12   0.0000004  -0.0000005  -0.0544273  -0.0000008   0.0000000   0.0183821
            7           8           9          10          11          12
    1  -0.1386977  -0.1427475   0.0000005  -0.1386977   0.1427473   0.0000004
    2  -0.1426476  -0.3033125   0.0000010   0.1426477  -0.3033139  -0.0000005
    3   0.0000000   0.0000000  -0.0544273   0.0000015  -0.0000012  -0.0544273
    4  -0.0438272  -0.0291061  -0.0000008  -0.0438272   0.0291064  -0.0000008
    5  -0.0395283  -0.0040403  -0.0000001   0.0395274  -0.0040388   0.0000000
    6   0.0000007   0.0000000   0.0183821   0.0000004   0.0000000   0.0183821
    7   0.1664321   0.1770151  -0.0000001   0.0160929   0.0051610   0.0000003
    8   0.1770151   0.3704652  -0.0000001  -0.0051609  -0.0631114   0.0000006
    9  -0.0000001  -0.0000001   0.0175660   0.0000004   0.0000000   0.0184788
   10   0.0160929  -0.0051609   0.0000004   0.1664321  -0.1770153  -0.0000000
   11   0.0051610  -0.0631114   0.0000000  -0.1770153   0.3704661  -0.0000001
   12   0.0000003   0.0000006   0.0184788  -0.0000000  -0.0000001   0.0175660
 Writing REM_CC_EA            4
 ----------------------------------------------------
       Standard Nuclear Orientation (Angstroms)
    I     Atom         X            Y            Z
 ----------------------------------------------------
    1      B      -0.000211     0.000000     0.000000
    2      F       1.312796     0.000000     0.000000
    3      F      -0.656292    -1.137167     0.000000
    4      F      -0.656292     1.137167     0.000000
 ----------------------------------------------------
 Nuclear Repulsion Energy =   110.9602673106 hartrees
 There are       16 alpha and       16 beta electrons
 old dipole drv.
            1           2           3           4           5           6
    1   2.0614399   0.0000128   0.0000609  -0.9619341  -0.0000021   0.0000065
    2  -0.0000003   2.0623905   0.0000158   0.0000003  -0.4126973   0.0000086
    3   0.0000000   0.0000003   0.9769151   0.0000046   0.0000002  -0.3258158
            7           8           9          10          11          12
    1  -0.5497512  -0.2375351  -0.0000031  -0.5497512   0.2375354  -0.0000028
    2  -0.2376123  -0.8248326  -0.0000068   0.2376117  -0.8248265   0.0000040
    3  -0.0000024  -0.0000000  -0.3255555  -0.0000021   0.0000001  -0.3255554
 New transposed dipole drv.
            1           2           3
    1   2.0614399  -0.0000003   0.0000000
    2   0.0000128   2.0623905   0.0000003
    3   0.0000609   0.0000158   0.9769151
    4  -0.9619341   0.0000003   0.0000046
    5  -0.0000021  -0.4126973   0.0000002
    6   0.0000065   0.0000086  -0.3258158
    7  -0.5497512  -0.2376123  -0.0000024
    8  -0.2375351  -0.8248326  -0.0000000
    9  -0.0000031  -0.0000068  -0.3255555
   10  -0.5497512   0.2376117  -0.0000021
   11   0.2375354  -0.8248265   0.0000001
   12  -0.0000028   0.0000040  -0.3255554
FINAL TENSOR RESULT:
Order 2, Length 12
Order 1, Length 12
   0.6627023   0.0000004  -0.0000080  -0.3853064   0.0000001  -0.0000008  -0.1386977  -0.1427475   0.0000005  -0.1386977   0.1427473   0.0000004
Order 1, Length 12
   0.0000004   0.6633344  -0.0000011  -0.0000005  -0.0567112  -0.0000011  -0.1426476  -0.3033125   0.0000010   0.1426477  -0.3033139  -0.0000005
Order 1, Length 12
  -0.0000080  -0.0000011   0.1644544   0.0000048   0.0000000  -0.0555993   0.0000000   0.0000000  -0.0544273   0.0000015  -0.0000012  -0.0544273
Order 1, Length 12
  -0.3853064  -0.0000005   0.0000048   0.4729601   0.0000008  -0.0000003  -0.0438272  -0.0291061  -0.0000008  -0.0438272   0.0291064  -0.0000008
Order 1, Length 12
   0.0000001  -0.0567112   0.0000000   0.0000008   0.0647907   0.0000004  -0.0395283  -0.0040403  -0.0000001   0.0395274  -0.0040388   0.0000000
Order 1, Length 12
  -0.0000008  -0.0000011  -0.0555993  -0.0000003   0.0000004   0.0188354   0.0000007   0.0000000   0.0183821   0.0000004   0.0000000   0.0183821
Order 1, Length 12
  -0.1386977  -0.1426476   0.0000000  -0.0438272  -0.0395283   0.0000007   0.1664321   0.1770151  -0.0000001   0.0160929   0.0051610   0.0000003
Order 1, Length 12
  -0.1427475  -0.3033125   0.0000000  -0.0291061  -0.0040403   0.0000000   0.1770151   0.3704652  -0.0000001  -0.0051609  -0.0631114   0.0000006
Order 1, Length 12
   0.0000005   0.0000010  -0.0544273  -0.0000008  -0.0000001   0.0183821  -0.0000001  -0.0000001   0.0175660   0.0000004   0.0000000   0.0184788
Order 1, Length 12
  -0.1386977   0.1426477   0.0000015  -0.0438272   0.0395274   0.0000004   0.0160929  -0.0051609   0.0000004   0.1664321  -0.1770153  -0.0000000
Order 1, Length 12
   0.1427473  -0.3033139  -0.0000012   0.0291064  -0.0040388   0.0000000   0.0051610  -0.0631114   0.0000000  -0.1770153   0.3704661  -0.0000001
Order 1, Length 12
   0.0000004  -0.0000005  -0.0544273  -0.0000008   0.0000000   0.0183821   0.0000003   0.0000006   0.0184788  -0.0000000  -0.0000001   0.0175660


 # Finishing finite difference calculation for IDERIV #
 ######################################################
 ######################################################
 Requested basis set is G3large
 There are 40 shells and 168 basis functions
 **********************************************************************
 **                                                                  **
 **                       VIBRATIONAL ANALYSIS                       **
 **                       --------------------                       **
 **                                                                  **
 **        VIBRATIONAL FREQUENCIES (CM**-1) AND NORMAL MODES         **
 **     FORCE CONSTANTS (mDYN/ANGSTROM) AND REDUCED MASSES (AMU)     **
 **                  INFRARED INTENSITIES (KM/MOL)                   **
 **                                                                  **
 **********************************************************************
 

 Mode:                 1                      2                      3
 Frequency:       474.75                 475.41                 686.27
 Force Cnst:      2.3731                 2.3801                 3.2781
 Red. Mass:      17.8707                17.8727                11.8135
 IR Active:          YES                    YES                    YES
 IR Intens:       12.968                 12.938                100.859
 Raman Active:       YES                    YES                    YES
               X      Y      Z        X      Y      Z        X      Y      Z
 B         -0.376  0.000  0.000    0.000 -0.375  0.000    0.000  0.000  0.948
 F         -0.457  0.000  0.000    0.000  0.603  0.000    0.000  0.000 -0.183
 F          0.337 -0.460  0.000   -0.459 -0.193  0.000    0.000  0.000 -0.183
 F          0.337  0.460  0.000    0.459 -0.193  0.000    0.000  0.000 -0.183
 TransDip  -0.115  0.000  0.000    0.000 -0.115  0.000    0.000  0.000  0.322

 Mode:                 4                      5                      6
 Frequency:       887.98                1446.20                1446.73
 Force Cnst:      8.8263                15.1521                15.1621
 Red. Mass:      18.9984                12.2960                12.2951
 IR Active:          YES                    YES                    YES
 IR Intens:        0.000                447.733                448.177
 Raman Active:       YES                    YES                    YES
               X      Y      Z        X      Y      Z        X      Y      Z
 B          0.000  0.000  0.000    0.916  0.000  0.000    0.000  0.916  0.000
 F          0.578  0.000  0.000   -0.326  0.000  0.000    0.000 -0.027  0.000
 F         -0.289 -0.499  0.000   -0.102 -0.130  0.000   -0.129 -0.252  0.000
 F         -0.289  0.499  0.000   -0.102  0.130  0.000    0.129 -0.252  0.000
 TransDip   0.000  0.000  0.000    0.678  0.000  0.000    0.000  0.678  0.000

 STANDARD THERMODYNAMIC QUANTITIES AT   298.18 K  AND     1.00 ATM

   This Molecule has  0 Imaginary Frequencies
   Zero point vibrational energy:        7.744 kcal/mol

   Atom    1 Element B  Has Mass   11.00931
   Atom    2 Element F  Has Mass   18.99840
   Atom    3 Element F  Has Mass   18.99840
   Atom    4 Element F  Has Mass   18.99840
   Molecular Mass:    68.004510 amu
   Principal axes and moments of inertia in atomic units:
                             1           2           3
    Eigenvalues --      175.36933   175.46612   350.83544
          X               0.00000     1.00000     0.00000
          Y               1.00000     0.00000     0.00000
          Z               0.00000     0.00000     1.00000
   Rotational Symmetry Number is   1
   The Molecule is an Asymmetric Top
   Translational Enthalpy:        0.889 kcal/mol
   Rotational Enthalpy:           0.889 kcal/mol
   Vibrational Enthalpy:          8.167 kcal/mol
   gas constant (RT):             0.593 kcal/mol
   Translational Entropy:        38.569  cal/mol.K
   Rotational Entropy:           23.894  cal/mol.K
   Vibrational Entropy:           1.946  cal/mol.K

   Total Enthalpy:               10.537 kcal/mol
   Total Entropy:                64.409  cal/mol.K
 Total job time:  1527.36s(wall), 1510.50s(cpu) 
 Fri May 16 04:39:21 2014

        *************************************************************
        *                                                           *
        *  Thank you very much for using Q-Chem.  Have a nice day.  *
        *                                                           *
        *************************************************************


0 sent ACK to 0 
now end server 0 ... 
