Process 0 of 1 is on cl087.stfx.acenet.ca - thread support 1
initial socket setup ...start
initial socket setup ...done 
now start server 0 ... 

cmd = /usr/bin/ssh clhead /usr/local/qchem/bin/get_hostid 396611129 > /scratch/tmp/5955522.1.short.q/qchem22638/lic.dat
                  Welcome to Q-Chem
     A Quantum Leap Into The Future Of Chemistry

 Y. Shao, L. Fusti-Molnar, Y. Jung, J. Kussmann, C. Ochsenfeld,
 S. T. Brown, A. T. B. Gilbert, L. V. Slipchenko,S. V. Levchenko,
 D. P. O'Neill, R. A. DiStasio Jr., R. C. Lochan, T. Wang,
 G. J. O. Beran, N. A. Besley, J. M. Herbert, C. Y. Lin,
 T. Van Voorhis, S. H. Chien, A. Sodt, R. P. Steele, 
 V. A. Rassolov, P. E. Maslen, P. P. Korambath, R. D. Adamson,
 B. Austin, J. Baker, E. F. C. Byrd, H. Dachsel, R. J. Doerksen,
 A. Dreuw, B. D. Dunietz, A. D. Dutoi, T. R. Furlani,
 S. R. Gwaltney, A. Heyden, S. Hirata, C.-P. Hsu, G. Kedziora,
 R. Z. Khaliullin, P. Klunzinger, A. M. Lee, M. S. Lee, W. Liang,
 I. Lotan, N. Nair, B. Peters, E. I. Proynov, P. A. Pieniazek, 
 Y. M. Rhee, J. Ritchie, E. Rosta, C. D. Sherrill, 
 A. C. Simmonett, J. E. Subotnik, H. L. Woodcock III,
 W. Zhang, A. T. Bell, A. K. Chakraborty, D. M. Chipman,
 F. J. Keil, A. Warshel, W. J. Hehre, H. F. Schaefer III,
 J. Kong, A. I. Krylov, P. M. W. Gill, M. Head-Gordon,
 Q-Chem, Version 3.1, Q-Chem, Inc., Pittsburgh, PA (2007).

 Additional authors for Version 3.1: 
 Z. Gan, Y. Zhao, N. E. Schultz, D. Truhlar, E. Epifanovsky and M. Oana.

 Additional authors for Version 3.2: 
 R. Baer, B. R. Brooks, D. Casanova, J.-D. Chai, C.-L. Cheng, 
 C. Cramer, D. Crittenden, A. Ghysels, G. Hawkins, E. G. Hohenstein, 
 C. Kelley, W. Kurlancheek, D. Liotard, E. Livshits, P. Manohar, 
 A. Marenich, D. Neuhauser, R. Olson, M. A. Rohrdanz, K. S. Thanthiriwatte, 
 A. J. W. Thom, V. Vanovschi, C. F. Williams, Q. Wu and Z.-Q. You. 


 Intel X86 Linux Version

 Q-chem begins on Tue Apr 30 20:57:34 2013  

 Parallel job on  1  processors
Processing $rem in /usr/local/qchem/config/preferences.

theFileMan(): MAXOPENFILES=974 MAX_SUB_FILE_NUM=16
Maximum size of a physical file is 2.0 GB, maximum size of a tmp-file is 32.0 GB


--------------------------------------------------------------
User input:
--------------------------------------------------------------

$molecule
-1,2
Si
X,1,1.
H,1,R,2,A
H,1,R,2,A,3,180.,0

 R=1.53002839
 A=45.6175498

$end

$comment
negative
$end

$xc_functional
C PBE   1.00
X wPBE  1.00
$end

$rem
SYMMETRY_DECOMPOSITION	0
exchange 		general
LRC_DFT                 true
BASIS                   g3large
omega			370
mem_static              760
max_scf_cycles          200
scf_final_print         1
sym_ignore              true
$end

--------------------------------------------------------------
 Writing REM_CC_EA            3
 ----------------------------------------------------
       Standard Nuclear Orientation (Angstroms)
    I     Atom         X            Y            Z
 ----------------------------------------------------
    1      Si      0.000000     0.000000     0.000000
    2      H       1.093491     0.000000     1.070170
    3      H      -1.093491     0.000000     1.070170
 ----------------------------------------------------
 Nuclear Repulsion Energy =     9.9260759379 hartrees
 There are        9 alpha and        8 beta electrons
 Requested basis set is G3large
 There are 31 shells and 86 basis functions

Total QAlloc Memory Limit   2000 MB
Mega-Array Size       743 MB
MEM_STATIC part       760 MB

                       Distance Matrix (Angstroms)
             Si(  1)   H (  2)
   H (  2)  1.530028
   H (  3)  1.530028  2.186983
 
 A cutoff of  1.0D-08 yielded    496 shell pairs
 There are   3877 function pairs (  5178 Cartesian)
Evaluating contribution to one-electron hamiltonian from nuclear
 Smallest overlap matrix eigenvalue = 2.11E-03
 Multipole matrices computed through 2nd order

  Scale SEOQF with 1.000000e-01/1.000000e-01/1.000000e-01

 Standard Electronic Orientation quadrupole field applied
 Nucleus-field energy     =    -0.0000000002 hartrees
 Guess from superposition of atomic densities
 Warning:  Energy on first SCF cycle will be non-variational
 Long-range K will be added via erf
 Coulomb attenuation parameter = 0.37 bohr**(-1)
 An unrestricted Kohn-Sham SCF calculation will be
 performed using Pulay DIIS extrapolation
 Exchange:  wPBE + LR-HF      Correlation:  PBE
 Using SG-1 standard quadrature grid
 SCF converges when DIIS error is below 1.0E-05
 Requested basis set is G3large
 There are 31 shells and 86 basis functions
 A cutoff of  1.0D-08 yielded    496 shell pairs
 There are   3877 function pairs (  5178 Cartesian)
 Warning!  Inaccurate integrated density:
   Number of electrons =    17
   Numerical integral  =    16.000010282736
   Relative error      =    -5.8822924545 %
 ---------------------------------------
  Cycle       Energy         DIIS Error
 ---------------------------------------
    1    -290.2929447696      2.16E-02
    2    -290.5080182570      2.98E-03
    3    -290.5363143687      1.48E-03
    4    -290.5396687952      4.28E-04
    5    -290.5409257156      1.78E-04
    6    -290.5414319216      6.22E-05
    7    -290.5415227189      1.99E-05
    8    -290.5415338495      7.79E-06 Convergence criterion met
 ---------------------------------------
 One-Electron    Energy =  -425.9585856479
 Total Coulomb   Energy =   147.1337319501
 Alpha Exchange  Energy =    -1.6478363603
 Beta  Exchange  Energy =    -1.5034531755
 DFT   Exchange  Energy =   -17.9135967173
 DFT Correlation Energy =    -0.5778698364
 Nuclear Repu.   Energy =     9.9260759377
 Nuclear Attr.   Energy =  -716.0052478640
 Kinetic         Energy =   290.0466622161
 <S^2> = 0.7623
 SCF time:  CPU 13.02 s  wall 14.10 s
 Final Alpha MO Eigenvalues
            1           2           3           4           5           6
    1 -65.3541785  -5.0113198  -3.4187692  -3.4145244  -3.4116523  -0.4080108
            7           8           9          10          11          12
    1  -0.2049518  -0.1134650  -0.0547869   0.1928727   0.2089618   0.2189939
           13          14
    1   0.2249863   0.2272900
 Final Beta MO Eigenvalues
            1           2           3           4           5           6
    1 -65.3521322  -5.0091373  -3.4134586  -3.4118687  -3.4107994  -0.3805569
            7           8           9          10          11          12
    1  -0.2017047  -0.0997794   0.1863989   0.1944955   0.2098735   0.2207520
           13
    1   0.2278601
 Analysis of SCF Wavefunction
 
 --------------------------------------------------------------
                    Orbital Energies (a.u.)
 --------------------------------------------------------------
 
 Alpha MOs
 -- Occupied --
-65.354  -5.011  -3.419  -3.415  -3.412  -0.408  -0.205  -0.113
 -0.055
 -- Virtual --
  0.193   0.209   0.219   0.225   0.227   0.260   0.345   0.381
  0.422   0.425   0.429   0.500   0.537   0.545   0.551   0.573
  0.712   0.737   0.771   0.776   0.779   0.786   0.794   0.815
  1.004   1.018   1.040   1.059   1.069   1.129   1.146   1.270
  1.353   1.366   1.486   1.569   1.608   1.634   1.691   1.778
  2.441   2.444   2.447   2.453   2.457   2.553   2.587   3.111
  3.173   3.819   3.821   3.861   3.968   4.071   4.321   4.330
  4.344   4.347   4.520   4.863   5.996  11.551  11.613  11.626
 17.711  17.777  17.829  17.831  18.081  22.424  22.426  22.428
 22.435  22.438  22.459  22.461 140.834
 
 Beta MOs
 -- Occupied --
-65.352  -5.009  -3.413  -3.412  -3.411  -0.381  -0.202  -0.100
 -- Virtual --
  0.186   0.194   0.210   0.221   0.228   0.271   0.275   0.348
  0.398   0.432   0.458   0.459   0.531   0.541   0.549   0.575
  0.584   0.718   0.742   0.786   0.796   0.801   0.802   0.809
  0.828   1.011   1.026   1.041   1.081   1.091   1.149   1.157
  1.270   1.366   1.377   1.489   1.599   1.612   1.639   1.696
  1.781   2.464   2.467   2.472   2.477   2.482   2.567   2.599
  3.111   3.174   3.827   3.829   3.862   3.982   4.071   4.321
  4.327   4.344   4.345   4.520   4.865   6.001  11.564  11.615
 11.628  17.712  17.783  17.834  17.835  18.082  22.427  22.427
 22.430  22.436  22.439  22.460  22.462 140.836
 --------------------------------------------------------------
 
          Ground-State Mulliken Net Atomic Charges

     Atom                 Charge (a.u.)    Spin (a.u.)
  --------------------------------------------------------
      1 Si                   -0.675916       1.084829
      2 H                    -0.162032      -0.042392
      3 H                    -0.162052      -0.042438
  --------------------------------------------------------
  Sum of atomic charges =    -1.000000
  Sum of spin   charges =     1.000000

 -----------------------------------------------------------------
                    Cartesian Multipole Moments
 -----------------------------------------------------------------
    Charge (ESU x 10^10)
                -4.8032
    Dipole Moment (Debye)
         X       0.0000      Y      -0.0063      Z      -0.1088
       Tot       0.1090
    Quadrupole Moments (Debye-Ang)
        XX     -22.5169     XY       0.0048     YY     -24.1325
        XZ       0.0000     YZ       0.0191     ZZ     -25.4088
    Octapole Moments (Debye-Ang^2)
       XXX       0.0003    XXY      -0.0091    XYY       0.0000
       YYY      -0.0261    XXZ      -4.7747    XYZ      -0.0047
       YYZ      -0.7196    XZZ       0.0005    YZZ      -0.0068
       ZZZ      -6.6951
    Hexadecapole Moments (Debye-Ang^3)
      XXXX     -71.3395   XXXY       0.0231   XXYY     -24.4325
      XYYY       0.0263   YYYY     -78.2323   XXXZ       0.0000
      XXYZ       0.0271   XYYZ       0.0000   YYYZ       0.0695
      XXZZ     -28.7201   XYZZ       0.0061   YYZZ     -27.3266
      XZZZ       0.0002   YZZZ       0.0748   ZZZZ     -89.5456
 -----------------------------------------------------------------
 Total job time:  14.23s(wall), 13.11s(cpu) 
 Tue Apr 30 20:57:48 2013

        *************************************************************
        *                                                           *
        *  Thank you very much for using Q-Chem.  Have a nice day.  *
        *                                                           *
        *************************************************************


0 sent ACK to 0 
now end server 0 ... 
 
**********************************************************************
Job 2 of 3 
**********************************************************************
 
Process 0 of 1 is on cl087.stfx.acenet.ca - thread support 1
initial socket setup ...start
initial socket setup ...done 
now start server 0 ... 

cmd = /usr/bin/ssh clhead /usr/local/qchem/bin/get_hostid 599800960 > /scratch/tmp/5955522.1.short.q/qchem22638/lic.dat
                  Welcome to Q-Chem
     A Quantum Leap Into The Future Of Chemistry

 Y. Shao, L. Fusti-Molnar, Y. Jung, J. Kussmann, C. Ochsenfeld,
 S. T. Brown, A. T. B. Gilbert, L. V. Slipchenko,S. V. Levchenko,
 D. P. O'Neill, R. A. DiStasio Jr., R. C. Lochan, T. Wang,
 G. J. O. Beran, N. A. Besley, J. M. Herbert, C. Y. Lin,
 T. Van Voorhis, S. H. Chien, A. Sodt, R. P. Steele, 
 V. A. Rassolov, P. E. Maslen, P. P. Korambath, R. D. Adamson,
 B. Austin, J. Baker, E. F. C. Byrd, H. Dachsel, R. J. Doerksen,
 A. Dreuw, B. D. Dunietz, A. D. Dutoi, T. R. Furlani,
 S. R. Gwaltney, A. Heyden, S. Hirata, C.-P. Hsu, G. Kedziora,
 R. Z. Khaliullin, P. Klunzinger, A. M. Lee, M. S. Lee, W. Liang,
 I. Lotan, N. Nair, B. Peters, E. I. Proynov, P. A. Pieniazek, 
 Y. M. Rhee, J. Ritchie, E. Rosta, C. D. Sherrill, 
 A. C. Simmonett, J. E. Subotnik, H. L. Woodcock III,
 W. Zhang, A. T. Bell, A. K. Chakraborty, D. M. Chipman,
 F. J. Keil, A. Warshel, W. J. Hehre, H. F. Schaefer III,
 J. Kong, A. I. Krylov, P. M. W. Gill, M. Head-Gordon,
 Q-Chem, Version 3.1, Q-Chem, Inc., Pittsburgh, PA (2007).

 Additional authors for Version 3.1: 
 Z. Gan, Y. Zhao, N. E. Schultz, D. Truhlar, E. Epifanovsky and M. Oana.

 Additional authors for Version 3.2: 
 R. Baer, B. R. Brooks, D. Casanova, J.-D. Chai, C.-L. Cheng, 
 C. Cramer, D. Crittenden, A. Ghysels, G. Hawkins, E. G. Hohenstein, 
 C. Kelley, W. Kurlancheek, D. Liotard, E. Livshits, P. Manohar, 
 A. Marenich, D. Neuhauser, R. Olson, M. A. Rohrdanz, K. S. Thanthiriwatte, 
 A. J. W. Thom, V. Vanovschi, C. F. Williams, Q. Wu and Z.-Q. You. 


 Intel X86 Linux Version

 Q-chem begins on Tue Apr 30 20:57:51 2013  

 Parallel job on  1  processors
Processing $rem in /usr/local/qchem/config/preferences.

theFileMan(): MAXOPENFILES=974 MAX_SUB_FILE_NUM=16
Maximum size of a physical file is 2.0 GB, maximum size of a tmp-file is 32.0 GB


--------------------------------------------------------------
User input:
--------------------------------------------------------------

$molecule
0,1
Si
X,1,1.
H,1,R,2,A
H,1,R,2,A,3,180.,0

 R=1.53002839
 A=45.6175498

$end

$comment
neutral
$end

$xc_functional
C PBE   1.00
X wPBE  1.00
$end


$rem
SYMMETRY_DECOMPOSITION	0
LRC_DFT                 true
exchange 		general
BASIS                   g3large
omega			370
mem_static              760
max_scf_cycles          200
scf_final_print         1
sym_ignore              true
$end

--------------------------------------------------------------
 Writing REM_CC_EA            3
 ----------------------------------------------------
       Standard Nuclear Orientation (Angstroms)
    I     Atom         X            Y            Z
 ----------------------------------------------------
    1      Si      0.000000     0.000000     0.000000
    2      H       1.093491     0.000000     1.070170
    3      H      -1.093491     0.000000     1.070170
 ----------------------------------------------------
 Nuclear Repulsion Energy =     9.9260759379 hartrees
 There are        8 alpha and        8 beta electrons
 Requested basis set is G3large
 There are 31 shells and 86 basis functions

Total QAlloc Memory Limit   2000 MB
Mega-Array Size       743 MB
MEM_STATIC part       760 MB

                       Distance Matrix (Angstroms)
             Si(  1)   H (  2)
   H (  2)  1.530028
   H (  3)  1.530028  2.186983
 
 A cutoff of  1.0D-08 yielded    496 shell pairs
 There are   3877 function pairs (  5178 Cartesian)
Evaluating contribution to one-electron hamiltonian from nuclear
 Smallest overlap matrix eigenvalue = 2.11E-03
 Multipole matrices computed through 2nd order

  Scale SEOQF with 1.000000e-01/1.000000e-01/1.000000e-01

 Standard Electronic Orientation quadrupole field applied
 Nucleus-field energy     =    -0.0000000002 hartrees
 Guess from superposition of atomic densities
 Warning:  Energy on first SCF cycle will be non-variational
 Long-range K will be added via erf
 Coulomb attenuation parameter = 0.37 bohr**(-1)
 A restricted Kohn-Sham SCF calculation will be
 performed using Pulay DIIS extrapolation
 Exchange:  wPBE + LR-HF      Correlation:  PBE
 Using SG-1 standard quadrature grid
 SCF converges when DIIS error is below 1.0E-05
 Requested basis set is G3large
 There are 31 shells and 86 basis functions
 A cutoff of  1.0D-08 yielded    496 shell pairs
 There are   3877 function pairs (  5178 Cartesian)
 ---------------------------------------
  Cycle       Energy         DIIS Error
 ---------------------------------------
    1    -290.2929447696      2.16E-02
    2    -290.4802532890      2.12E-03
    3    -290.4916196109      7.84E-04
    4    -290.4940754357      4.09E-04
    5    -290.4949890214      1.77E-04
    6    -290.4952401148      5.20E-05
    7    -290.4952615198      1.06E-05
    8    -290.4952625493      4.73E-06 Convergence criterion met
 ---------------------------------------
 One-Electron    Energy =  -421.7847538956
 Total Coulomb   Energy =   142.8096933959
 Alpha Exchange  Energy =    -1.5131311850
 Beta  Exchange  Energy =    -1.5131311850
 DFT   Exchange  Energy =   -17.8654465991
 DFT Correlation Energy =    -0.5545690182
 Nuclear Repu.   Energy =     9.9260759377
 Nuclear Attr.   Energy =  -711.7586764114
 Kinetic         Energy =   289.9739225158
 SCF time:  CPU 11.34 s  wall 12.86 s
 Final Alpha MO Eigenvalues
            1           2           3           4           5           6
    1 -65.6279135  -5.2831743  -3.6947987  -3.6842622  -3.6809309  -0.6374539
            7           8           9          10          11          12
    1  -0.4372491  -0.3449044  -0.0355998   0.0545546   0.0700257   0.0841769
           13
    1   0.0889241
 Analysis of SCF Wavefunction
 
 --------------------------------------------------------------
                    Orbital Energies (a.u.)
 --------------------------------------------------------------
 
 Alpha MOs
 -- Occupied --
-65.628  -5.283  -3.695  -3.684  -3.681  -0.637  -0.437  -0.345
 -- Virtual --
 -0.036   0.055   0.070   0.084   0.089   0.089   0.115   0.158
  0.195   0.224   0.230   0.232   0.321   0.347   0.355   0.363
  0.393   0.505   0.537   0.565   0.572   0.574   0.581   0.589
  0.611   0.795   0.809   0.812   0.822   0.831   0.897   0.923
  1.057   1.130   1.145   1.265   1.332   1.375   1.398   1.471
  1.554   2.188   2.192   2.194   2.201   2.205   2.306   2.340
  2.883   2.944   3.549   3.552   3.602   3.699   3.826   4.091
  4.102   4.113   4.120   4.289   4.623   5.734  11.281  11.346
 11.358  17.443  17.502  17.556  17.557  17.814  22.148  22.153
 22.156  22.163  22.166  22.190  22.191 140.561
 --------------------------------------------------------------
 
          Ground-State Mulliken Net Atomic Charges

     Atom                 Charge (a.u.)
  ----------------------------------------
      1 Si                    0.106845
      2 H                    -0.053424
      3 H                    -0.053421
  ----------------------------------------
  Sum of atomic charges =     0.000000

 -----------------------------------------------------------------
                    Cartesian Multipole Moments
 -----------------------------------------------------------------
    Charge (ESU x 10^10)
                 0.0000
    Dipole Moment (Debye)
         X       0.0000      Y      -0.0017      Z       0.2495
       Tot       0.2495
    Quadrupole Moments (Debye-Ang)
        XX     -16.0250     XY      -0.0003     YY     -12.3518
        XZ       0.0000     YZ       0.0042     ZZ     -17.9744
    Octapole Moments (Debye-Ang^2)
       XXX      -0.0001    XXY       0.0000    XYY       0.0000
       YYY      -0.0050    XXZ      -3.0873    XYZ      -0.0001
       YYZ      -1.1419    XZZ       0.0000    YZZ       0.0009
       ZZZ      -6.0572
    Hexadecapole Moments (Debye-Ang^3)
      XXXX     -42.7765   XXXY      -0.0005   XXYY     -10.0161
      XYYY      -0.0005   YYYY     -16.9674   XXXZ      -0.0001
      XXYZ       0.0033   XYYZ       0.0000   YYYZ       0.0075
      XXZZ     -15.6096   XYZZ      -0.0002   YYZZ     -11.3023
      XZZZ       0.0000   YZZZ       0.0080   ZZZZ     -50.6692
 -----------------------------------------------------------------
 Total job time:  12.96s(wall), 11.43s(cpu) 
 Tue Apr 30 20:58:04 2013

        *************************************************************
        *                                                           *
        *  Thank you very much for using Q-Chem.  Have a nice day.  *
        *                                                           *
        *************************************************************


0 sent ACK to 0 
now end server 0 ... 
 
**********************************************************************
Job 3 of 3 
**********************************************************************
 
Process 0 of 1 is on cl087.stfx.acenet.ca - thread support 1
initial socket setup ...start
initial socket setup ...done 
now start server 0 ... 

cmd = /usr/bin/ssh clhead /usr/local/qchem/bin/get_hostid 1416201424 > /scratch/tmp/5955522.1.short.q/qchem22638/lic.dat
                  Welcome to Q-Chem
     A Quantum Leap Into The Future Of Chemistry

 Y. Shao, L. Fusti-Molnar, Y. Jung, J. Kussmann, C. Ochsenfeld,
 S. T. Brown, A. T. B. Gilbert, L. V. Slipchenko,S. V. Levchenko,
 D. P. O'Neill, R. A. DiStasio Jr., R. C. Lochan, T. Wang,
 G. J. O. Beran, N. A. Besley, J. M. Herbert, C. Y. Lin,
 T. Van Voorhis, S. H. Chien, A. Sodt, R. P. Steele, 
 V. A. Rassolov, P. E. Maslen, P. P. Korambath, R. D. Adamson,
 B. Austin, J. Baker, E. F. C. Byrd, H. Dachsel, R. J. Doerksen,
 A. Dreuw, B. D. Dunietz, A. D. Dutoi, T. R. Furlani,
 S. R. Gwaltney, A. Heyden, S. Hirata, C.-P. Hsu, G. Kedziora,
 R. Z. Khaliullin, P. Klunzinger, A. M. Lee, M. S. Lee, W. Liang,
 I. Lotan, N. Nair, B. Peters, E. I. Proynov, P. A. Pieniazek, 
 Y. M. Rhee, J. Ritchie, E. Rosta, C. D. Sherrill, 
 A. C. Simmonett, J. E. Subotnik, H. L. Woodcock III,
 W. Zhang, A. T. Bell, A. K. Chakraborty, D. M. Chipman,
 F. J. Keil, A. Warshel, W. J. Hehre, H. F. Schaefer III,
 J. Kong, A. I. Krylov, P. M. W. Gill, M. Head-Gordon,
 Q-Chem, Version 3.1, Q-Chem, Inc., Pittsburgh, PA (2007).

 Additional authors for Version 3.1: 
 Z. Gan, Y. Zhao, N. E. Schultz, D. Truhlar, E. Epifanovsky and M. Oana.

 Additional authors for Version 3.2: 
 R. Baer, B. R. Brooks, D. Casanova, J.-D. Chai, C.-L. Cheng, 
 C. Cramer, D. Crittenden, A. Ghysels, G. Hawkins, E. G. Hohenstein, 
 C. Kelley, W. Kurlancheek, D. Liotard, E. Livshits, P. Manohar, 
 A. Marenich, D. Neuhauser, R. Olson, M. A. Rohrdanz, K. S. Thanthiriwatte, 
 A. J. W. Thom, V. Vanovschi, C. F. Williams, Q. Wu and Z.-Q. You. 


 Intel X86 Linux Version

 Q-chem begins on Tue Apr 30 20:58:07 2013  

 Parallel job on  1  processors
Processing $rem in /usr/local/qchem/config/preferences.

theFileMan(): MAXOPENFILES=974 MAX_SUB_FILE_NUM=16
Maximum size of a physical file is 2.0 GB, maximum size of a tmp-file is 32.0 GB


--------------------------------------------------------------
User input:
--------------------------------------------------------------

$molecule
1,2
Si
X,1,1.
H,1,R,2,A
H,1,R,2,A,3,180.,0

 R=1.53002839
 A=45.6175498

$end

$comment
positive
$end

$xc_functional
C PBE   1.00
X wPBE  1.00
$end

$rem
SYMMETRY_DECOMPOSITION	0
LRC_DFT                 true
exchange 		general
BASIS                   g3large
omega			370
mem_static              760
max_scf_cycles          200
scf_final_print         1
sym_ignore              true
$end

--------------------------------------------------------------
 Writing REM_CC_EA            3
 ----------------------------------------------------
       Standard Nuclear Orientation (Angstroms)
    I     Atom         X            Y            Z
 ----------------------------------------------------
    1      Si      0.000000     0.000000     0.000000
    2      H       1.093491     0.000000     1.070170
    3      H      -1.093491     0.000000     1.070170
 ----------------------------------------------------
 Nuclear Repulsion Energy =     9.9260759379 hartrees
 There are        8 alpha and        7 beta electrons
 Requested basis set is G3large
 There are 31 shells and 86 basis functions

Total QAlloc Memory Limit   2000 MB
Mega-Array Size       743 MB
MEM_STATIC part       760 MB

                       Distance Matrix (Angstroms)
             Si(  1)   H (  2)
   H (  2)  1.530028
   H (  3)  1.530028  2.186983
 
 A cutoff of  1.0D-08 yielded    496 shell pairs
 There are   3877 function pairs (  5178 Cartesian)
Evaluating contribution to one-electron hamiltonian from nuclear
 Smallest overlap matrix eigenvalue = 2.11E-03
 Multipole matrices computed through 2nd order

  Scale SEOQF with 1.000000e-01/1.000000e-01/1.000000e-01

 Standard Electronic Orientation quadrupole field applied
 Nucleus-field energy     =    -0.0000000002 hartrees
 Guess from superposition of atomic densities
 Warning:  Energy on first SCF cycle will be non-variational
 Long-range K will be added via erf
 Coulomb attenuation parameter = 0.37 bohr**(-1)
 An unrestricted Kohn-Sham SCF calculation will be
 performed using Pulay DIIS extrapolation
 Exchange:  wPBE + LR-HF      Correlation:  PBE
 Using SG-1 standard quadrature grid
 SCF converges when DIIS error is below 1.0E-05
 Requested basis set is G3large
 There are 31 shells and 86 basis functions
 A cutoff of  1.0D-08 yielded    496 shell pairs
 There are   3877 function pairs (  5178 Cartesian)
 Warning!  Inaccurate integrated density:
   Number of electrons =    15
   Numerical integral  =    16.000010282736
   Relative error      =     6.6667352182 %
 ---------------------------------------
  Cycle       Energy         DIIS Error
 ---------------------------------------
    1    -290.2929447696      2.16E-02
    2    -290.1016627319      4.05E-03
    3    -290.1440259926      1.77E-03
    4    -290.1478639363      5.60E-04
    5    -290.1491984458      2.39E-04
    6    -290.1496873130      8.74E-05
    7    -290.1497605898      1.75E-05
    8    -290.1497640015      6.38E-06 Convergence criterion met
 ---------------------------------------
 One-Electron    Energy =  -416.5755888005
 Total Coulomb   Energy =   137.6841797334
 Alpha Exchange  Energy =    -1.5262652299
 Beta  Exchange  Energy =    -1.3565340018
 DFT   Exchange  Energy =   -17.7811500528
 DFT Correlation Energy =    -0.5204815877
 Nuclear Repu.   Energy =     9.9260759377
 Nuclear Attr.   Energy =  -706.1903600509
 Kinetic         Energy =   289.6147712504
 <S^2> = 0.7547
 SCF time:  CPU 12.86 s  wall 13.79 s
 Final Alpha MO Eigenvalues
            1           2           3           4           5           6
    1 -65.9791670  -5.6297749  -4.0410497  -4.0333297  -4.0276685  -0.9424220
            7           8           9          10          11          12
    1  -0.7233120  -0.6816962  -0.3070495  -0.1645531  -0.1186425  -0.0783761
           13
    1  -0.0678935
 Final Beta MO Eigenvalues
            1           2           3           4           5           6
    1 -65.9759466  -5.6258637  -4.0382891  -4.0254770  -4.0242585  -0.9027918
            7           8           9          10          11          12
    1  -0.7049599  -0.3439717  -0.2839469  -0.1241987  -0.1118638  -0.0704788
 Analysis of SCF Wavefunction
 
 --------------------------------------------------------------
                    Orbital Energies (a.u.)
 --------------------------------------------------------------
 
 Alpha MOs
 -- Occupied --
-65.979  -5.630  -4.041  -4.033  -4.028  -0.942  -0.723  -0.682
 -- Virtual --
 -0.307  -0.165  -0.119  -0.078  -0.068  -0.065  -0.062  -0.033
 -0.022  -0.011  -0.011   0.003   0.109   0.136   0.141   0.153
  0.180   0.258   0.302   0.319   0.331   0.331   0.337   0.347
  0.377   0.512   0.527   0.537   0.545   0.562   0.617   0.658
  0.801   0.873   0.887   0.997   1.045   1.068   1.104   1.207
  1.277   1.862   1.867   1.868   1.879   1.881   1.989   2.020
  2.593   2.654   3.211   3.220   3.266   3.371   3.509   3.801
  3.809   3.823   3.828   3.997   4.315   5.397  10.940  10.996
 11.018  17.094  17.156  17.208  17.213  17.466  21.802  21.807
 21.811  21.817  21.820  21.844  21.844 140.210
 
 Beta MOs
 -- Occupied --
-65.976  -5.626  -4.038  -4.025  -4.024  -0.903  -0.705
 -- Virtual --
 -0.344  -0.284  -0.124  -0.112  -0.070  -0.064  -0.060  -0.058
 -0.008  -0.006  -0.005   0.009   0.015   0.118   0.144   0.155
  0.159   0.195   0.275   0.315   0.334   0.342   0.342   0.351
  0.358   0.386   0.535   0.546   0.558   0.564   0.583   0.633
  0.670   0.817   0.884   0.900   1.013   1.058   1.101   1.118
  1.224   1.297   1.893   1.895   1.901   1.908   1.914   2.019
  2.050   2.617   2.676   3.224   3.225   3.277   3.381   3.526
  3.825   3.833   3.846   3.853   4.019   4.336   5.409  10.944
 11.011  11.022  17.102  17.161  17.215  17.215  17.473  21.805
 21.811  21.812  21.820  21.823  21.847  21.848 140.214
 --------------------------------------------------------------
 
          Ground-State Mulliken Net Atomic Charges

     Atom                 Charge (a.u.)    Spin (a.u.)
  --------------------------------------------------------
      1 Si                    0.762302       0.758501
      2 H                     0.118942       0.121704
      3 H                     0.118756       0.119795
  --------------------------------------------------------
  Sum of atomic charges =     1.000000
  Sum of spin   charges =     1.000000

 -----------------------------------------------------------------
                    Cartesian Multipole Moments
 -----------------------------------------------------------------
    Charge (ESU x 10^10)
                 4.8032
    Dipole Moment (Debye)
         X       0.0009      Y      -0.0027      Z       0.1786
       Tot       0.1786
    Quadrupole Moments (Debye-Ang)
        XX     -10.8055     XY       0.0000     YY      -8.9012
        XZ       0.0045     YZ       0.0059     ZZ      -9.8733
    Octapole Moments (Debye-Ang^2)
       XXX       0.0022    XXY       0.0003    XYY       0.0000
       YYY      -0.0044    XXZ      -0.6662    XYZ       0.0000
       YYZ      -2.0204    XZZ       0.0036    YZZ      -0.0009
       ZZZ      -3.5233
    Hexadecapole Moments (Debye-Ang^3)
      XXXX     -26.6491   XXXY       0.0001   XXYY      -6.5037
      XYYY       0.0000   YYYY      -9.0106   XXXZ       0.0074
      XXYZ       0.0031   XYYZ       0.0018   YYYZ       0.0074
      XXZZ      -6.0332   XYZZ       0.0000   YYZZ      -6.0380
      XZZZ       0.0079   YZZZ       0.0081   ZZZZ     -23.3104
 -----------------------------------------------------------------
 Total job time:  13.89s(wall), 12.95s(cpu) 
 Tue Apr 30 20:58:20 2013

        *************************************************************
        *                                                           *
        *  Thank you very much for using Q-Chem.  Have a nice day.  *
        *                                                           *
        *************************************************************


0 sent ACK to 0 
now end server 0 ... 
