Process 0 of 1 is on cl053.dal.acenet.ca - thread support 1
initial socket setup ...start
initial socket setup ...done 
now start server 0 ... 

cmd = /usr/bin/ssh glooscap.ace-net.ca /usr/local/qchem/bin/get_hostid 1725255373 > /tmp/179702.1.long.q/qchem2574/lic.dat
                  Welcome to Q-Chem
     A Quantum Leap Into The Future Of Chemistry

 Y. Shao, L. Fusti-Molnar, Y. Jung, J. Kussmann, C. Ochsenfeld,
 S. T. Brown, A. T. B. Gilbert, L. V. Slipchenko,S. V. Levchenko,
 D. P. O'Neill, R. A. DiStasio Jr., R. C. Lochan, T. Wang,
 G. J. O. Beran, N. A. Besley, J. M. Herbert, C. Y. Lin,
 T. Van Voorhis, S. H. Chien, A. Sodt, R. P. Steele, 
 V. A. Rassolov, P. E. Maslen, P. P. Korambath, R. D. Adamson,
 B. Austin, J. Baker, E. F. C. Byrd, H. Dachsel, R. J. Doerksen,
 A. Dreuw, B. D. Dunietz, A. D. Dutoi, T. R. Furlani,
 S. R. Gwaltney, A. Heyden, S. Hirata, C.-P. Hsu, G. Kedziora,
 R. Z. Khaliullin, P. Klunzinger, A. M. Lee, M. S. Lee, W. Liang,
 I. Lotan, N. Nair, B. Peters, E. I. Proynov, P. A. Pieniazek, 
 Y. M. Rhee, J. Ritchie, E. Rosta, C. D. Sherrill, 
 A. C. Simmonett, J. E. Subotnik, H. L. Woodcock III,
 W. Zhang, A. T. Bell, A. K. Chakraborty, D. M. Chipman,
 F. J. Keil, A. Warshel, W. J. Hehre, H. F. Schaefer III,
 J. Kong, A. I. Krylov, P. M. W. Gill, M. Head-Gordon,
 Q-Chem, Version 3.1, Q-Chem, Inc., Pittsburgh, PA (2007).

 Additional authors for Version 3.1: 
 Z. Gan, Y. Zhao, N. E. Schultz, D. Truhlar, E. Epifanovsky and M. Oana.

 Additional authors for Version 3.2: 
 R. Baer, B. R. Brooks, D. Casanova, J.-D. Chai, C.-L. Cheng, 
 C. Cramer, D. Crittenden, A. Ghysels, G. Hawkins, E. G. Hohenstein, 
 C. Kelley, W. Kurlancheek, D. Liotard, E. Livshits, P. Manohar, 
 A. Marenich, D. Neuhauser, R. Olson, M. A. Rohrdanz, K. S. Thanthiriwatte, 
 A. J. W. Thom, V. Vanovschi, C. F. Williams, Q. Wu and Z.-Q. You. 


 Intel X86 Linux Version

 Q-chem begins on Mon Apr 11 22:00:23 2011  

 Parallel job on  1  processors
Processing $rem in /usr/local/qchem/config/preferences.

theFileMan(): MAXOPENFILES=974 MAX_SUB_FILE_NUM=16
Maximum size of a physical file is 2.0 GB, maximum size of a tmp-file is 32.0 GB


--------------------------------------------------------------
User input:
--------------------------------------------------------------

$molecule
-1,2
 C        25.045259       23.435011       24.198259
 C        23.883123       22.987669       23.571693
 C        22.952639       23.894247       23.036823
 C        23.225454       25.266073       23.167511
 C        24.388231       25.712584       23.794245
 C        25.325571       24.806040       24.316170
 H        25.746307       22.708881       24.618103
 H        23.683336       21.915379       23.505596
 H        22.506229       25.992571       22.782879
 H        24.569353       26.785936       23.895315
 H        21.333246       24.090744       21.797949
 H        21.790066       22.505487       22.079519
 H        26.780706       26.185043       24.738384
 H        27.238531       24.598999       25.019846
 N        26.464031       25.257441       25.008450
 N        21.747786       23.445486       22.464247

$end

$comment
negative
$end

$xc_functional
   X HF 1.0
   X BNL 1.0
   C LYP 1.0
$end

$rem
SYMMETRY_DECOMPOSITION	0
exchange 		general
BASIS                   g3large
omega			180
separate_jk		true
mem_static              760
max_scf_cycles          200
scf_final_print         1
sym_ignore              true
$end

--------------------------------------------------------------
 Writing REM_CC_EA           16
 ----------------------------------------------------
       Standard Nuclear Orientation (Angstroms)
    I     Atom         X            Y            Z
 ----------------------------------------------------
    1      C      25.045259    23.435011    24.198259
    2      C      23.883123    22.987669    23.571693
    3      C      22.952639    23.894247    23.036823
    4      C      23.225454    25.266073    23.167511
    5      C      24.388231    25.712584    23.794245
    6      C      25.325571    24.806040    24.316170
    7      H      25.746307    22.708881    24.618103
    8      H      23.683336    21.915379    23.505596
    9      H      22.506229    25.992571    22.782879
   10      H      24.569353    26.785936    23.895315
   11      H      21.333246    24.090744    21.797949
   12      H      21.790066    22.505487    22.079519
   13      H      26.780706    26.185043    24.738384
   14      H      27.238531    24.598999    25.019846
   15      N      26.464031    25.257441    25.008450
   16      N      21.747786    23.445486    22.464247
 ----------------------------------------------------
 Nuclear Repulsion Energy =   343.4676084748 hartrees
 There are       30 alpha and       29 beta electrons
 Requested basis set is G3large
 There are 128 shells and 416 basis functions

Total QAlloc Memory Limit   2000 MB
Mega-Array Size       743 MB
MEM_STATIC part       760 MB
 A cutoff of  1.0D-08 yielded   6564 shell pairs
 There are  69935 function pairs ( 87064 Cartesian)
Evaluating contribution to one-electron hamiltonian from nuclear
 Smallest overlap matrix eigenvalue = 7.45E-07

 Q-Chem warning in module mkSTV.C, line 194:

 Overlap eigenvalue is smaller than square root of threshold

 Linear dependence detected in AO basis
 Number of orthogonalized atomic orbitals = 415
 Maximum deviation from orthogonality = 8.255E-11
 Multipole matrices computed through 2nd order

  Scale SEOQF with 1.000000e-03/1.000000e-03/1.000000e-03

 Standard Electronic Orientation quadrupole field applied
 Nucleus-field energy     =     0.0000000019 hartrees
 Guess from superposition of atomic densities
 Warning:  Energy on first SCF cycle will be non-variational
 An unrestricted hybrid HF-DFT SCF calculation will be
 performed using Pulay DIIS extrapolation
 Exchange:     1.0000 Hartree-Fock + 1.0000 BNL
 Correlation:  1.0000 LYP
 Using SG-1 standard quadrature grid
 SCF converges when DIIS error is below 1.0E-05
 Warning!  Inaccurate integrated density:
   Number of electrons =    59
   Numerical integral  =    58.000465635056
   Relative error      =    -1.6941260423 %
 ---------------------------------------
  Cycle       Energy         DIIS Error
 ---------------------------------------
    1    -340.8555931543      2.48E-02
    2    -338.2524061568      3.39E-03
    3    -338.0172247240      4.81E-03
    4    -338.5636599178      6.05E-04
    5    -338.5737124065      2.60E-04
    6    -338.5752959528      8.64E-05
    7    -338.5756178864      1.96E-05
    8    -338.5757029869      1.11E-05
    9    -338.5757312937      6.17E-06 Convergence criterion met
 ---------------------------------------
 One-Electron    Energy = -1149.2822007835
 Total Coulomb   Energy =   511.9976971063
 Alpha Exchange  Energy =    -2.8912717725
 Beta  Exchange  Energy =    -2.8431544221
 DFT   Exchange  Energy =   -37.0616030958
 DFT Correlation Energy =    -1.9628068028
 Nuclear Repu.   Energy =   343.4676084767
 Nuclear Attr.   Energy = -1486.5549408373
 Kinetic         Energy =   337.2727400538
 <S^2> = 0.7501
 SCF time:  CPU 1296.60 s  wall 1298.16 s
 Final Alpha MO Eigenvalues
            1           2           3           4           5           6
    1 -13.8065010 -13.8027222  -9.7690721  -9.7680569  -9.7344662  -9.7342188
            7           8           9          10          11          12
    1  -9.7336196  -9.7335138  -0.8089392  -0.7978663  -0.7207794  -0.6489704
           13          14          15          16          17          18
    1  -0.6126462  -0.5344155  -0.5088705  -0.4496538  -0.4439072  -0.4132166
           19          20          21          22          23          24
    1  -0.3938122  -0.3575591  -0.3447815  -0.3336032  -0.3330917  -0.3066697
           25          26          27          28          29          30
    1  -0.2784356  -0.2639886  -0.2043340  -0.1971378  -0.1185504   0.0327324
           31          32          33          34          35
    1   0.0911260   0.1218798   0.1316568   0.1335470   0.1467090
 Final Beta MO Eigenvalues
            1           2           3           4           5           6
    1 -13.8057974 -13.8019335  -9.7690571  -9.7680368  -9.7343691  -9.7341033
            7           8           9          10          11          12
    1  -9.7335003  -9.7333917  -0.8084060  -0.7971483  -0.7203240  -0.6487925
           13          14          15          16          17          18
    1  -0.6120702  -0.5341413  -0.5082608  -0.4490855  -0.4432204  -0.4122284
           19          20          21          22          23          24
    1  -0.3927177  -0.3572516  -0.3445023  -0.3333928  -0.3326579  -0.3062836
           25          26          27          28          29          30
    1  -0.2779621  -0.2637278  -0.2036988  -0.1969728  -0.1180515   0.1100352
           31          32          33          34
    1   0.1175116   0.1180570   0.1328087   0.1364948
 Analysis of SCF Wavefunction
 
 --------------------------------------------------------------
                    Orbital Energies (a.u.)
 --------------------------------------------------------------
 
 Alpha MOs
 -- Occupied --
-13.807 -13.803  -9.769  -9.768  -9.734  -9.734  -9.734  -9.734
 -0.809  -0.798  -0.721  -0.649  -0.613  -0.534  -0.509  -0.450
 -0.444  -0.413  -0.394  -0.358  -0.345  -0.334  -0.333  -0.307
 -0.278  -0.264  -0.204  -0.197  -0.119   0.033
 -- Virtual --
  0.091   0.122   0.132   0.134   0.147   0.167   0.170   0.171
  0.192   0.199   0.215   0.216   0.224   0.225   0.232   0.240
  0.242   0.255   0.259   0.263   0.271   0.284   0.287   0.288
  0.289   0.302   0.304   0.315   0.318   0.318   0.322   0.331
  0.343   0.353   0.359   0.361   0.363   0.378   0.381   0.385
  0.399   0.399   0.414   0.427   0.429   0.439   0.439   0.451
  0.451   0.453   0.469   0.514   0.521   0.537   0.538   0.592
  0.628   0.650   0.674   0.679   0.680   0.689   0.690   0.691
  0.700   0.707   0.746   0.752   0.754   0.768   0.775   0.777
  0.780   0.791   0.795   0.817   0.819   0.833   0.836   0.838
  0.845   0.860   0.873   0.876   0.888   0.902   0.914   0.926
  0.931   0.935   0.939   0.956   0.968   0.971   0.984   0.991
  0.997   1.016   1.017   1.087   1.091   1.095   1.123   1.160
  1.171   1.201   1.212   1.227   1.228   1.236   1.242   1.248
  1.272   1.288   1.295   1.336   1.347   1.350   1.387   1.397
  1.418   1.424   1.438   1.440   1.458   1.469   1.480   1.493
  1.493   1.499   1.560   1.562   1.578   1.602   1.606   1.629
  1.643   1.656   1.690   1.725   1.765   1.804   1.839   1.869
  1.875   1.888   1.918   1.932   1.943   1.962   1.969   1.998
  2.018   2.038   2.048   2.074   2.160   2.285   2.369   2.378
  2.471   2.575   2.654   2.687   2.691   2.729   2.759   2.780
  2.794   2.840   2.861   2.866   2.882   2.912   2.916   2.919
  2.921   2.933   2.958   2.965   2.977   3.001   3.005   3.016
  3.024   3.051   3.060   3.076   3.094   3.123   3.176   3.208
  3.215   3.235   3.255   3.277   3.312   3.312   3.332   3.333
  3.352   3.352   3.357   3.369   3.401   3.402   3.403   3.455
  3.470   3.509   3.514   3.515   3.530   3.535   3.551   3.561
  3.581   3.590   3.621   3.632   3.677   3.680   3.685   3.694
  3.709   3.769   3.788   3.794   3.810   3.816   3.839   3.853
  3.892   3.895   3.920   3.961   3.993   4.017   4.024   4.031
  4.037   4.062   4.084   4.092   4.112   4.123   4.128   4.132
  4.140   4.207   4.232   4.253   4.257   4.301   4.384   4.390
  4.422   4.456   4.465   4.477   4.494   4.509   4.521   4.538
  4.564   4.583   4.595   4.623   4.632   4.636   4.674   4.691
  4.743   4.772   4.818   4.829   4.925   4.944   4.950   4.993
  5.038   5.043   5.110   5.138   5.146   5.201   5.254   5.295
  5.323   5.368   5.370   5.373   5.405   5.425   5.488   5.493
  5.551   5.681   5.682   5.725   5.796   5.812   5.915   5.925
  5.948   6.007   6.082   6.180   6.443   6.515   6.523   6.547
  6.617  23.944  24.481  24.525  24.764  24.768  25.255  27.284
 27.442  27.469  27.537  27.542  27.757  27.987  28.105  28.126
 28.269  28.298  28.298  28.531  28.555  28.626  28.653  28.689
 29.205  35.974  36.002  37.616  37.646  38.323  38.338  38.502
 38.598  40.560  40.578  40.608  40.624  40.727  40.731  40.762
 40.775  40.827  40.832  40.878  40.879  40.912  40.922  40.925
 40.930  40.934  40.949  41.010  41.043  41.146  41.149  41.215
 41.229  41.239  41.254  41.262  41.268  41.277  41.278  41.290
 41.304  41.349  41.383  41.410  41.416  41.478  41.507  41.563
 41.590
 
 Beta MOs
 -- Occupied --
-13.806 -13.802  -9.769  -9.768  -9.734  -9.734  -9.734  -9.733
 -0.808  -0.797  -0.720  -0.649  -0.612  -0.534  -0.508  -0.449
 -0.443  -0.412  -0.393  -0.357  -0.345  -0.333  -0.333  -0.306
 -0.278  -0.264  -0.204  -0.197  -0.118
 -- Virtual --
  0.110   0.118   0.118   0.133   0.136   0.146   0.162   0.168
  0.170   0.189   0.192   0.213   0.213   0.221   0.224   0.229
  0.238   0.238   0.250   0.255   0.260   0.266   0.281   0.283
  0.284   0.285   0.297   0.300   0.311   0.312   0.316   0.319
  0.328   0.341   0.349   0.352   0.357   0.360   0.375   0.378
  0.380   0.395   0.396   0.410   0.424   0.428   0.435   0.435
  0.448   0.448   0.450   0.468   0.512   0.520   0.536   0.537
  0.591   0.628   0.650   0.674   0.677   0.679   0.688   0.689
  0.691   0.700   0.706   0.745   0.751   0.753   0.767   0.774
  0.776   0.779   0.790   0.795   0.816   0.818   0.832   0.835
  0.837   0.845   0.859   0.873   0.875   0.888   0.901   0.914
  0.926   0.931   0.935   0.939   0.956   0.968   0.970   0.984
  0.991   0.997   1.016   1.016   1.087   1.092   1.095   1.123
  1.161   1.172   1.201   1.212   1.228   1.229   1.237   1.242
  1.249   1.272   1.288   1.295   1.336   1.348   1.350   1.388
  1.397   1.419   1.424   1.438   1.441   1.458   1.469   1.481
  1.493   1.494   1.499   1.561   1.563   1.579   1.603   1.606
  1.629   1.642   1.657   1.692   1.726   1.765   1.804   1.840
  1.869   1.875   1.888   1.918   1.932   1.943   1.963   1.969
  1.999   2.018   2.038   2.049   2.074   2.161   2.285   2.370
  2.378   2.471   2.575   2.654   2.687   2.691   2.729   2.759
  2.780   2.794   2.840   2.861   2.866   2.882   2.912   2.916
  2.919   2.921   2.933   2.959   2.965   2.977   3.001   3.005
  3.016   3.024   3.051   3.060   3.076   3.094   3.123   3.176
  3.209   3.215   3.235   3.255   3.277   3.312   3.312   3.332
  3.333   3.352   3.352   3.358   3.369   3.401   3.402   3.403
  3.455   3.470   3.510   3.514   3.515   3.531   3.536   3.552
  3.562   3.582   3.590   3.622   3.632   3.677   3.680   3.685
  3.694   3.710   3.769   3.789   3.794   3.810   3.817   3.839
  3.853   3.892   3.896   3.921   3.962   3.993   4.017   4.024
  4.031   4.038   4.062   4.085   4.092   4.112   4.125   4.128
  4.134   4.140   4.207   4.232   4.253   4.257   4.301   4.384
  4.391   4.422   4.457   4.465   4.478   4.494   4.509   4.522
  4.538   4.564   4.583   4.595   4.623   4.633   4.636   4.675
  4.691   4.743   4.773   4.818   4.829   4.925   4.944   4.951
  4.994   5.039   5.044   5.110   5.139   5.147   5.202   5.255
  5.296   5.324   5.369   5.372   5.374   5.405   5.426   5.489
  5.494   5.552   5.682   5.682   5.726   5.797   5.813   5.915
  5.926   5.949   6.007   6.083   6.180   6.444   6.516   6.524
  6.548   6.617  23.944  24.481  24.525  24.764  24.768  25.255
 27.285  27.442  27.469  27.537  27.542  27.757  27.987  28.106
 28.126  28.270  28.298  28.299  28.531  28.556  28.626  28.653
 28.689  29.205  35.975  36.003  37.617  37.647  38.323  38.338
 38.503  38.598  40.561  40.579  40.609  40.624  40.727  40.731
 40.762  40.775  40.827  40.832  40.878  40.879  40.912  40.922
 40.925  40.930  40.934  40.949  41.010  41.043  41.146  41.150
 41.215  41.229  41.239  41.254  41.263  41.268  41.277  41.278
 41.290  41.304  41.349  41.383  41.410  41.416  41.478  41.507
 41.563  41.590
 --------------------------------------------------------------
 
          Ground-State Mulliken Net Atomic Charges

     Atom                 Charge (a.u.)    Spin (a.u.)
  --------------------------------------------------------
      1 C                     0.335246      -0.337470
      2 C                     0.387369      -0.386684
      3 C                    -0.149599      -0.296976
      4 C                     0.315971      -0.319126
      5 C                     0.396015      -0.397753
      6 C                    -0.096980      -0.362339
      7 H                    -0.048880       0.213813
      8 H                    -0.066929       0.232096
      9 H                     0.002801       0.160126
     10 H                    -0.125789       0.293252
     11 H                    -0.351308       0.553776
     12 H                    -0.385334       0.591238
     13 H                    -0.461575       0.669906
     14 H                    -0.438801       0.644816
     15 N                    -0.145682      -0.137773
     16 N                    -0.166525      -0.120900
  --------------------------------------------------------
  Sum of atomic charges =    -1.000000
  Sum of spin   charges =     1.000000

 -----------------------------------------------------------------
                    Cartesian Multipole Moments
 -----------------------------------------------------------------
    Charge (ESU x 10^10)
                -4.8032
    Dipole Moment (Debye)
         X    -117.5387      Y    -117.3387      Z    -113.4089
       Tot     201.1102
    Quadrupole Moments (Debye-Ang)
        XX   -2988.6883     XY   -2889.2813     YY   -2944.1089
        XZ   -2797.0797     YZ   -2780.0764     ZZ   -2759.6857
    Octapole Moments (Debye-Ang^2)
       XXX  -78582.0719    XXY  -73875.5453    XYY  -72904.3364
       YYY  -75703.2289    XXZ  -71624.9975    XYZ  -68981.6484
       YYZ  -69977.2152    XZZ  -68538.6723    YZZ  -67860.9933
       ZZZ  -69021.9701
    Hexadecapole Moments (Debye-Ang^3)
      XXXX ************   XXXY ************   XXYY ************
      XYYY ************   YYYY ************   XXXZ ************
      XXYZ ************   XYYZ ************   YYYZ ************
      XXZZ ************   XYZZ ************   YYZZ ************
      XZZZ ************   YZZZ ************   ZZZZ ************
 -----------------------------------------------------------------
 Total job time:  1299.67s(wall), 1298.10s(cpu) 
 Mon Apr 11 22:22:02 2011

        *************************************************************
        *                                                           *
        *  Thank you very much for using Q-Chem.  Have a nice day.  *
        *                                                           *
        *************************************************************


0 sent ACK to 0 
now end server 0 ... 
 
**********************************************************************
Job 2 of 3 
**********************************************************************
 
Process 0 of 1 is on cl053.dal.acenet.ca - thread support 1
initial socket setup ...start
initial socket setup ...done 
now start server 0 ... 

cmd = /usr/bin/ssh glooscap.ace-net.ca /usr/local/qchem/bin/get_hostid 170789592 > /tmp/179702.1.long.q/qchem2574/lic.dat
                  Welcome to Q-Chem
     A Quantum Leap Into The Future Of Chemistry

 Y. Shao, L. Fusti-Molnar, Y. Jung, J. Kussmann, C. Ochsenfeld,
 S. T. Brown, A. T. B. Gilbert, L. V. Slipchenko,S. V. Levchenko,
 D. P. O'Neill, R. A. DiStasio Jr., R. C. Lochan, T. Wang,
 G. J. O. Beran, N. A. Besley, J. M. Herbert, C. Y. Lin,
 T. Van Voorhis, S. H. Chien, A. Sodt, R. P. Steele, 
 V. A. Rassolov, P. E. Maslen, P. P. Korambath, R. D. Adamson,
 B. Austin, J. Baker, E. F. C. Byrd, H. Dachsel, R. J. Doerksen,
 A. Dreuw, B. D. Dunietz, A. D. Dutoi, T. R. Furlani,
 S. R. Gwaltney, A. Heyden, S. Hirata, C.-P. Hsu, G. Kedziora,
 R. Z. Khaliullin, P. Klunzinger, A. M. Lee, M. S. Lee, W. Liang,
 I. Lotan, N. Nair, B. Peters, E. I. Proynov, P. A. Pieniazek, 
 Y. M. Rhee, J. Ritchie, E. Rosta, C. D. Sherrill, 
 A. C. Simmonett, J. E. Subotnik, H. L. Woodcock III,
 W. Zhang, A. T. Bell, A. K. Chakraborty, D. M. Chipman,
 F. J. Keil, A. Warshel, W. J. Hehre, H. F. Schaefer III,
 J. Kong, A. I. Krylov, P. M. W. Gill, M. Head-Gordon,
 Q-Chem, Version 3.1, Q-Chem, Inc., Pittsburgh, PA (2007).

 Additional authors for Version 3.1: 
 Z. Gan, Y. Zhao, N. E. Schultz, D. Truhlar, E. Epifanovsky and M. Oana.

 Additional authors for Version 3.2: 
 R. Baer, B. R. Brooks, D. Casanova, J.-D. Chai, C.-L. Cheng, 
 C. Cramer, D. Crittenden, A. Ghysels, G. Hawkins, E. G. Hohenstein, 
 C. Kelley, W. Kurlancheek, D. Liotard, E. Livshits, P. Manohar, 
 A. Marenich, D. Neuhauser, R. Olson, M. A. Rohrdanz, K. S. Thanthiriwatte, 
 A. J. W. Thom, V. Vanovschi, C. F. Williams, Q. Wu and Z.-Q. You. 


 Intel X86 Linux Version

 Q-chem begins on Mon Apr 11 22:22:24 2011  

 Parallel job on  1  processors
Processing $rem in /usr/local/qchem/config/preferences.

theFileMan(): MAXOPENFILES=974 MAX_SUB_FILE_NUM=16
Maximum size of a physical file is 2.0 GB, maximum size of a tmp-file is 32.0 GB


--------------------------------------------------------------
User input:
--------------------------------------------------------------

$molecule
0,1
 C        25.045259       23.435011       24.198259
 C        23.883123       22.987669       23.571693
 C        22.952639       23.894247       23.036823
 C        23.225454       25.266073       23.167511
 C        24.388231       25.712584       23.794245
 C        25.325571       24.806040       24.316170
 H        25.746307       22.708881       24.618103
 H        23.683336       21.915379       23.505596
 H        22.506229       25.992571       22.782879
 H        24.569353       26.785936       23.895315
 H        21.333246       24.090744       21.797949
 H        21.790066       22.505487       22.079519
 H        26.780706       26.185043       24.738384
 H        27.238531       24.598999       25.019846
 N        26.464031       25.257441       25.008450
 N        21.747786       23.445486       22.464247

$end

$comment
neutral
$end

$xc_functional
   X HF 1.0
   X BNL 1.0
   C LYP 1.0
$end

$rem
SYMMETRY_DECOMPOSITION	0
exchange 		general
BASIS                   g3large
omega			180
separate_jk		true
mem_static              760
max_scf_cycles          200
scf_final_print         1
sym_ignore              true
$end

--------------------------------------------------------------
 Writing REM_CC_EA           16
 ----------------------------------------------------
       Standard Nuclear Orientation (Angstroms)
    I     Atom         X            Y            Z
 ----------------------------------------------------
    1      C      25.045259    23.435011    24.198259
    2      C      23.883123    22.987669    23.571693
    3      C      22.952639    23.894247    23.036823
    4      C      23.225454    25.266073    23.167511
    5      C      24.388231    25.712584    23.794245
    6      C      25.325571    24.806040    24.316170
    7      H      25.746307    22.708881    24.618103
    8      H      23.683336    21.915379    23.505596
    9      H      22.506229    25.992571    22.782879
   10      H      24.569353    26.785936    23.895315
   11      H      21.333246    24.090744    21.797949
   12      H      21.790066    22.505487    22.079519
   13      H      26.780706    26.185043    24.738384
   14      H      27.238531    24.598999    25.019846
   15      N      26.464031    25.257441    25.008450
   16      N      21.747786    23.445486    22.464247
 ----------------------------------------------------
 Nuclear Repulsion Energy =   343.4676084748 hartrees
 There are       29 alpha and       29 beta electrons
 Requested basis set is G3large
 There are 128 shells and 416 basis functions

Total QAlloc Memory Limit   2000 MB
Mega-Array Size       743 MB
MEM_STATIC part       760 MB
 A cutoff of  1.0D-08 yielded   6564 shell pairs
 There are  69935 function pairs ( 87064 Cartesian)
Evaluating contribution to one-electron hamiltonian from nuclear
 Smallest overlap matrix eigenvalue = 7.45E-07

 Q-Chem warning in module mkSTV.C, line 194:

 Overlap eigenvalue is smaller than square root of threshold

 Linear dependence detected in AO basis
 Number of orthogonalized atomic orbitals = 415
 Maximum deviation from orthogonality = 8.255E-11
 Multipole matrices computed through 2nd order

  Scale SEOQF with 1.000000e-03/1.000000e-03/1.000000e-03

 Standard Electronic Orientation quadrupole field applied
 Nucleus-field energy     =     0.0000000019 hartrees
 Guess from superposition of atomic densities
 Warning:  Energy on first SCF cycle will be non-variational
 A restricted hybrid HF-DFT SCF calculation will be
 performed using Pulay DIIS extrapolation
 Exchange:     1.0000 Hartree-Fock + 1.0000 BNL
 Correlation:  1.0000 LYP
 Using SG-1 standard quadrature grid
 SCF converges when DIIS error is below 1.0E-05
 ---------------------------------------
  Cycle       Energy         DIIS Error
 ---------------------------------------
    1    -340.8555931543      2.48E-02
    2    -338.4671765262      2.49E-03
    3    -338.5026267769      2.28E-03
    4    -338.6053344021      2.20E-04
    5    -338.6061792009      7.75E-05
    6    -338.6062826256      4.69E-05
    7    -338.6063102037      6.28E-06 Convergence criterion met
 ---------------------------------------
 One-Electron    Energy = -1142.7264618336
 Total Coulomb   Energy =   505.3315210028
 Alpha Exchange  Energy =    -2.8437734549
 Beta  Exchange  Energy =    -2.8437734549
 DFT   Exchange  Energy =   -37.0362795454
 DFT Correlation Energy =    -1.9551513945
 Nuclear Repu.   Energy =   343.4676084767
 Nuclear Attr.   Energy = -1479.8876491096
 Kinetic         Energy =   337.1611872760
 SCF time:  CPU 757.08 s  wall 758.35 s
 Final Alpha MO Eigenvalues
            1           2           3           4           5           6
    1 -13.9255225 -13.9253377  -9.8810855  -9.8809898  -9.8450865  -9.8449795
            7           8           9          10          11          12
    1  -9.8447037  -9.8446318  -0.9252969  -0.9161740  -0.8342310  -0.7592248
           13          14          15          16          17          18
    1  -0.7268935  -0.6467206  -0.6224816  -0.5627725  -0.5610404  -0.5293574
           19          20          21          22          23          24
    1  -0.5128010  -0.4681634  -0.4560904  -0.4463140  -0.4454160  -0.4189755
           25          26          27          28          29          30
    1  -0.3932318  -0.3745391  -0.3198999  -0.3064129  -0.2329254   0.0224991
           31          32          33          34
    1   0.0268382   0.0365726   0.0373866   0.0487581
 Analysis of SCF Wavefunction
 
 --------------------------------------------------------------
                    Orbital Energies (a.u.)
 --------------------------------------------------------------
 
 Alpha MOs
 -- Occupied --
-13.926 -13.925  -9.881  -9.881  -9.845  -9.845  -9.845  -9.845
 -0.925  -0.916  -0.834  -0.759  -0.727  -0.647  -0.622  -0.563
 -0.561  -0.529  -0.513  -0.468  -0.456  -0.446  -0.445  -0.419
 -0.393  -0.375  -0.320  -0.306  -0.233
 -- Virtual --
  0.022   0.027   0.037   0.037   0.049   0.053   0.064   0.081
  0.082   0.094   0.111   0.114   0.122   0.126   0.127   0.133
  0.146   0.149   0.157   0.158   0.167   0.173   0.183   0.185
  0.191   0.192   0.204   0.204   0.212   0.214   0.218   0.220
  0.226   0.238   0.251   0.257   0.263   0.265   0.275   0.279
  0.283   0.293   0.299   0.311   0.323   0.326   0.338   0.338
  0.347   0.349   0.350   0.358   0.410   0.415   0.428   0.430
  0.483   0.517   0.544   0.567   0.573   0.573   0.580   0.583
  0.586   0.591   0.596   0.636   0.639   0.646   0.658   0.665
  0.665   0.670   0.680   0.684   0.709   0.711   0.725   0.725
  0.727   0.738   0.750   0.761   0.768   0.775   0.788   0.805
  0.818   0.819   0.825   0.832   0.846   0.857   0.862   0.872
  0.880   0.887   0.907   0.907   0.974   0.975   0.982   1.013
  1.046   1.061   1.090   1.098   1.114   1.115   1.127   1.132
  1.135   1.161   1.177   1.183   1.228   1.235   1.237   1.274
  1.287   1.306   1.314   1.326   1.329   1.346   1.361   1.367
  1.379   1.384   1.389   1.450   1.450   1.462   1.489   1.496
  1.515   1.536   1.545   1.576   1.613   1.655   1.689   1.722
  1.760   1.763   1.771   1.808   1.821   1.830   1.849   1.853
  1.884   1.905   1.924   1.932   1.964   2.050   2.173   2.255
  2.263   2.359   2.461   2.542   2.573   2.576   2.619   2.649
  2.668   2.683   2.728   2.748   2.755   2.765   2.800   2.803
  2.808   2.809   2.824   2.848   2.854   2.865   2.889   2.895
  2.905   2.913   2.940   2.949   2.965   2.980   3.011   3.063
  3.097   3.102   3.122   3.144   3.164   3.200   3.201   3.221
  3.222   3.240   3.240   3.247   3.256   3.288   3.289   3.291
  3.341   3.359   3.397   3.403   3.404   3.415   3.424   3.434
  3.447   3.468   3.479   3.507   3.517   3.564   3.565   3.573
  3.582   3.594   3.654   3.676   3.680   3.695   3.703   3.726
  3.742   3.775   3.779   3.807   3.843   3.879   3.904   3.912
  3.920   3.921   3.950   3.971   3.978   3.999   4.004   4.013
  4.016   4.028   4.089   4.120   4.133   4.148   4.190   4.272
  4.278   4.309   4.343   4.349   4.363   4.384   4.397   4.409
  4.425   4.449   4.471   4.481   4.512   4.516   4.525   4.558
  4.580   4.628   4.655   4.705   4.711   4.810   4.831   4.834
  4.881   4.923   4.929   4.994   5.025   5.031   5.087   5.140
  5.180   5.204   5.252   5.252   5.255   5.291   5.309   5.375
  5.376   5.435   5.565   5.570   5.610   5.679   5.694   5.805
  5.812   5.832   5.893   5.969   6.065   6.323   6.393   6.402
  6.429   6.504  23.833  24.370  24.413  24.653  24.656  25.143
 27.173  27.331  27.357  27.425  27.431  27.645  27.876  27.994
 28.014  28.158  28.186  28.187  28.420  28.444  28.515  28.542
 28.578  29.093  35.853  35.882  37.496  37.526  38.202  38.217
 38.381  38.477  40.442  40.456  40.486  40.505  40.607  40.609
 40.643  40.653  40.706  40.711  40.766  40.767  40.800  40.810
 40.814  40.818  40.823  40.837  40.899  40.932  41.034  41.038
 41.103  41.117  41.128  41.143  41.152  41.157  41.166  41.166
 41.179  41.193  41.237  41.270  41.298  41.305  41.366  41.396
 41.452  41.478
 --------------------------------------------------------------
 
          Ground-State Mulliken Net Atomic Charges

     Atom                 Charge (a.u.)
  ----------------------------------------
      1 C                    -0.003596
      2 C                    -0.003418
      3 C                    -0.428870
      4 C                    -0.001510
      5 C                    -0.000272
      6 C                    -0.430519
      7 H                     0.165845
      8 H                     0.166045
      9 H                     0.166604
     10 H                     0.165823
     11 H                     0.197284
     12 H                     0.197294
     13 H                     0.197577
     14 H                     0.197382
     15 N                    -0.292907
     16 N                    -0.292761
  ----------------------------------------
  Sum of atomic charges =     0.000000

 -----------------------------------------------------------------
                    Cartesian Multipole Moments
 -----------------------------------------------------------------
    Charge (ESU x 10^10)
                 0.0000
    Dipole Moment (Debye)
         X       0.9754      Y      -0.0341      Z      -1.7725
       Tot       2.0235
    Quadrupole Moments (Debye-Ang)
        XX       4.3321     XY      24.1000     YY     -43.8583
        XZ     -12.8862     YZ     -43.5761     ZZ    -135.4365
    Octapole Moments (Debye-Ang^2)
       XXX   -1363.0159    XXY     148.8283    XYY    -421.7071
       YYY   -3143.4307    XXZ    -608.8235    XYZ    -300.6371
       YYZ   -2073.6952    XZZ   -2415.3512    YZZ   -3305.3077
       ZZZ   -6654.9067
    Hexadecapole Moments (Debye-Ang^3)
      XXXX  -92543.1931   XXXY  -31228.8336   XXYY  -19995.4202
      XYYY  -59656.4883   YYYY -152466.4004   XXXZ  -45941.3551
      XXYZ  -13803.1366   XYYZ  -31203.5601   YYYZ  -99598.7881
      XXZZ  -62139.3628   XYZZ  -58584.7521   YYZZ -104592.5131
      XZZZ -137506.3015   YZZZ -162379.8234   ZZZZ -269108.1020
 -----------------------------------------------------------------
 Total job time:  759.78s(wall), 758.49s(cpu) 
 Mon Apr 11 22:35:04 2011

        *************************************************************
        *                                                           *
        *  Thank you very much for using Q-Chem.  Have a nice day.  *
        *                                                           *
        *************************************************************


0 sent ACK to 0 
now end server 0 ... 
 
**********************************************************************
Job 3 of 3 
**********************************************************************
 
Process 0 of 1 is on cl053.dal.acenet.ca - thread support 1
initial socket setup ...start
initial socket setup ...done 
now start server 0 ... 

cmd = /usr/bin/ssh glooscap.ace-net.ca /usr/local/qchem/bin/get_hostid 2084737110 > /tmp/179702.1.long.q/qchem2574/lic.dat
                  Welcome to Q-Chem
     A Quantum Leap Into The Future Of Chemistry

 Y. Shao, L. Fusti-Molnar, Y. Jung, J. Kussmann, C. Ochsenfeld,
 S. T. Brown, A. T. B. Gilbert, L. V. Slipchenko,S. V. Levchenko,
 D. P. O'Neill, R. A. DiStasio Jr., R. C. Lochan, T. Wang,
 G. J. O. Beran, N. A. Besley, J. M. Herbert, C. Y. Lin,
 T. Van Voorhis, S. H. Chien, A. Sodt, R. P. Steele, 
 V. A. Rassolov, P. E. Maslen, P. P. Korambath, R. D. Adamson,
 B. Austin, J. Baker, E. F. C. Byrd, H. Dachsel, R. J. Doerksen,
 A. Dreuw, B. D. Dunietz, A. D. Dutoi, T. R. Furlani,
 S. R. Gwaltney, A. Heyden, S. Hirata, C.-P. Hsu, G. Kedziora,
 R. Z. Khaliullin, P. Klunzinger, A. M. Lee, M. S. Lee, W. Liang,
 I. Lotan, N. Nair, B. Peters, E. I. Proynov, P. A. Pieniazek, 
 Y. M. Rhee, J. Ritchie, E. Rosta, C. D. Sherrill, 
 A. C. Simmonett, J. E. Subotnik, H. L. Woodcock III,
 W. Zhang, A. T. Bell, A. K. Chakraborty, D. M. Chipman,
 F. J. Keil, A. Warshel, W. J. Hehre, H. F. Schaefer III,
 J. Kong, A. I. Krylov, P. M. W. Gill, M. Head-Gordon,
 Q-Chem, Version 3.1, Q-Chem, Inc., Pittsburgh, PA (2007).

 Additional authors for Version 3.1: 
 Z. Gan, Y. Zhao, N. E. Schultz, D. Truhlar, E. Epifanovsky and M. Oana.

 Additional authors for Version 3.2: 
 R. Baer, B. R. Brooks, D. Casanova, J.-D. Chai, C.-L. Cheng, 
 C. Cramer, D. Crittenden, A. Ghysels, G. Hawkins, E. G. Hohenstein, 
 C. Kelley, W. Kurlancheek, D. Liotard, E. Livshits, P. Manohar, 
 A. Marenich, D. Neuhauser, R. Olson, M. A. Rohrdanz, K. S. Thanthiriwatte, 
 A. J. W. Thom, V. Vanovschi, C. F. Williams, Q. Wu and Z.-Q. You. 


 Intel X86 Linux Version

 Q-chem begins on Mon Apr 11 22:35:26 2011  

 Parallel job on  1  processors
Processing $rem in /usr/local/qchem/config/preferences.

theFileMan(): MAXOPENFILES=974 MAX_SUB_FILE_NUM=16
Maximum size of a physical file is 2.0 GB, maximum size of a tmp-file is 32.0 GB


--------------------------------------------------------------
User input:
--------------------------------------------------------------

$molecule
1,2
 C        25.045259       23.435011       24.198259
 C        23.883123       22.987669       23.571693
 C        22.952639       23.894247       23.036823
 C        23.225454       25.266073       23.167511
 C        24.388231       25.712584       23.794245
 C        25.325571       24.806040       24.316170
 H        25.746307       22.708881       24.618103
 H        23.683336       21.915379       23.505596
 H        22.506229       25.992571       22.782879
 H        24.569353       26.785936       23.895315
 H        21.333246       24.090744       21.797949
 H        21.790066       22.505487       22.079519
 H        26.780706       26.185043       24.738384
 H        27.238531       24.598999       25.019846
 N        26.464031       25.257441       25.008450
 N        21.747786       23.445486       22.464247

$end

$comment
positive
$end

$xc_functional
   X HF 1.0
   X BNL 1.0
   C LYP 1.0
$end

$rem
SYMMETRY_DECOMPOSITION	0
exchange 		general
BASIS                   g3large
omega			180
separate_jk		true
mem_static              760
max_scf_cycles          200
scf_final_print         1
sym_ignore              true
$end

--------------------------------------------------------------
 Writing REM_CC_EA           16
 ----------------------------------------------------
       Standard Nuclear Orientation (Angstroms)
    I     Atom         X            Y            Z
 ----------------------------------------------------
    1      C      25.045259    23.435011    24.198259
    2      C      23.883123    22.987669    23.571693
    3      C      22.952639    23.894247    23.036823
    4      C      23.225454    25.266073    23.167511
    5      C      24.388231    25.712584    23.794245
    6      C      25.325571    24.806040    24.316170
    7      H      25.746307    22.708881    24.618103
    8      H      23.683336    21.915379    23.505596
    9      H      22.506229    25.992571    22.782879
   10      H      24.569353    26.785936    23.895315
   11      H      21.333246    24.090744    21.797949
   12      H      21.790066    22.505487    22.079519
   13      H      26.780706    26.185043    24.738384
   14      H      27.238531    24.598999    25.019846
   15      N      26.464031    25.257441    25.008450
   16      N      21.747786    23.445486    22.464247
 ----------------------------------------------------
 Nuclear Repulsion Energy =   343.4676084748 hartrees
 There are       29 alpha and       28 beta electrons
 Requested basis set is G3large
 There are 128 shells and 416 basis functions

Total QAlloc Memory Limit   2000 MB
Mega-Array Size       743 MB
MEM_STATIC part       760 MB
 A cutoff of  1.0D-08 yielded   6564 shell pairs
 There are  69935 function pairs ( 87064 Cartesian)
Evaluating contribution to one-electron hamiltonian from nuclear
 Smallest overlap matrix eigenvalue = 7.45E-07

 Q-Chem warning in module mkSTV.C, line 194:

 Overlap eigenvalue is smaller than square root of threshold

 Linear dependence detected in AO basis
 Number of orthogonalized atomic orbitals = 415
 Maximum deviation from orthogonality = 8.255E-11
 Multipole matrices computed through 2nd order

  Scale SEOQF with 1.000000e-03/1.000000e-03/1.000000e-03

 Standard Electronic Orientation quadrupole field applied
 Nucleus-field energy     =     0.0000000019 hartrees
 Guess from superposition of atomic densities
 Warning:  Energy on first SCF cycle will be non-variational
 An unrestricted hybrid HF-DFT SCF calculation will be
 performed using Pulay DIIS extrapolation
 Exchange:     1.0000 Hartree-Fock + 1.0000 BNL
 Correlation:  1.0000 LYP
 Using SG-1 standard quadrature grid
 SCF converges when DIIS error is below 1.0E-05
 Warning!  Inaccurate integrated density:
   Number of electrons =    57
   Numerical integral  =    58.000465635056
   Relative error      =     1.7552028685 %
 ---------------------------------------
  Cycle       Energy         DIIS Error
 ---------------------------------------
    1    -340.8555931543      2.48E-02
    2    -338.2776147401      1.84E-03
    3    -338.3134334762      1.37E-03
    4    -338.3495181816      3.42E-04
    5    -338.3516248141      1.56E-04
    6    -338.3520408849      4.06E-05
    7    -338.3520910077      1.27E-05
    8    -338.3520899747      4.88E-06 Convergence criterion met
 ---------------------------------------
 One-Electron    Energy = -1131.2016008369
 Total Coulomb   Energy =   493.7497953355
 Alpha Exchange  Energy =    -2.8476764351
 Beta  Exchange  Energy =    -2.7445808583
 DFT   Exchange  Energy =   -36.8525396385
 DFT Correlation Energy =    -1.9230960181
 Nuclear Repu.   Energy =   343.4676084767
 Nuclear Attr.   Energy = -1468.0758266687
 Kinetic         Energy =   336.8742258318
 <S^2> = 0.7573
 SCF time:  CPU 1093.61 s  wall 1094.54 s
 Final Alpha MO Eigenvalues
            1           2           3           4           5           6
    1 -14.1422971 -14.1422488 -10.0983384 -10.0981496 -10.0446995 -10.0445870
            7           8           9          10          11          12
    1 -10.0443254 -10.0442612  -1.1319601  -1.1226998  -1.0384243  -0.9549996
           13          14          15          16          17          18
    1  -0.9341805  -0.8456735  -0.8204606  -0.7590412  -0.7576495  -0.7308885
           19          20          21          22          23          24
    1  -0.7085164  -0.6584135  -0.6547126  -0.6511825  -0.6368089  -0.6163944
           25          26          27          28          29          30
    1  -0.6050028  -0.5668709  -0.5291124  -0.5011025  -0.4453557  -0.1520980
           31          32          33          34
    1  -0.1353956  -0.1027527  -0.0992750  -0.0806614
 Final Beta MO Eigenvalues
            1           2           3           4           5           6
    1 -14.1367187 -14.1366769 -10.0956292 -10.0954486 -10.0437735 -10.0436635
            7           8           9          10          11          12
    1 -10.0434284 -10.0433805  -1.1247490  -1.1149344  -1.0325646  -0.9524797
           13          14          15          16          17          18
    1  -0.9251322  -0.8416087  -0.8161959  -0.7551297  -0.7546418  -0.7257052
           19          20          21          22          23          24
    1  -0.7037404  -0.6557834  -0.6507383  -0.6406298  -0.6354993  -0.6129010
           25          26          27          28          29          30
    1  -0.5855652  -0.5643353  -0.4970540  -0.4951202  -0.2758852  -0.1426938
           31          32          33
    1  -0.1179093  -0.1015495  -0.0983050
 Analysis of SCF Wavefunction
 
 --------------------------------------------------------------
                    Orbital Energies (a.u.)
 --------------------------------------------------------------
 
 Alpha MOs
 -- Occupied --
-14.142 -14.142 -10.098 -10.098 -10.045 -10.045 -10.044 -10.044
 -1.132  -1.123  -1.038  -0.955  -0.934  -0.846  -0.820  -0.759
 -0.758  -0.731  -0.709  -0.658  -0.655  -0.651  -0.637  -0.616
 -0.605  -0.567  -0.529  -0.501  -0.445
 -- Virtual --
 -0.152  -0.135  -0.103  -0.099  -0.081  -0.069  -0.060  -0.048
 -0.035  -0.032  -0.032  -0.020  -0.007  -0.005  -0.001   0.001
  0.017   0.022   0.027   0.034   0.035   0.038   0.042   0.043
  0.047   0.065   0.066   0.067   0.071   0.075   0.083   0.085
  0.085   0.100   0.116   0.118   0.123   0.123   0.131   0.137
  0.146   0.150   0.157   0.162   0.170   0.176   0.189   0.191
  0.197   0.200   0.205   0.216   0.253   0.258   0.259   0.262
  0.318   0.331   0.374   0.394   0.402   0.403   0.404   0.407
  0.416   0.419   0.420   0.467   0.470   0.471   0.486   0.491
  0.493   0.501   0.508   0.508   0.538   0.542   0.555   0.557
  0.560   0.565   0.578   0.585   0.594   0.598   0.613   0.638
  0.644   0.646   0.648   0.666   0.666   0.669   0.692   0.693
  0.695   0.716   0.726   0.732   0.797   0.801   0.809   0.836
  0.868   0.883   0.908   0.922   0.937   0.937   0.949   0.953
  0.959   0.984   0.995   1.006   1.055   1.059   1.065   1.093
  1.101   1.119   1.132   1.142   1.154   1.161   1.183   1.186
  1.199   1.201   1.205   1.266   1.270   1.285   1.313   1.323
  1.334   1.370   1.372   1.395   1.431   1.471   1.500   1.532
  1.577   1.580   1.583   1.625   1.635   1.640   1.660   1.665
  1.693   1.717   1.729   1.744   1.782   1.863   1.980   2.064
  2.071   2.172   2.261   2.340   2.382   2.382   2.430   2.456
  2.476   2.483   2.541   2.549   2.556   2.577   2.604   2.606
  2.610   2.613   2.634   2.650   2.655   2.667   2.693   2.697
  2.709   2.710   2.735   2.746   2.764   2.781   2.806   2.868
  2.896   2.906   2.925   2.943   2.961   2.997   3.006   3.018
  3.025   3.042   3.044   3.054   3.057   3.086   3.093   3.094
  3.138   3.161   3.195   3.203   3.210   3.219   3.229   3.238
  3.245   3.272   3.285   3.311   3.319   3.365   3.368   3.371
  3.389   3.396   3.459   3.478   3.478   3.497   3.503   3.527
  3.546   3.571   3.580   3.608   3.647   3.684   3.699   3.714
  3.718   3.731   3.757   3.771   3.783   3.806   3.810   3.818
  3.820   3.829   3.895   3.928   3.936   3.966   4.007   4.079
  4.083   4.112   4.148   4.150   4.168   4.195   4.206   4.216
  4.223   4.251   4.269   4.282   4.315   4.317   4.329   4.352
  4.387   4.430   4.456   4.506   4.515   4.606   4.626   4.636
  4.681   4.728   4.728   4.797   4.824   4.829   4.884   4.940
  4.974   4.992   5.041   5.043   5.044   5.093   5.105   5.170
  5.176   5.227   5.363   5.373   5.407   5.474   5.489   5.613
  5.618   5.628   5.693   5.767   5.871   6.122   6.196   6.204
  6.227   6.306  23.629  24.170  24.204  24.443  24.453  24.936
 26.967  27.131  27.144  27.212  27.230  27.439  27.669  27.788
 27.806  27.956  27.980  27.985  28.216  28.242  28.313  28.338
 28.372  28.890  35.636  35.665  37.275  37.305  37.988  38.003
 38.167  38.262  40.221  40.234  40.269  40.287  40.387  40.389
 40.425  40.434  40.491  40.496  40.552  40.554  40.597  40.602
 40.609  40.613  40.621  40.630  40.700  40.732  40.826  40.830
 40.889  40.902  40.926  40.940  40.951  40.955  40.958  40.963
 40.974  40.986  41.026  41.057  41.094  41.104  41.164  41.194
 41.247  41.274
 
 Beta MOs
 -- Occupied --
-14.137 -14.137 -10.096 -10.095 -10.044 -10.044 -10.043 -10.043
 -1.125  -1.115  -1.033  -0.952  -0.925  -0.842  -0.816  -0.755
 -0.755  -0.726  -0.704  -0.656  -0.651  -0.641  -0.635  -0.613
 -0.586  -0.564  -0.497  -0.495
 -- Virtual --
 -0.276  -0.143  -0.118  -0.102  -0.098  -0.080  -0.069  -0.060
 -0.047  -0.034  -0.032  -0.031  -0.018  -0.006  -0.005  -0.001
  0.002   0.018   0.022   0.027   0.036   0.039   0.039   0.043
  0.044   0.049   0.065   0.067   0.069   0.073   0.076   0.084
  0.086   0.087   0.100   0.118   0.118   0.125   0.126   0.133
  0.138   0.148   0.150   0.159   0.164   0.171   0.177   0.190
  0.193   0.199   0.202   0.206   0.216   0.255   0.259   0.261
  0.264   0.319   0.335   0.376   0.396   0.405   0.406   0.406
  0.410   0.420   0.421   0.422   0.470   0.473   0.474   0.489
  0.494   0.496   0.504   0.512   0.512   0.541   0.543   0.559
  0.560   0.562   0.568   0.580   0.588   0.600   0.600   0.617
  0.640   0.647   0.650   0.653   0.667   0.671   0.674   0.696
  0.696   0.697   0.718   0.731   0.734   0.802   0.802   0.811
  0.839   0.874   0.885   0.912   0.925   0.940   0.941   0.953
  0.954   0.962   0.986   0.999   1.008   1.058   1.060   1.067
  1.095   1.105   1.123   1.135   1.146   1.156   1.165   1.187
  1.188   1.203   1.203   1.207   1.270   1.274   1.288   1.317
  1.325   1.338   1.371   1.374   1.398   1.434   1.473   1.505
  1.538   1.581   1.582   1.589   1.628   1.639   1.647   1.664
  1.671   1.700   1.722   1.734   1.749   1.784   1.867   1.984
  2.068   2.074   2.175   2.266   2.347   2.385   2.387   2.433
  2.459   2.479   2.489   2.543   2.558   2.559   2.580   2.609
  2.612   2.614   2.617   2.638   2.653   2.659   2.672   2.695
  2.702   2.714   2.717   2.743   2.753   2.770   2.787   2.814
  2.871   2.902   2.910   2.928   2.948   2.967   3.004   3.010
  3.024   3.030   3.047   3.047   3.058   3.062   3.092   3.097
  3.097   3.145   3.164   3.202   3.209   3.213   3.224   3.233
  3.243   3.253   3.276   3.289   3.316   3.325   3.372   3.375
  3.378   3.392   3.402   3.465   3.483   3.484   3.505   3.510
  3.532   3.550   3.585   3.585   3.614   3.652   3.689   3.708
  3.719   3.727   3.733   3.760   3.776   3.788   3.809   3.816
  3.823   3.824   3.834   3.901   3.930   3.943   3.967   4.009
  4.083   4.085   4.117   4.153   4.155   4.172   4.198   4.209
  4.220   4.229   4.257   4.274   4.287   4.320   4.322   4.333
  4.362   4.390   4.435   4.463   4.511   4.520   4.613   4.634
  4.641   4.686   4.732   4.735   4.801   4.829   4.836   4.892
  4.944   4.984   5.007   5.055   5.055   5.059   5.101   5.113
  5.181   5.181   5.239   5.371   5.377   5.413   5.481   5.497
  5.616   5.619   5.634   5.697   5.770   5.875   6.127   6.201
  6.210   6.232   6.308  23.631  24.171  24.207  24.447  24.455
 24.939  26.970  27.132  27.148  27.216  27.232  27.442  27.670
 27.789  27.807  27.957  27.981  27.986  28.217  28.243  28.314
 28.339  28.373  28.891  35.644  35.672  37.285  37.315  37.992
 38.006  38.171  38.266  40.233  40.247  40.277  40.296  40.399
 40.400  40.434  40.443  40.497  40.501  40.556  40.558  40.599
 40.605  40.612  40.615  40.623  40.632  40.701  40.733  40.829
 40.833  40.893  40.906  40.928  40.942  40.953  40.956  40.960
 40.965  40.976  40.987  41.029  41.059  41.095  41.105  41.165
 41.195  41.248  41.275
 --------------------------------------------------------------
 
          Ground-State Mulliken Net Atomic Charges

     Atom                 Charge (a.u.)    Spin (a.u.)
  --------------------------------------------------------
      1 C                     0.060129       0.057337
      2 C                     0.061586       0.053602
      3 C                    -0.392517       0.162585
      4 C                     0.059226       0.057428
      5 C                     0.061735       0.053809
      6 C                    -0.392410       0.162130
      7 H                     0.212951      -0.002861
      8 H                     0.213483      -0.002647
      9 H                     0.213688      -0.002866
     10 H                     0.213250      -0.002656
     11 H                     0.240498      -0.000806
     12 H                     0.240578      -0.000843
     13 H                     0.240681      -0.000820
     14 H                     0.240614      -0.000840
     15 N                    -0.136687       0.233768
     16 N                    -0.136806       0.233679
  --------------------------------------------------------
  Sum of atomic charges =     1.000000
  Sum of spin   charges =     1.000000

 -----------------------------------------------------------------
                    Cartesian Multipole Moments
 -----------------------------------------------------------------
    Charge (ESU x 10^10)
                 4.8032
    Dipole Moment (Debye)
         X     116.8617      Y     116.9287      Z     112.0654
       Tot     199.7189
    Quadrupole Moments (Debye-Ang)
        XX    2822.7165     XY    2851.3568     YY    2816.0623
        XZ    2743.0369     YZ    2731.2652     ZZ    2572.7290
    Octapole Moments (Debye-Ang^2)
       XXX   67715.8726    XXY   69035.0584    XYY   68837.9893
       YYY   67071.1679    XXZ   66640.4464    XYZ   67001.9168
       YYZ   65842.4474    XZZ   63369.1642    YZZ   62773.1847
       ZZZ   58011.7767
    Hexadecapole Moments (Debye-Ang^3)
      XXXX 1613358.8446   XXXY 1660197.7637   XXYY 1670576.2919
      XYYY 1643877.2356   YYYY 1578315.7329   XXXZ 1607712.7921
      XXYZ 1631494.3067   XYYZ 1619121.1459   YYYZ 1569441.0371
      XXZZ 1548422.8899   XYZZ 1549529.0513   YYZZ 1514311.4207
      XZZZ 1438587.2469   YZZZ 1417039.9141   ZZZZ 1280724.3476
 -----------------------------------------------------------------
 Total job time:  1096.02s(wall), 1095.07s(cpu) 
 Mon Apr 11 22:53:42 2011

        *************************************************************
        *                                                           *
        *  Thank you very much for using Q-Chem.  Have a nice day.  *
        *                                                           *
        *************************************************************


0 sent ACK to 0 
now end server 0 ... 
