Process 0 of 1 is on cl122 - thread support 1
initial socket setup ...start
initial socket setup ...done 
now start server 0 ... 

cmd = /usr/bin/ssh clhead /usr/local/qchem/bin/get_hostid 788099654 > /tmp/1656824.1.medium.q/qchem11105/lic.dat

cmd = /usr/bin/ssh clhead /usr/local/qchem/bin/get_hostid 788099654 > /tmp/1656824.1.medium.q/qchem11105/lic.dat

cmd = /usr/bin/ssh clhead /usr/local/qchem/bin/get_hostid 788099654 > /tmp/1656824.1.medium.q/qchem11105/lic.dat

cmd = /usr/bin/ssh clhead /usr/local/qchem/bin/get_hostid 788099654 > /tmp/1656824.1.medium.q/qchem11105/lic.dat

cmd = /usr/bin/ssh clhead /usr/local/qchem/bin/get_hostid 788099654 > /tmp/1656824.1.medium.q/qchem11105/lic.dat
                  Welcome to Q-Chem
     A Quantum Leap Into The Future Of Chemistry

 Y. Shao, L. Fusti-Molnar, Y. Jung, J. Kussmann, C. Ochsenfeld,
 S. T. Brown, A. T. B. Gilbert, L. V. Slipchenko,S. V. Levchenko,
 D. P. O'Neill, R. A. DiStasio Jr., R. C. Lochan, T. Wang,
 G. J. O. Beran, N. A. Besley, J. M. Herbert, C. Y. Lin,
 T. Van Voorhis, S. H. Chien, A. Sodt, R. P. Steele, 
 V. A. Rassolov, P. E. Maslen, P. P. Korambath, R. D. Adamson,
 B. Austin, J. Baker, E. F. C. Byrd, H. Dachsel, R. J. Doerksen,
 A. Dreuw, B. D. Dunietz, A. D. Dutoi, T. R. Furlani,
 S. R. Gwaltney, A. Heyden, S. Hirata, C.-P. Hsu, G. Kedziora,
 R. Z. Khaliullin, P. Klunzinger, A. M. Lee, M. S. Lee, W. Liang,
 I. Lotan, N. Nair, B. Peters, E. I. Proynov, P. A. Pieniazek, 
 Y. M. Rhee, J. Ritchie, E. Rosta, C. D. Sherrill, 
 A. C. Simmonett, J. E. Subotnik, H. L. Woodcock III,
 W. Zhang, A. T. Bell, A. K. Chakraborty, D. M. Chipman,
 F. J. Keil, A. Warshel, W. J. Hehre, H. F. Schaefer III,
 J. Kong, A. I. Krylov, P. M. W. Gill, M. Head-Gordon,
 Q-Chem, Version 3.1, Q-Chem, Inc., Pittsburgh, PA (2007).

 Additional authors for Version 3.1: 
 Z. Gan, Y. Zhao, N. E. Schultz, D. Truhlar, E. Epifanovsky and M. Oana.

 Additional authors for Version 3.2: 
 R. Baer, B. R. Brooks, D. Casanova, J.-D. Chai, C.-L. Cheng, 
 C. Cramer, D. Crittenden, A. Ghysels, G. Hawkins, E. G. Hohenstein, 
 C. Kelley, W. Kurlancheek, D. Liotard, E. Livshits, P. Manohar, 
 A. Marenich, D. Neuhauser, R. Olson, M. A. Rohrdanz, K. S. Thanthiriwatte, 
 A. J. W. Thom, V. Vanovschi, C. F. Williams, Q. Wu and Z.-Q. You. 


 Intel X86 Linux Version

 Q-chem begins on Thu Jun 19 02:05:08 2014  

 Parallel job on  1  processors
Processing $rem in /usr/local/qchem/config/preferences.

theFileMan(): MAXOPENFILES=974 MAX_SUB_FILE_NUM=16
Maximum size of a physical file is 2.0 GB, maximum size of a tmp-file is 32.0 GB


--------------------------------------------------------------
User input:
--------------------------------------------------------------

$molecule
-1,2
V          0.03260       -1.87320        0.09818
O          0.08873       -3.27638       -0.62065
O          1.24907       -0.93737       -0.82191
O         -1.67099       -1.39830       -0.24263
O          0.49449       -2.36647        1.74418
N         -0.02368        0.23115        1.40233
C          2.14182        0.05739       -0.66285
C          3.40342       -0.10882       -1.26990
C          4.34362        0.91251       -1.14203
H          5.32663        0.82280       -1.59544
C          4.01799        2.05215       -0.42324
C          2.78699        2.22282        0.18410
H          2.57712        3.13007        0.74342
C          1.82699        1.21595        0.06427
C          0.46421        1.40388        0.66368
H         -0.26259        1.60305       -0.13463
H          0.47015        2.29263        1.31597
C         -1.39942        0.47043        1.86935
H         -1.42383        1.34444        2.54032
H         -1.70591       -0.39897        2.46341
C         -2.37052        0.66322        0.74404
C         -3.22288        1.76787        0.70603
H         -3.18065        2.53542        1.47350
C         -4.12976        1.87214       -0.33320
C         -4.22295        0.92379       -1.34059
H         -4.95046        1.05384       -2.13687
C         -3.38091       -0.18759       -1.32108
C         -2.45395       -0.30661       -0.26577
C          0.84366       -0.12811        2.52662
H          0.70567        0.54488        3.38825
H          1.88257       -0.03991        2.19393
C          0.56706       -1.57165        2.90555
H          1.37227       -1.96242        3.53899
H         -0.37234       -1.68319        3.46345
C          3.70420       -1.36413       -2.03147
H          3.61777       -2.24648       -1.38674
H          4.71528       -1.33689       -2.44694
H          2.99382       -1.50644       -2.85375
C         -3.44577       -1.24467       -2.38155
H         -2.48927       -1.33437       -2.90962
H         -4.22458       -1.01669       -3.11448
H         -3.65572       -2.22774       -1.94488
F         -4.95714        2.94563       -0.37239
F          4.94455        3.03396       -0.30495
$end

$comment
negative
$end

$xc_functional
C PBE   1.00
X wPBE  1.00
$end

$rem
SYMMETRY_DECOMPOSITION	0
exchange 		general
LRC_DFT                 true
BASIS                   gen
ECP                     lanl2dz
omega			400
mem_static              760
max_scf_cycles          200
scf_final_print         1
sym_ignore              true
$end

$basis
   V 0
   lanl2dz
   ****
   O 0 
   6-31+G*
   ****
   N 0
   6-31+G*
   ****
   C 0
   6-31+G*
   ****
   H 0
   6-31+G*
   ****
   F 0
   6-31+G*
   ****
$end

--------------------------------------------------------------
 Writing REM_CC_EA           44
 ----------------------------------------------------
       Standard Nuclear Orientation (Angstroms)
    I     Atom         X            Y            Z
 ----------------------------------------------------
    1      V       0.032600    -1.873200     0.098180
    2      O       0.088730    -3.276380    -0.620650
    3      O       1.249070    -0.937370    -0.821910
    4      O      -1.670990    -1.398300    -0.242630
    5      O       0.494490    -2.366470     1.744180
    6      N      -0.023680     0.231150     1.402330
    7      C       2.141820     0.057390    -0.662850
    8      C       3.403420    -0.108820    -1.269900
    9      C       4.343620     0.912510    -1.142030
   10      H       5.326630     0.822800    -1.595440
   11      C       4.017990     2.052150    -0.423240
   12      C       2.786990     2.222820     0.184100
   13      H       2.577120     3.130070     0.743420
   14      C       1.826990     1.215950     0.064270
   15      C       0.464210     1.403880     0.663680
   16      H      -0.262590     1.603050    -0.134630
   17      H       0.470150     2.292630     1.315970
   18      C      -1.399420     0.470430     1.869350
   19      H      -1.423830     1.344440     2.540320
   20      H      -1.705910    -0.398970     2.463410
   21      C      -2.370520     0.663220     0.744040
   22      C      -3.222880     1.767870     0.706030
   23      H      -3.180650     2.535420     1.473500
   24      C      -4.129760     1.872140    -0.333200
   25      C      -4.222950     0.923790    -1.340590
   26      H      -4.950460     1.053840    -2.136870
   27      C      -3.380910    -0.187590    -1.321080
   28      C      -2.453950    -0.306610    -0.265770
   29      C       0.843660    -0.128110     2.526620
   30      H       0.705670     0.544880     3.388250
   31      H       1.882570    -0.039910     2.193930
   32      C       0.567060    -1.571650     2.905550
   33      H       1.372270    -1.962420     3.538990
   34      H      -0.372340    -1.683190     3.463450
   35      C       3.704200    -1.364130    -2.031470
   36      H       3.617770    -2.246480    -1.386740
   37      H       4.715280    -1.336890    -2.446940
   38      H       2.993820    -1.506440    -2.853750
   39      C      -3.445770    -1.244670    -2.381550
   40      H      -2.489270    -1.334370    -2.909620
   41      H      -4.224580    -1.016690    -3.114480
   42      H      -3.655720    -2.227740    -1.944880
   43      F      -4.957140     2.945630    -0.372390
   44      F       4.944550     3.033960    -0.304950
 ----------------------------------------------------
 Nuclear Repulsion Energy =  2631.8992343483 hartrees
 There are       99 alpha and       98 beta electrons

 Q-Chem warning in module BasisType.C, line 827:

 Setting pure/cartesian flag to 2111 for general basis


 Requested basis set is non-standard
 There are 169 shells and 508 basis functions

Total QAlloc Memory Limit   2000 MB
Mega-Array Size       743 MB
MEM_STATIC part       760 MB
 A cutoff of  1.0D-08 yielded   9221 shell pairs
 There are  90576 function pairs ( 98712 Cartesian)
Evaluating contribution to one-electron hamiltonian from nuclear
 Requested basis set is non-standard
 Compound shells will be simplified
Warning: Basis Set and ECP do not match
 There are 244 shells and 508 basis functions
 A cutoff of  1.0D-08 yielded  21038 shell pairs
 There are  90402 function pairs ( 98542 Cartesian)
 Smallest overlap matrix eigenvalue = 6.02E-07

 Q-Chem warning in module mkSTV.C, line 194:

 Overlap eigenvalue is smaller than square root of threshold

 Linear dependence detected in AO basis
 Number of orthogonalized atomic orbitals = 505
 Maximum deviation from orthogonality = 1.510E-10
 Multipole matrices computed through 2nd order

  Scale SEOQF with 1.000000e-02/1.000000e-01/1.000000e-01

 Standard Electronic Orientation quadrupole field applied
 Nucleus-field energy     =     0.0000000069 hartrees
 Guess MOs from core Hamiltonian diagonalization
 Long-range K will be added via erf
 Coulomb attenuation parameter = 0.4 bohr**(-1)
 An unrestricted Kohn-Sham SCF calculation will be
 performed using Pulay DIIS extrapolation
 Exchange:  wPBE + LR-HF      Correlation:  PBE
 Using SG-1 standard quadrature grid
 SCF converges when DIIS error is below 1.0E-05
 Requested basis set is non-standard
 There are 169 shells and 508 basis functions
 A cutoff of  1.0D-08 yielded   9221 shell pairs
 There are  90576 function pairs ( 98712 Cartesian)
 ---------------------------------------
  Cycle       Energy         DIIS Error
 ---------------------------------------
    1    -590.6863583356      7.98E-02
    2     366.6276407878      9.91E-02
    3    -786.2834144247      8.53E-02
    4    -962.1421248173      7.19E-02
    5    -998.2885953228      6.57E-02
    6   -1180.5665861367      4.19E-02
    7    -900.0219570363      7.03E-02
    8   -1310.7974863826      1.66E-02
    9   -1295.8186974104      2.11E-02
   10   -1310.0274141489      1.88E-02
   11   -1321.3018747486      6.82E-03
   12   -1321.5125769366      7.12E-03
   13   -1322.5418746129      2.20E-03
   14   -1322.6690729933      1.10E-03
   15   -1322.7042072565      4.13E-04
   16   -1322.7116861888      2.09E-04
   17   -1322.7144817603      8.48E-05
   18   -1322.7156342251      5.01E-05
   19   -1322.7166730030      3.94E-05
   20   -1322.7176425836      3.20E-05
   21   -1322.7188265669      2.12E-05
   22   -1322.7195814054      1.33E-05
   23   -1322.7197133931      8.89E-06 Convergence criterion met
 ---------------------------------------
 One-Electron    Energy = -7094.6134267910
 Total Coulomb   Energy =  3314.6661760789
 Alpha Exchange  Energy =   -19.8954009244
 Beta  Exchange  Energy =   -19.6914157787
 DFT   Exchange  Energy =  -128.2871276765
 DFT Correlation Energy =    -6.7977526566
 Nuclear Repu.   Energy =  2631.8992343552
 Nuclear Attr.   Energy = -8381.5454091020
 Kinetic         Energy =  1286.9319823110
 <S^2> = 0.7588
 SCF time:  CPU 5961.12 s  wall 5967.47 s
 Final Alpha MO Eigenvalues
            1           2           3           4           5           6
    1 -24.4067780 -24.4049279 -18.8386962 -18.8328407 -18.8248766 -18.7826893
            7           8           9          10          11          12
    1 -14.1388831 -10.0970956 -10.0949586 -10.0661604 -10.0634196 -10.0527262
           13          14          15          16          17          18
    1 -10.0497068 -10.0448430 -10.0400070 -10.0271271 -10.0266140 -10.0265301
           19          20          21          22          23          24
    1 -10.0262543 -10.0248271 -10.0240462 -10.0240149 -10.0234038 -10.0033913
           25          26          27          28          29          30
    1 -10.0026544  -2.6166957  -1.6966195  -1.6863093  -1.6854814  -1.2499952
           31          32          33          34          35          36
    1  -1.2479419  -1.0204362  -1.0097893  -0.9958314  -0.9669537  -0.9053813
           37          38          39          40          41          42
    1  -0.9025523  -0.8427508  -0.8323486  -0.8240358  -0.7950525  -0.7929847
           43          44          45          46          47          48
    1  -0.7644877  -0.7410525  -0.7295210  -0.7252762  -0.6898609  -0.6400249
           49          50          51          52          53          54
    1  -0.6320475  -0.6295125  -0.6261616  -0.6064768  -0.5625968  -0.5566506
           55          56          57          58          59          60
    1  -0.5433846  -0.5397519  -0.5188498  -0.5131080  -0.5089585  -0.5060292
           61          62          63          64          65          66
    1  -0.5016176  -0.4985894  -0.4951638  -0.4655498  -0.4515983  -0.4493740
           67          68          69          70          71          72
    1  -0.4474119  -0.4443276  -0.4416577  -0.4406122  -0.4389880  -0.4356210
           73          74          75          76          77          78
    1  -0.4277457  -0.4190372  -0.4098944  -0.4039772  -0.3993715  -0.3945375
           79          80          81          82          83          84
    1  -0.3851867  -0.3806424  -0.3784678  -0.3749935  -0.3626903  -0.3598735
           85          86          87          88          89          90
    1  -0.3452528  -0.3378096  -0.3233658  -0.3146728  -0.3051004  -0.2794810
           91          92          93          94          95          96
    1  -0.2637324  -0.2581688  -0.2501030  -0.2422175  -0.2378120  -0.2309898
           97          98          99         100         101         102
    1  -0.2107167  -0.1959876  -0.1179447   0.1308658   0.1349235   0.1376607
          103         104
    1   0.1428285   0.1543100
 Final Beta MO Eigenvalues
            1           2           3           4           5           6
    1 -24.4067458 -24.4048755 -18.8384452 -18.8322963 -18.8250880 -18.7838235
            7           8           9          10          11          12
    1 -14.1388985 -10.0969054 -10.0946344 -10.0661706 -10.0635812 -10.0527391
           13          14          15          16          17          18
    1 -10.0497048 -10.0445593 -10.0400089 -10.0270165 -10.0266229 -10.0264392
           19          20          21          22          23          24
    1 -10.0263940 -10.0249046 -10.0238744 -10.0237180 -10.0234822 -10.0033984
           25          26          27          28          29          30
    1 -10.0026753  -2.5804320  -1.6811776  -1.6359001  -1.6319680  -1.2499035
           31          32          33          34          35          36
    1  -1.2477926  -1.0195619  -1.0083039  -0.9950457  -0.9665579  -0.9050553
           37          38          39          40          41          42
    1  -0.9022147  -0.8425080  -0.8321151  -0.8250881  -0.7947646  -0.7926670
           43          44          45          46          47          48
    1  -0.7643025  -0.7411561  -0.7295163  -0.7252135  -0.6896321  -0.6395710
           49          50          51          52          53          54
    1  -0.6317708  -0.6293023  -0.6259123  -0.6060869  -0.5624347  -0.5564910
           55          56          57          58          59          60
    1  -0.5431799  -0.5394934  -0.5183822  -0.5121252  -0.5077566  -0.5055378
           61          62          63          64          65          66
    1  -0.5009952  -0.4981380  -0.4946075  -0.4648979  -0.4509425  -0.4488330
           67          68          69          70          71          72
    1  -0.4465575  -0.4440752  -0.4412587  -0.4398913  -0.4388022  -0.4352447
           73          74          75          76          77          78
    1  -0.4271257  -0.4140984  -0.4088159  -0.4036140  -0.3978598  -0.3934327
           79          80          81          82          83          84
    1  -0.3837106  -0.3800505  -0.3779857  -0.3739892  -0.3617653  -0.3589995
           85          86          87          88          89          90
    1  -0.3422053  -0.3352560  -0.3166002  -0.3107025  -0.2991812  -0.2773359
           91          92          93          94          95          96
    1  -0.2612752  -0.2568860  -0.2495562  -0.2394701  -0.2377009  -0.2276016
           97          98          99         100         101         102
    1  -0.2004684  -0.1930917   0.1308093   0.1348564   0.1377450   0.1428575
          103
    1   0.1544013
 Analysis of SCF Wavefunction
 
 --------------------------------------------------------------
                    Orbital Energies (a.u.)
 --------------------------------------------------------------
 
 Alpha MOs
 -- Occupied --
-24.407 -24.405 -18.839 -18.833 -18.825 -18.783 -14.139 -10.097
-10.095 -10.066 -10.063 -10.053 -10.050 -10.045 -10.040 -10.027
-10.027 -10.027 -10.026 -10.025 -10.024 -10.024 -10.023 -10.003
-10.003  -2.617  -1.697  -1.686  -1.685  -1.250  -1.248  -1.020
 -1.010  -0.996  -0.967  -0.905  -0.903  -0.843  -0.832  -0.824
 -0.795  -0.793  -0.764  -0.741  -0.730  -0.725  -0.690  -0.640
 -0.632  -0.630  -0.626  -0.606  -0.563  -0.557  -0.543  -0.540
 -0.519  -0.513  -0.509  -0.506  -0.502  -0.499  -0.495  -0.466
 -0.452  -0.449  -0.447  -0.444  -0.442  -0.441  -0.439  -0.436
 -0.428  -0.419  -0.410  -0.404  -0.399  -0.395  -0.385  -0.381
 -0.378  -0.375  -0.363  -0.360  -0.345  -0.338  -0.323  -0.315
 -0.305  -0.279  -0.264  -0.258  -0.250  -0.242  -0.238  -0.231
 -0.211  -0.196  -0.118
 -- Virtual --
  0.131   0.135   0.138   0.143   0.154   0.156   0.158   0.160
  0.162   0.168   0.175   0.175   0.179   0.180   0.186   0.189
  0.194   0.197   0.203   0.204   0.210   0.213   0.219   0.221
  0.224   0.227   0.230   0.236   0.238   0.244   0.245   0.251
  0.256   0.260   0.261   0.264   0.267   0.269   0.274   0.277
  0.280   0.285   0.287   0.291   0.296   0.298   0.305   0.307
  0.308   0.314   0.316   0.317   0.322   0.327   0.327   0.330
  0.334   0.338   0.341   0.346   0.349   0.353   0.357   0.358
  0.361   0.369   0.373   0.374   0.377   0.383   0.385   0.387
  0.394   0.395   0.397   0.399   0.402   0.405   0.410   0.412
  0.419   0.420   0.425   0.427   0.433   0.434   0.440   0.442
  0.447   0.449   0.450   0.458   0.463   0.467   0.472   0.474
  0.477   0.486   0.489   0.492   0.495   0.496   0.499   0.503
  0.505   0.511   0.518   0.528   0.529   0.533   0.534   0.537
  0.540   0.542   0.546   0.549   0.553   0.558   0.559   0.568
  0.569   0.577   0.579   0.581   0.584   0.589   0.594   0.596
  0.600   0.603   0.606   0.612   0.619   0.621   0.629   0.634
  0.637   0.642   0.648   0.650   0.657   0.662   0.667   0.669
  0.676   0.681   0.689   0.693   0.702   0.753   0.756   0.768
  0.806   0.824   0.828   0.845   0.855   0.862   0.866   0.885
  0.891   0.894   0.902   0.915   0.919   0.924   0.929   0.932
  0.934   0.943   0.961   0.968   0.969   0.973   0.987   0.991
  0.994   1.000   1.005   1.012   1.015   1.017   1.028   1.035
  1.046   1.050   1.057   1.062   1.070   1.078   1.087   1.096
  1.107   1.117   1.124   1.126   1.133   1.141   1.150   1.163
  1.168   1.177   1.188   1.197   1.215   1.219   1.226   1.236
  1.245   1.249   1.263   1.274   1.278   1.284   1.295   1.302
  1.320   1.328   1.336   1.347   1.355   1.366   1.374   1.381
  1.391   1.395   1.413   1.415   1.421   1.426   1.438   1.453
  1.454   1.463   1.468   1.480   1.494   1.501   1.501   1.521
  1.526   1.534   1.540   1.553   1.553   1.560   1.564   1.569
  1.572   1.586   1.602   1.609   1.614   1.621   1.628   1.633
  1.635   1.652   1.659   1.661   1.668   1.682   1.687   1.696
  1.727   1.730   1.759   1.783   1.789   1.805   1.814   1.843
  1.855   1.861   1.866   1.867   1.900   1.911   1.913   1.920
  1.937   1.945   1.949   1.959   1.967   1.996   2.009   2.016
  2.021   2.034   2.036   2.039   2.042   2.044   2.050   2.056
  2.067   2.075   2.077   2.095   2.103   2.106   2.115   2.117
  2.127   2.132   2.140   2.142   2.159   2.161   2.169   2.175
  2.183   2.185   2.194   2.201   2.211   2.221   2.232   2.235
  2.242   2.260   2.269   2.276   2.287   2.293   2.303   2.312
  2.315   2.334   2.345   2.351   2.358   2.375   2.388   2.396
  2.404   2.414   2.421   2.431   2.452   2.469   2.478   2.480
  2.489   2.501   2.507   2.509   2.520   2.526   2.527   2.548
  2.553   2.560   2.574   2.581   2.588   2.603   2.610   2.614
  2.625   2.642   2.644   2.665   2.666   2.674   2.697   2.702
  2.724   2.726   2.735   2.756   2.793   2.813   2.819   2.834
  2.852   2.882   2.884   2.899   2.908   2.957   2.977   3.008
  3.014   3.025   3.048   3.071   3.099   3.116   3.138   3.148
  3.209   3.232   3.246   3.257   3.301   3.383   3.395   3.466
  3.470   3.481   3.488   3.706   3.710  59.770
 
 Beta MOs
 -- Occupied --
-24.407 -24.405 -18.838 -18.832 -18.825 -18.784 -14.139 -10.097
-10.095 -10.066 -10.064 -10.053 -10.050 -10.045 -10.040 -10.027
-10.027 -10.026 -10.026 -10.025 -10.024 -10.024 -10.023 -10.003
-10.003  -2.580  -1.681  -1.636  -1.632  -1.250  -1.248  -1.020
 -1.008  -0.995  -0.967  -0.905  -0.902  -0.843  -0.832  -0.825
 -0.795  -0.793  -0.764  -0.741  -0.730  -0.725  -0.690  -0.640
 -0.632  -0.629  -0.626  -0.606  -0.562  -0.556  -0.543  -0.539
 -0.518  -0.512  -0.508  -0.506  -0.501  -0.498  -0.495  -0.465
 -0.451  -0.449  -0.447  -0.444  -0.441  -0.440  -0.439  -0.435
 -0.427  -0.414  -0.409  -0.404  -0.398  -0.393  -0.384  -0.380
 -0.378  -0.374  -0.362  -0.359  -0.342  -0.335  -0.317  -0.311
 -0.299  -0.277  -0.261  -0.257  -0.250  -0.239  -0.238  -0.228
 -0.200  -0.193
 -- Virtual --
  0.131   0.135   0.138   0.143   0.154   0.156   0.158   0.160
  0.162   0.168   0.175   0.176   0.179   0.181   0.186   0.191
  0.193   0.197   0.203   0.208   0.211   0.217   0.220   0.224
  0.226   0.227   0.230   0.236   0.238   0.245   0.246   0.254
  0.258   0.259   0.263   0.266   0.268   0.271   0.275   0.276
  0.280   0.281   0.289   0.292   0.294   0.299   0.301   0.307
  0.307   0.310   0.314   0.316   0.317   0.323   0.327   0.328
  0.330   0.334   0.339   0.341   0.346   0.349   0.354   0.357
  0.359   0.361   0.369   0.373   0.375   0.377   0.383   0.386
  0.388   0.394   0.395   0.397   0.400   0.403   0.406   0.411
  0.412   0.420   0.420   0.425   0.427   0.434   0.434   0.440
  0.443   0.447   0.449   0.451   0.458   0.463   0.467   0.472
  0.475   0.478   0.487   0.489   0.493   0.496   0.497   0.499
  0.503   0.506   0.512   0.518   0.529   0.530   0.533   0.535
  0.538   0.541   0.542   0.546   0.549   0.554   0.558   0.560
  0.568   0.570   0.578   0.579   0.582   0.585   0.590   0.595
  0.596   0.601   0.603   0.607   0.612   0.620   0.622   0.630
  0.635   0.639   0.644   0.649   0.651   0.658   0.662   0.668
  0.670   0.676   0.682   0.691   0.694   0.703   0.756   0.758
  0.771   0.808   0.824   0.830   0.846   0.857   0.862   0.868
  0.887   0.895   0.897   0.902   0.916   0.920   0.924   0.929
  0.932   0.935   0.944   0.963   0.969   0.970   0.975   0.987
  0.992   0.995   1.000   1.006   1.012   1.016   1.018   1.029
  1.035   1.047   1.050   1.057   1.063   1.071   1.079   1.088
  1.097   1.108   1.118   1.125   1.126   1.134   1.142   1.150
  1.163   1.168   1.177   1.188   1.197   1.215   1.220   1.226
  1.236   1.246   1.250   1.263   1.275   1.279   1.284   1.295
  1.303   1.321   1.328   1.336   1.347   1.355   1.366   1.375
  1.381   1.391   1.395   1.413   1.415   1.422   1.427   1.438
  1.453   1.455   1.463   1.469   1.480   1.494   1.501   1.502
  1.521   1.527   1.535   1.541   1.553   1.554   1.561   1.565
  1.569   1.573   1.586   1.603   1.610   1.615   1.621   1.628
  1.634   1.636   1.652   1.659   1.661   1.669   1.682   1.688
  1.696   1.728   1.731   1.760   1.784   1.790   1.806   1.814
  1.844   1.856   1.861   1.867   1.868   1.901   1.911   1.913
  1.921   1.937   1.945   1.949   1.959   1.967   1.996   2.010
  2.016   2.022   2.034   2.036   2.039   2.043   2.044   2.050
  2.056   2.067   2.075   2.077   2.096   2.103   2.106   2.115
  2.117   2.127   2.133   2.140   2.142   2.159   2.161   2.169
  2.175   2.183   2.185   2.195   2.201   2.211   2.221   2.232
  2.235   2.242   2.260   2.269   2.276   2.287   2.293   2.304
  2.313   2.315   2.334   2.345   2.351   2.358   2.375   2.388
  2.396   2.405   2.414   2.422   2.431   2.453   2.470   2.478
  2.480   2.489   2.501   2.507   2.510   2.521   2.526   2.527
  2.548   2.553   2.561   2.574   2.581   2.588   2.603   2.610
  2.614   2.625   2.643   2.644   2.665   2.666   2.675   2.697
  2.702   2.724   2.727   2.735   2.757   2.793   2.813   2.819
  2.834   2.853   2.882   2.885   2.899   2.908   2.957   2.977
  3.008   3.014   3.026   3.049   3.071   3.099   3.116   3.138
  3.148   3.209   3.232   3.247   3.258   3.302   3.384   3.395
  3.466   3.470   3.481   3.488   3.706   3.710  59.824
 --------------------------------------------------------------
 
          Ground-State Mulliken Net Atomic Charges

     Atom                 Charge (a.u.)    Spin (a.u.)
  --------------------------------------------------------
      1 V                     1.300228       0.990991
      2 O                    -0.377954      -0.034889
      3 O                    -0.552665       0.013722
      4 O                    -0.548800       0.012724
      5 O                    -0.532526       0.007001
      6 N                    -0.320837      -0.010650
      7 C                    -0.591364      -0.032229
      8 C                     0.613431       0.015619
      9 C                    -0.270159      -0.009808
     10 H                     0.208605       0.000272
     11 C                    -0.329638       0.016176
     12 C                     0.026957      -0.008104
     13 H                     0.211248       0.000473
     14 C                     0.576698       0.028582
     15 C                    -0.635635       0.000761
     16 H                     0.281120       0.000558
     17 H                     0.194387       0.000375
     18 C                    -0.754868      -0.024781
     19 H                     0.201880       0.000136
     20 H                     0.252166       0.001025
     21 C                     1.071137       0.069590
     22 C                    -0.002554      -0.021585
     23 H                     0.209694       0.000863
     24 C                    -0.384860       0.028027
     25 C                    -0.494416      -0.017430
     26 H                     0.209126       0.000782
     27 C                     0.445172       0.015368
     28 C                    -0.241434      -0.036287
     29 C                    -0.273670      -0.003591
     30 H                     0.192635      -0.000113
     31 H                     0.262102       0.000227
     32 C                    -0.302363       0.001293
     33 H                     0.182973      -0.001527
     34 H                     0.179839       0.000405
     35 C                    -0.895382      -0.002707
     36 H                     0.260750       0.000388
     37 H                     0.193653       0.000049
     38 H                     0.249695       0.000568
     39 C                    -0.806099      -0.004644
     40 H                     0.256845       0.000812
     41 H                     0.193229       0.000041
     42 H                     0.251036       0.000900
     43 F                    -0.354591       0.000357
     44 F                    -0.354793       0.000262
  --------------------------------------------------------
  Sum of atomic charges =    -1.000000
  Sum of spin   charges =     1.000000

 -----------------------------------------------------------------
                    Cartesian Multipole Moments
 -----------------------------------------------------------------
    Charge (ESU x 10^10)
                -4.8032
    Dipole Moment (Debye)
         X       0.1791      Y       5.5702      Z       2.4190
       Tot       6.0754
    Quadrupole Moments (Debye-Ang)
        XX    -204.7532     XY      -0.7312     YY    -209.1271
        XZ       0.0647     YZ       3.1437     ZZ    -161.0199
    Octapole Moments (Debye-Ang^2)
       XXX      27.3822    XXY    -131.5124    XYY      -5.4846
       YYY      53.0253    XXZ      -7.2005    XYZ       1.5740
       YYZ      18.0922    XZZ      -8.9079    YZZ       3.3888
       ZZZ       6.8438
    Hexadecapole Moments (Debye-Ang^3)
      XXXX   -8653.4917   XXXY     -31.9084   XXYY   -2164.9259
      XYYY      13.1410   YYYY   -3345.2910   XXXZ       0.0571
      XXYZ      34.3128   XYYZ      -6.8111   YYYZ       8.0487
      XXZZ   -1567.1255   XYZZ     -10.0146   YYZZ    -846.5569
      XZZZ      20.2477   YZZZ     -16.5496   ZZZZ   -2020.1595
 -----------------------------------------------------------------
 Total job time:  5970.36s(wall), 5963.94s(cpu) 
 Thu Jun 19 03:44:38 2014

        *************************************************************
        *                                                           *
        *  Thank you very much for using Q-Chem.  Have a nice day.  *
        *                                                           *
        *************************************************************


0 sent ACK to 0 
now end server 0 ... 
 
**********************************************************************
Job 2 of 3 
**********************************************************************
 
Process 0 of 1 is on cl122 - thread support 1
initial socket setup ...start
initial socket setup ...done 
now start server 0 ... 

cmd = /usr/bin/ssh clhead /usr/local/qchem/bin/get_hostid 551051719 > /tmp/1656824.1.medium.q/qchem11105/lic.dat

cmd = /usr/bin/ssh clhead /usr/local/qchem/bin/get_hostid 551051719 > /tmp/1656824.1.medium.q/qchem11105/lic.dat

cmd = /usr/bin/ssh clhead /usr/local/qchem/bin/get_hostid 551051719 > /tmp/1656824.1.medium.q/qchem11105/lic.dat

cmd = /usr/bin/ssh clhead /usr/local/qchem/bin/get_hostid 551051719 > /tmp/1656824.1.medium.q/qchem11105/lic.dat

cmd = /usr/bin/ssh clhead /usr/local/qchem/bin/get_hostid 551051719 > /tmp/1656824.1.medium.q/qchem11105/lic.dat
                  Welcome to Q-Chem
     A Quantum Leap Into The Future Of Chemistry

 Y. Shao, L. Fusti-Molnar, Y. Jung, J. Kussmann, C. Ochsenfeld,
 S. T. Brown, A. T. B. Gilbert, L. V. Slipchenko,S. V. Levchenko,
 D. P. O'Neill, R. A. DiStasio Jr., R. C. Lochan, T. Wang,
 G. J. O. Beran, N. A. Besley, J. M. Herbert, C. Y. Lin,
 T. Van Voorhis, S. H. Chien, A. Sodt, R. P. Steele, 
 V. A. Rassolov, P. E. Maslen, P. P. Korambath, R. D. Adamson,
 B. Austin, J. Baker, E. F. C. Byrd, H. Dachsel, R. J. Doerksen,
 A. Dreuw, B. D. Dunietz, A. D. Dutoi, T. R. Furlani,
 S. R. Gwaltney, A. Heyden, S. Hirata, C.-P. Hsu, G. Kedziora,
 R. Z. Khaliullin, P. Klunzinger, A. M. Lee, M. S. Lee, W. Liang,
 I. Lotan, N. Nair, B. Peters, E. I. Proynov, P. A. Pieniazek, 
 Y. M. Rhee, J. Ritchie, E. Rosta, C. D. Sherrill, 
 A. C. Simmonett, J. E. Subotnik, H. L. Woodcock III,
 W. Zhang, A. T. Bell, A. K. Chakraborty, D. M. Chipman,
 F. J. Keil, A. Warshel, W. J. Hehre, H. F. Schaefer III,
 J. Kong, A. I. Krylov, P. M. W. Gill, M. Head-Gordon,
 Q-Chem, Version 3.1, Q-Chem, Inc., Pittsburgh, PA (2007).

 Additional authors for Version 3.1: 
 Z. Gan, Y. Zhao, N. E. Schultz, D. Truhlar, E. Epifanovsky and M. Oana.

 Additional authors for Version 3.2: 
 R. Baer, B. R. Brooks, D. Casanova, J.-D. Chai, C.-L. Cheng, 
 C. Cramer, D. Crittenden, A. Ghysels, G. Hawkins, E. G. Hohenstein, 
 C. Kelley, W. Kurlancheek, D. Liotard, E. Livshits, P. Manohar, 
 A. Marenich, D. Neuhauser, R. Olson, M. A. Rohrdanz, K. S. Thanthiriwatte, 
 A. J. W. Thom, V. Vanovschi, C. F. Williams, Q. Wu and Z.-Q. You. 


 Intel X86 Linux Version

 Q-chem begins on Thu Jun 19 03:44:43 2014  

 Parallel job on  1  processors
Processing $rem in /usr/local/qchem/config/preferences.

theFileMan(): MAXOPENFILES=974 MAX_SUB_FILE_NUM=16
Maximum size of a physical file is 2.0 GB, maximum size of a tmp-file is 32.0 GB


--------------------------------------------------------------
User input:
--------------------------------------------------------------

$molecule
0,1
V          0.03260       -1.87320        0.09818
O          0.08873       -3.27638       -0.62065
O          1.24907       -0.93737       -0.82191
O         -1.67099       -1.39830       -0.24263
O          0.49449       -2.36647        1.74418
N         -0.02368        0.23115        1.40233
C          2.14182        0.05739       -0.66285
C          3.40342       -0.10882       -1.26990
C          4.34362        0.91251       -1.14203
H          5.32663        0.82280       -1.59544
C          4.01799        2.05215       -0.42324
C          2.78699        2.22282        0.18410
H          2.57712        3.13007        0.74342
C          1.82699        1.21595        0.06427
C          0.46421        1.40388        0.66368
H         -0.26259        1.60305       -0.13463
H          0.47015        2.29263        1.31597
C         -1.39942        0.47043        1.86935
H         -1.42383        1.34444        2.54032
H         -1.70591       -0.39897        2.46341
C         -2.37052        0.66322        0.74404
C         -3.22288        1.76787        0.70603
H         -3.18065        2.53542        1.47350
C         -4.12976        1.87214       -0.33320
C         -4.22295        0.92379       -1.34059
H         -4.95046        1.05384       -2.13687
C         -3.38091       -0.18759       -1.32108
C         -2.45395       -0.30661       -0.26577
C          0.84366       -0.12811        2.52662
H          0.70567        0.54488        3.38825
H          1.88257       -0.03991        2.19393
C          0.56706       -1.57165        2.90555
H          1.37227       -1.96242        3.53899
H         -0.37234       -1.68319        3.46345
C          3.70420       -1.36413       -2.03147
H          3.61777       -2.24648       -1.38674
H          4.71528       -1.33689       -2.44694
H          2.99382       -1.50644       -2.85375
C         -3.44577       -1.24467       -2.38155
H         -2.48927       -1.33437       -2.90962
H         -4.22458       -1.01669       -3.11448
H         -3.65572       -2.22774       -1.94488
F         -4.95714        2.94563       -0.37239
F          4.94455        3.03396       -0.30495
$end

$comment
neutral
$end

$xc_functional
C PBE   1.00
X wPBE  1.00
$end


$rem
SYMMETRY_DECOMPOSITION	0
LRC_DFT                 true
exchange 		general
BASIS                   gen
ECP                     lanl2dz
omega			400
mem_static              760
max_scf_cycles          200
scf_final_print         1
sym_ignore              true
$end

$basis
   V 0
   lanl2dz
   ****
   O 0 
   6-31+G*
   ****
   N 0
   6-31+G*
   ****
   C 0
   6-31+G*
   ****
   H 0
   6-31+G*
   ****
   F 0
   6-31+G*
   ****
$end

--------------------------------------------------------------
 Writing REM_CC_EA           44
 ----------------------------------------------------
       Standard Nuclear Orientation (Angstroms)
    I     Atom         X            Y            Z
 ----------------------------------------------------
    1      V       0.032600    -1.873200     0.098180
    2      O       0.088730    -3.276380    -0.620650
    3      O       1.249070    -0.937370    -0.821910
    4      O      -1.670990    -1.398300    -0.242630
    5      O       0.494490    -2.366470     1.744180
    6      N      -0.023680     0.231150     1.402330
    7      C       2.141820     0.057390    -0.662850
    8      C       3.403420    -0.108820    -1.269900
    9      C       4.343620     0.912510    -1.142030
   10      H       5.326630     0.822800    -1.595440
   11      C       4.017990     2.052150    -0.423240
   12      C       2.786990     2.222820     0.184100
   13      H       2.577120     3.130070     0.743420
   14      C       1.826990     1.215950     0.064270
   15      C       0.464210     1.403880     0.663680
   16      H      -0.262590     1.603050    -0.134630
   17      H       0.470150     2.292630     1.315970
   18      C      -1.399420     0.470430     1.869350
   19      H      -1.423830     1.344440     2.540320
   20      H      -1.705910    -0.398970     2.463410
   21      C      -2.370520     0.663220     0.744040
   22      C      -3.222880     1.767870     0.706030
   23      H      -3.180650     2.535420     1.473500
   24      C      -4.129760     1.872140    -0.333200
   25      C      -4.222950     0.923790    -1.340590
   26      H      -4.950460     1.053840    -2.136870
   27      C      -3.380910    -0.187590    -1.321080
   28      C      -2.453950    -0.306610    -0.265770
   29      C       0.843660    -0.128110     2.526620
   30      H       0.705670     0.544880     3.388250
   31      H       1.882570    -0.039910     2.193930
   32      C       0.567060    -1.571650     2.905550
   33      H       1.372270    -1.962420     3.538990
   34      H      -0.372340    -1.683190     3.463450
   35      C       3.704200    -1.364130    -2.031470
   36      H       3.617770    -2.246480    -1.386740
   37      H       4.715280    -1.336890    -2.446940
   38      H       2.993820    -1.506440    -2.853750
   39      C      -3.445770    -1.244670    -2.381550
   40      H      -2.489270    -1.334370    -2.909620
   41      H      -4.224580    -1.016690    -3.114480
   42      H      -3.655720    -2.227740    -1.944880
   43      F      -4.957140     2.945630    -0.372390
   44      F       4.944550     3.033960    -0.304950
 ----------------------------------------------------
 Nuclear Repulsion Energy =  2631.8992343483 hartrees
 There are       98 alpha and       98 beta electrons

 Q-Chem warning in module BasisType.C, line 827:

 Setting pure/cartesian flag to 2111 for general basis


 Requested basis set is non-standard
 There are 169 shells and 508 basis functions

Total QAlloc Memory Limit   2000 MB
Mega-Array Size       743 MB
MEM_STATIC part       760 MB
 A cutoff of  1.0D-08 yielded   9221 shell pairs
 There are  90576 function pairs ( 98712 Cartesian)
Evaluating contribution to one-electron hamiltonian from nuclear
 Requested basis set is non-standard
 Compound shells will be simplified
Warning: Basis Set and ECP do not match
 There are 244 shells and 508 basis functions
 A cutoff of  1.0D-08 yielded  21038 shell pairs
 There are  90402 function pairs ( 98542 Cartesian)
 Smallest overlap matrix eigenvalue = 6.02E-07

 Q-Chem warning in module mkSTV.C, line 194:

 Overlap eigenvalue is smaller than square root of threshold

 Linear dependence detected in AO basis
 Number of orthogonalized atomic orbitals = 505
 Maximum deviation from orthogonality = 1.510E-10
 Multipole matrices computed through 2nd order

  Scale SEOQF with 1.000000e-02/1.000000e-01/1.000000e-01

 Standard Electronic Orientation quadrupole field applied
 Nucleus-field energy     =     0.0000000069 hartrees
 Guess MOs from core Hamiltonian diagonalization
 Long-range K will be added via erf
 Coulomb attenuation parameter = 0.4 bohr**(-1)
 A restricted Kohn-Sham SCF calculation will be
 performed using Pulay DIIS extrapolation
 Exchange:  wPBE + LR-HF      Correlation:  PBE
 Using SG-1 standard quadrature grid
 SCF converges when DIIS error is below 1.0E-05
 Requested basis set is non-standard
 There are 169 shells and 508 basis functions
 A cutoff of  1.0D-08 yielded   9221 shell pairs
 There are  90576 function pairs ( 98712 Cartesian)
 ---------------------------------------
  Cycle       Energy         DIIS Error
 ---------------------------------------
    1    -599.7729046411      7.97E-02
    2     359.2575509556      1.01E-01
    3    -792.2969959333      8.49E-02
    4    -949.6084689500      7.18E-02
    5   -1005.4429098792      6.64E-02
    6   -1275.7264702615      2.96E-02
    7   -1236.4541372740      3.80E-02
    8   -1303.6534276920      1.84E-02
    9   -1277.5868971441      2.84E-02
   10   -1319.6224386280      8.60E-03
   11   -1320.0803210298      1.07E-02
   12   -1322.2606113182      3.37E-03
   13   -1322.5364038915      2.06E-03
   14   -1322.6298701748      6.86E-04
   15   -1322.6386104881      4.15E-04
   16   -1322.6439679365      1.88E-04
   17   -1322.6449696676      8.80E-05
   18   -1322.6452657303      2.92E-05
   19   -1322.6452869357      1.06E-05
   20   -1322.6452896394      4.45E-06 Convergence criterion met
 ---------------------------------------
 One-Electron    Energy = -7067.6874130402
 Total Coulomb   Energy =  3287.3179462806
 Alpha Exchange  Energy =   -19.6862882253
 Beta  Exchange  Energy =   -19.6862882253
 DFT   Exchange  Energy =  -128.0380065923
 DFT Correlation Energy =    -6.7644741922
 Nuclear Repu.   Energy =  2631.8992343552
 Nuclear Attr.   Energy = -8353.3794335741
 Kinetic         Energy =  1285.6920205339
 SCF time:  CPU 4252.32 s  wall 4257.22 s
 Final Alpha MO Eigenvalues
            1           2           3           4           5           6
    1 -24.5094617 -24.5085400 -19.0177966 -19.0141848 -19.0139089 -19.0124947
            7           8           9          10          11          12
    1 -14.2756228 -10.2150561 -10.2139278 -10.1952776 -10.1936118 -10.1888396
           13          14          15          16          17          18
    1 -10.1779436 -10.1737220 -10.1705577 -10.1540589 -10.1524503 -10.1497497
           19          20          21          22          23          24
    1 -10.1485678 -10.1407552 -10.1406596 -10.1367406 -10.1363170 -10.1136801
           25          26          27          28          29          30
    1 -10.1128924  -2.8541328  -1.9237285  -1.9199745  -1.9189242  -1.3524700
           31          32          33          34          35          36
    1  -1.3512600  -1.1791914  -1.1718320  -1.1568037  -1.1167394  -1.0415061
           37          38          39          40          41          42
    1  -1.0278052  -1.0247122  -0.9634572  -0.9538941  -0.9206081  -0.9148097
           43          44          45          46          47          48
    1  -0.8913738  -0.8606573  -0.8463925  -0.8450181  -0.8208262  -0.7723252
           49          50          51          52          53          54
    1  -0.7530647  -0.7480720  -0.7436298  -0.7325336  -0.6820754  -0.6738137
           55          56          57          58          59          60
    1  -0.6660007  -0.6615173  -0.6552204  -0.6501725  -0.6419824  -0.6388712
           61          62          63          64          65          66
    1  -0.6332407  -0.6049865  -0.6041174  -0.6002665  -0.5827564  -0.5759465
           67          68          69          70          71          72
    1  -0.5736005  -0.5694426  -0.5655194  -0.5598016  -0.5579433  -0.5560798
           73          74          75          76          77          78
    1  -0.5541603  -0.5432823  -0.5367735  -0.5311933  -0.5281334  -0.5249814
           79          80          81          82          83          84
    1  -0.5191662  -0.5145352  -0.5119610  -0.5087992  -0.4996355  -0.4961858
           85          86          87          88          89          90
    1  -0.4950475  -0.4791488  -0.4737541  -0.4673958  -0.4635822  -0.4445562
           91          92          93          94          95          96
    1  -0.4260341  -0.4208262  -0.4171385  -0.3816279  -0.3731576  -0.3649988
           97          98          99         100         101         102
    1  -0.3363182  -0.3261475  -0.0207929  -0.0139810   0.0257935   0.0269109
          103
    1   0.0409183
 Analysis of SCF Wavefunction
 
 --------------------------------------------------------------
                    Orbital Energies (a.u.)
 --------------------------------------------------------------
 
 Alpha MOs
 -- Occupied --
-24.509 -24.509 -19.018 -19.014 -19.014 -19.012 -14.276 -10.215
-10.214 -10.195 -10.194 -10.189 -10.178 -10.174 -10.171 -10.154
-10.152 -10.150 -10.149 -10.141 -10.141 -10.137 -10.136 -10.114
-10.113  -2.854  -1.924  -1.920  -1.919  -1.352  -1.351  -1.179
 -1.172  -1.157  -1.117  -1.042  -1.028  -1.025  -0.963  -0.954
 -0.921  -0.915  -0.891  -0.861  -0.846  -0.845  -0.821  -0.772
 -0.753  -0.748  -0.744  -0.733  -0.682  -0.674  -0.666  -0.662
 -0.655  -0.650  -0.642  -0.639  -0.633  -0.605  -0.604  -0.600
 -0.583  -0.576  -0.574  -0.569  -0.566  -0.560  -0.558  -0.556
 -0.554  -0.543  -0.537  -0.531  -0.528  -0.525  -0.519  -0.515
 -0.512  -0.509  -0.500  -0.496  -0.495  -0.479  -0.474  -0.467
 -0.464  -0.445  -0.426  -0.421  -0.417  -0.382  -0.373  -0.365
 -0.336  -0.326
 -- Virtual --
 -0.021  -0.014   0.026   0.027   0.041   0.045   0.047   0.049
  0.053   0.053   0.068   0.072   0.075   0.077   0.081   0.081
  0.085   0.088   0.095   0.097   0.099   0.102   0.105   0.115
  0.118   0.121   0.125   0.128   0.132   0.135   0.138   0.140
  0.149   0.151   0.156   0.157   0.161   0.166   0.170   0.172
  0.176   0.179   0.184   0.186   0.193   0.199   0.202   0.205
  0.209   0.211   0.213   0.217   0.220   0.223   0.226   0.229
  0.232   0.235   0.236   0.239   0.242   0.246   0.249   0.251
  0.254   0.257   0.263   0.266   0.268   0.269   0.275   0.280
  0.281   0.283   0.288   0.293   0.294   0.299   0.301   0.304
  0.305   0.311   0.313   0.317   0.319   0.322   0.324   0.330
  0.331   0.334   0.337   0.341   0.344   0.347   0.353   0.355
  0.362   0.363   0.371   0.373   0.376   0.378   0.383   0.385
  0.388   0.389   0.395   0.399   0.407   0.408   0.416   0.419
  0.422   0.424   0.430   0.432   0.436   0.444   0.448   0.450
  0.453   0.456   0.459   0.463   0.467   0.470   0.473   0.478
  0.482   0.484   0.489   0.493   0.496   0.499   0.504   0.506
  0.511   0.516   0.519   0.525   0.526   0.537   0.541   0.548
  0.550   0.556   0.559   0.562   0.574   0.584   0.609   0.616
  0.625   0.662   0.693   0.703   0.709   0.721   0.728   0.737
  0.752   0.759   0.761   0.789   0.794   0.803   0.808   0.814
  0.816   0.820   0.828   0.835   0.844   0.849   0.858   0.866
  0.871   0.879   0.884   0.890   0.892   0.898   0.902   0.905
  0.916   0.925   0.933   0.935   0.942   0.955   0.959   0.968
  0.973   0.981   0.994   1.009   1.015   1.017   1.020   1.030
  1.049   1.055   1.059   1.069   1.077   1.089   1.101   1.102
  1.114   1.127   1.130   1.145   1.154   1.161   1.169   1.171
  1.186   1.206   1.209   1.219   1.232   1.234   1.247   1.255
  1.261   1.270   1.274   1.285   1.295   1.306   1.312   1.316
  1.323   1.330   1.335   1.342   1.358   1.366   1.374   1.377
  1.389   1.402   1.408   1.412   1.415   1.422   1.428   1.431
  1.443   1.447   1.453   1.459   1.469   1.476   1.489   1.493
  1.498   1.508   1.512   1.520   1.526   1.530   1.551   1.560
  1.569   1.575   1.583   1.605   1.637   1.649   1.659   1.677
  1.698   1.713   1.716   1.748   1.764   1.768   1.772   1.799
  1.814   1.816   1.828   1.831   1.850   1.853   1.861   1.866
  1.875   1.886   1.899   1.907   1.912   1.924   1.926   1.929
  1.938   1.939   1.941   1.947   1.965   1.969   1.975   1.983
  1.989   1.998   2.001   2.010   2.016   2.020   2.035   2.035
  2.045   2.053   2.063   2.066   2.071   2.075   2.084   2.088
  2.095   2.106   2.108   2.117   2.123   2.142   2.145   2.161
  2.175   2.181   2.189   2.205   2.208   2.225   2.237   2.248
  2.259   2.264   2.278   2.283   2.291   2.313   2.327   2.338
  2.349   2.361   2.369   2.383   2.385   2.401   2.404   2.409
  2.419   2.425   2.431   2.443   2.453   2.461   2.483   2.489
  2.498   2.502   2.511   2.518   2.529   2.539   2.543   2.561
  2.565   2.603   2.606   2.610   2.625   2.666   2.686   2.694
  2.703   2.721   2.760   2.763   2.777   2.782   2.835   2.854
  2.879   2.889   2.901   2.924   2.946   2.974   2.996   3.001
  3.020   3.063   3.109   3.124   3.133   3.176   3.242   3.255
  3.345   3.351   3.363   3.367   3.585   3.589  59.550
 --------------------------------------------------------------
 
          Ground-State Mulliken Net Atomic Charges

     Atom                 Charge (a.u.)
  ----------------------------------------
      1 V                     1.298415
      2 O                    -0.156486
      3 O                    -0.490234
      4 O                    -0.496908
      5 O                    -0.436997
      6 N                    -0.415490
      7 C                    -0.582582
      8 C                     0.577766
      9 C                    -0.239135
     10 H                     0.237138
     11 C                    -0.342045
     12 C                     0.037162
     13 H                     0.234749
     14 C                     0.592629
     15 C                    -0.578087
     16 H                     0.294290
     17 H                     0.223007
     18 C                    -0.647943
     19 H                     0.231814
     20 H                     0.260739
     21 C                     1.064284
     22 C                     0.019027
     23 H                     0.233331
     24 C                    -0.401162
     25 C                    -0.481885
     26 H                     0.238125
     27 C                     0.418626
     28 C                    -0.248480
     29 C                    -0.257941
     30 H                     0.229860
     31 H                     0.279607
     32 C                    -0.310933
     33 H                     0.230029
     34 H                     0.219784
     35 C                    -0.871059
     36 H                     0.256358
     37 H                     0.223610
     38 H                     0.256814
     39 C                    -0.781754
     40 H                     0.254990
     41 H                     0.222977
     42 H                     0.258343
     43 F                    -0.326901
     44 F                    -0.327449
  ----------------------------------------
  Sum of atomic charges =     0.000000

 -----------------------------------------------------------------
                    Cartesian Multipole Moments
 -----------------------------------------------------------------
    Charge (ESU x 10^10)
                 0.0000
    Dipole Moment (Debye)
         X       0.3029      Y       1.6165      Z       2.8798
       Tot       3.3163
    Quadrupole Moments (Debye-Ang)
        XX    -167.6157     XY      -1.5377     YY    -178.8427
        XZ       0.8570     YZ       3.5211     ZZ    -143.0979
    Octapole Moments (Debye-Ang^2)
       XXX      26.4332    XXY     -96.1605    XYY      -1.6807
       YYY      10.0051    XXZ     -38.3569    XYZ      -1.2604
       YYZ      18.4429    XZZ      -7.5220    YZZ     -10.6916
       ZZZ      27.7074
    Hexadecapole Moments (Debye-Ang^3)
      XXXX   -7828.1581   XXXY     -42.4289   XXYY   -1987.2063
      XYYY      11.0843   YYYY   -3007.8886   XXXZ      -2.1477
      XXYZ      35.3894   XYYZ      -3.3000   YYYZ      23.7737
      XXZZ   -1436.5214   XYZZ     -21.0927   YYZZ    -773.3845
      XZZZ      43.7268   YZZZ     -33.4420   ZZZZ   -1819.1242
 -----------------------------------------------------------------
 Total job time:  4260.02s(wall), 4255.07s(cpu) 
 Thu Jun 19 04:55:43 2014

        *************************************************************
        *                                                           *
        *  Thank you very much for using Q-Chem.  Have a nice day.  *
        *                                                           *
        *************************************************************


0 sent ACK to 0 
now end server 0 ... 
 
**********************************************************************
Job 3 of 3 
**********************************************************************
 
Process 0 of 1 is on cl122 - thread support 1
initial socket setup ...start
initial socket setup ...done 
now start server 0 ... 

cmd = /usr/bin/ssh clhead /usr/local/qchem/bin/get_hostid 1918022341 > /tmp/1656824.1.medium.q/qchem11105/lic.dat

cmd = /usr/bin/ssh clhead /usr/local/qchem/bin/get_hostid 1918022341 > /tmp/1656824.1.medium.q/qchem11105/lic.dat

cmd = /usr/bin/ssh clhead /usr/local/qchem/bin/get_hostid 1918022341 > /tmp/1656824.1.medium.q/qchem11105/lic.dat

cmd = /usr/bin/ssh clhead /usr/local/qchem/bin/get_hostid 1918022341 > /tmp/1656824.1.medium.q/qchem11105/lic.dat

cmd = /usr/bin/ssh clhead /usr/local/qchem/bin/get_hostid 1918022341 > /tmp/1656824.1.medium.q/qchem11105/lic.dat
                  Welcome to Q-Chem
     A Quantum Leap Into The Future Of Chemistry

 Y. Shao, L. Fusti-Molnar, Y. Jung, J. Kussmann, C. Ochsenfeld,
 S. T. Brown, A. T. B. Gilbert, L. V. Slipchenko,S. V. Levchenko,
 D. P. O'Neill, R. A. DiStasio Jr., R. C. Lochan, T. Wang,
 G. J. O. Beran, N. A. Besley, J. M. Herbert, C. Y. Lin,
 T. Van Voorhis, S. H. Chien, A. Sodt, R. P. Steele, 
 V. A. Rassolov, P. E. Maslen, P. P. Korambath, R. D. Adamson,
 B. Austin, J. Baker, E. F. C. Byrd, H. Dachsel, R. J. Doerksen,
 A. Dreuw, B. D. Dunietz, A. D. Dutoi, T. R. Furlani,
 S. R. Gwaltney, A. Heyden, S. Hirata, C.-P. Hsu, G. Kedziora,
 R. Z. Khaliullin, P. Klunzinger, A. M. Lee, M. S. Lee, W. Liang,
 I. Lotan, N. Nair, B. Peters, E. I. Proynov, P. A. Pieniazek, 
 Y. M. Rhee, J. Ritchie, E. Rosta, C. D. Sherrill, 
 A. C. Simmonett, J. E. Subotnik, H. L. Woodcock III,
 W. Zhang, A. T. Bell, A. K. Chakraborty, D. M. Chipman,
 F. J. Keil, A. Warshel, W. J. Hehre, H. F. Schaefer III,
 J. Kong, A. I. Krylov, P. M. W. Gill, M. Head-Gordon,
 Q-Chem, Version 3.1, Q-Chem, Inc., Pittsburgh, PA (2007).

 Additional authors for Version 3.1: 
 Z. Gan, Y. Zhao, N. E. Schultz, D. Truhlar, E. Epifanovsky and M. Oana.

 Additional authors for Version 3.2: 
 R. Baer, B. R. Brooks, D. Casanova, J.-D. Chai, C.-L. Cheng, 
 C. Cramer, D. Crittenden, A. Ghysels, G. Hawkins, E. G. Hohenstein, 
 C. Kelley, W. Kurlancheek, D. Liotard, E. Livshits, P. Manohar, 
 A. Marenich, D. Neuhauser, R. Olson, M. A. Rohrdanz, K. S. Thanthiriwatte, 
 A. J. W. Thom, V. Vanovschi, C. F. Williams, Q. Wu and Z.-Q. You. 


 Intel X86 Linux Version

 Q-chem begins on Thu Jun 19 04:55:47 2014  

 Parallel job on  1  processors
Processing $rem in /usr/local/qchem/config/preferences.

theFileMan(): MAXOPENFILES=974 MAX_SUB_FILE_NUM=16
Maximum size of a physical file is 2.0 GB, maximum size of a tmp-file is 32.0 GB


--------------------------------------------------------------
User input:
--------------------------------------------------------------

$molecule
1,2
V          0.03260       -1.87320        0.09818
O          0.08873       -3.27638       -0.62065
O          1.24907       -0.93737       -0.82191
O         -1.67099       -1.39830       -0.24263
O          0.49449       -2.36647        1.74418
N         -0.02368        0.23115        1.40233
C          2.14182        0.05739       -0.66285
C          3.40342       -0.10882       -1.26990
C          4.34362        0.91251       -1.14203
H          5.32663        0.82280       -1.59544
C          4.01799        2.05215       -0.42324
C          2.78699        2.22282        0.18410
H          2.57712        3.13007        0.74342
C          1.82699        1.21595        0.06427
C          0.46421        1.40388        0.66368
H         -0.26259        1.60305       -0.13463
H          0.47015        2.29263        1.31597
C         -1.39942        0.47043        1.86935
H         -1.42383        1.34444        2.54032
H         -1.70591       -0.39897        2.46341
C         -2.37052        0.66322        0.74404
C         -3.22288        1.76787        0.70603
H         -3.18065        2.53542        1.47350
C         -4.12976        1.87214       -0.33320
C         -4.22295        0.92379       -1.34059
H         -4.95046        1.05384       -2.13687
C         -3.38091       -0.18759       -1.32108
C         -2.45395       -0.30661       -0.26577
C          0.84366       -0.12811        2.52662
H          0.70567        0.54488        3.38825
H          1.88257       -0.03991        2.19393
C          0.56706       -1.57165        2.90555
H          1.37227       -1.96242        3.53899
H         -0.37234       -1.68319        3.46345
C          3.70420       -1.36413       -2.03147
H          3.61777       -2.24648       -1.38674
H          4.71528       -1.33689       -2.44694
H          2.99382       -1.50644       -2.85375
C         -3.44577       -1.24467       -2.38155
H         -2.48927       -1.33437       -2.90962
H         -4.22458       -1.01669       -3.11448
H         -3.65572       -2.22774       -1.94488
F         -4.95714        2.94563       -0.37239
F          4.94455        3.03396       -0.30495
$end

$comment
positive
$end

$xc_functional
C PBE   1.00
X wPBE  1.00
$end

$rem
SYMMETRY_DECOMPOSITION	0
LRC_DFT                 true
exchange 		general
BASIS                   gen
ECP                     lanl2dz
omega			400
mem_static              760
max_scf_cycles          200
scf_final_print         1
sym_ignore              true
$end

$basis
   V 0
   lanl2dz
   ****
   O 0 
   6-31+G*
   ****
   N 0
   6-31+G*
   ****
   C 0
   6-31+G*
   ****
   H 0
   6-31+G*
   ****
   F 0
   6-31+G*
   ****
$end
--------------------------------------------------------------
 Writing REM_CC_EA           44
 ----------------------------------------------------
       Standard Nuclear Orientation (Angstroms)
    I     Atom         X            Y            Z
 ----------------------------------------------------
    1      V       0.032600    -1.873200     0.098180
    2      O       0.088730    -3.276380    -0.620650
    3      O       1.249070    -0.937370    -0.821910
    4      O      -1.670990    -1.398300    -0.242630
    5      O       0.494490    -2.366470     1.744180
    6      N      -0.023680     0.231150     1.402330
    7      C       2.141820     0.057390    -0.662850
    8      C       3.403420    -0.108820    -1.269900
    9      C       4.343620     0.912510    -1.142030
   10      H       5.326630     0.822800    -1.595440
   11      C       4.017990     2.052150    -0.423240
   12      C       2.786990     2.222820     0.184100
   13      H       2.577120     3.130070     0.743420
   14      C       1.826990     1.215950     0.064270
   15      C       0.464210     1.403880     0.663680
   16      H      -0.262590     1.603050    -0.134630
   17      H       0.470150     2.292630     1.315970
   18      C      -1.399420     0.470430     1.869350
   19      H      -1.423830     1.344440     2.540320
   20      H      -1.705910    -0.398970     2.463410
   21      C      -2.370520     0.663220     0.744040
   22      C      -3.222880     1.767870     0.706030
   23      H      -3.180650     2.535420     1.473500
   24      C      -4.129760     1.872140    -0.333200
   25      C      -4.222950     0.923790    -1.340590
   26      H      -4.950460     1.053840    -2.136870
   27      C      -3.380910    -0.187590    -1.321080
   28      C      -2.453950    -0.306610    -0.265770
   29      C       0.843660    -0.128110     2.526620
   30      H       0.705670     0.544880     3.388250
   31      H       1.882570    -0.039910     2.193930
   32      C       0.567060    -1.571650     2.905550
   33      H       1.372270    -1.962420     3.538990
   34      H      -0.372340    -1.683190     3.463450
   35      C       3.704200    -1.364130    -2.031470
   36      H       3.617770    -2.246480    -1.386740
   37      H       4.715280    -1.336890    -2.446940
   38      H       2.993820    -1.506440    -2.853750
   39      C      -3.445770    -1.244670    -2.381550
   40      H      -2.489270    -1.334370    -2.909620
   41      H      -4.224580    -1.016690    -3.114480
   42      H      -3.655720    -2.227740    -1.944880
   43      F      -4.957140     2.945630    -0.372390
   44      F       4.944550     3.033960    -0.304950
 ----------------------------------------------------
 Nuclear Repulsion Energy =  2631.8992343483 hartrees
 There are       98 alpha and       97 beta electrons

 Q-Chem warning in module BasisType.C, line 827:

 Setting pure/cartesian flag to 2111 for general basis


 Requested basis set is non-standard
 There are 169 shells and 508 basis functions

Total QAlloc Memory Limit   2000 MB
Mega-Array Size       743 MB
MEM_STATIC part       760 MB
 A cutoff of  1.0D-08 yielded   9221 shell pairs
 There are  90576 function pairs ( 98712 Cartesian)
Evaluating contribution to one-electron hamiltonian from nuclear
 Requested basis set is non-standard
 Compound shells will be simplified
Warning: Basis Set and ECP do not match
 There are 244 shells and 508 basis functions
 A cutoff of  1.0D-08 yielded  21038 shell pairs
 There are  90402 function pairs ( 98542 Cartesian)
 Smallest overlap matrix eigenvalue = 6.02E-07

 Q-Chem warning in module mkSTV.C, line 194:

 Overlap eigenvalue is smaller than square root of threshold

 Linear dependence detected in AO basis
 Number of orthogonalized atomic orbitals = 505
 Maximum deviation from orthogonality = 1.510E-10
 Multipole matrices computed through 2nd order

  Scale SEOQF with 1.000000e-02/1.000000e-01/1.000000e-01

 Standard Electronic Orientation quadrupole field applied
 Nucleus-field energy     =     0.0000000069 hartrees
 Guess MOs from core Hamiltonian diagonalization
 Long-range K will be added via erf
 Coulomb attenuation parameter = 0.4 bohr**(-1)
 An unrestricted Kohn-Sham SCF calculation will be
 performed using Pulay DIIS extrapolation
 Exchange:  wPBE + LR-HF      Correlation:  PBE
 Using SG-1 standard quadrature grid
 SCF converges when DIIS error is below 1.0E-05
 Requested basis set is non-standard
 There are 169 shells and 508 basis functions
 A cutoff of  1.0D-08 yielded   9221 shell pairs
 There are  90576 function pairs ( 98712 Cartesian)
 ---------------------------------------
  Cycle       Energy         DIIS Error
 ---------------------------------------
    1    -610.1949247317      7.82E-02
    2     351.8785354827      1.01E-01
    3    -824.0306731576      7.60E-02
    4    -947.0003261835      7.26E-02
    5   -1132.2742480071      5.45E-02
    6   -1145.5114549677      5.21E-02
    7   -1229.2608364646      3.68E-02
    8   -1061.7048966604      5.38E-02
    9   -1320.1316406591      8.25E-03
   10   -1317.2098041578      1.35E-02
   11   -1321.8988493227      3.65E-03
   12   -1321.9782531933      4.06E-03
   13   -1322.2989895073      9.94E-04
   14   -1322.3295748819      4.06E-04
   15   -1322.3381103718      1.98E-04
   16   -1322.3397945789      9.73E-05
   17   -1322.3405698969      4.26E-05
   18   -1322.3408606210      2.25E-05
   19   -1322.3410759110      1.25E-05
   20   -1322.3412128131      8.53E-06 Convergence criterion met
 ---------------------------------------
 One-Electron    Energy = -7041.6779919725
 Total Coulomb   Energy =  3261.2693948215
 Alpha Exchange  Energy =   -19.7010683766
 Beta  Exchange  Energy =   -19.4957037252
 DFT   Exchange  Energy =  -127.9104758699
 DFT Correlation Energy =    -6.7246020457
 Nuclear Repu.   Energy =  2631.8992343552
 Nuclear Attr.   Energy = -8327.1721166337
 Kinetic         Energy =  1285.4941246613
 <S^2> = 0.7784
 SCF time:  CPU 5258.43 s  wall 5263.40 s
 Final Alpha MO Eigenvalues
            1           2           3           4           5           6
    1 -24.6901871 -24.5951455 -19.1977412 -19.1421464 -19.1391768 -19.1389254
            7           8           9          10          11          12
    1 -14.4013915 -10.4242213 -10.4087493 -10.3432996 -10.3401410 -10.3247853
           13          14          15          16          17          18
    1 -10.3142885 -10.3103869 -10.3102521 -10.3007399 -10.2959562 -10.2914069
           19          20          21          22          23          24
    1 -10.2877138 -10.2600834 -10.2559386 -10.2469867 -10.2372662 -10.2293350
           25          26          27          28          29          30
    1 -10.2017289  -2.9828531  -2.0533825  -2.0489848  -2.0479230  -1.5304743
           31          32          33          34          35          36
    1  -1.4377583  -1.3597631  -1.2926683  -1.2785958  -1.2441945  -1.2163480
           37          38          39          40          41          42
    1  -1.1668737  -1.1310331  -1.1240197  -1.0949278  -1.0613990  -1.0386083
           43          44          45          46          47          48
    1  -1.0171073  -1.0153655  -0.9853546  -0.9453974  -0.9401912  -0.9227253
           49          50          51          52          53          54
    1  -0.9198022  -0.8796234  -0.8561902  -0.8433604  -0.8391448  -0.8335120
           55          56          57          58          59          60
    1  -0.8258747  -0.7985638  -0.7837428  -0.7787985  -0.7707809  -0.7692437
           61          62          63          64          65          66
    1  -0.7538523  -0.7461662  -0.7414429  -0.7379953  -0.7307598  -0.7227400
           67          68          69          70          71          72
    1  -0.7102530  -0.6995677  -0.6952415  -0.6917254  -0.6872348  -0.6788273
           73          74          75          76          77          78
    1  -0.6726121  -0.6714722  -0.6688515  -0.6599822  -0.6525872  -0.6522909
           79          80          81          82          83          84
    1  -0.6495610  -0.6405880  -0.6387208  -0.6312498  -0.6292470  -0.6284796
           85          86          87          88          89          90
    1  -0.6194479  -0.6144719  -0.5938960  -0.5854078  -0.5730115  -0.5661771
           91          92          93          94          95          96
    1  -0.5508026  -0.5446124  -0.5432457  -0.5397832  -0.5311718  -0.5062460
           97          98          99         100         101         102
    1  -0.4657049  -0.4320093  -0.1574187  -0.1437845  -0.1241295  -0.1185657
          103
    1  -0.1017330
 Final Beta MO Eigenvalues
            1           2           3           4           5           6
    1 -24.6882862 -24.5951217 -19.1934616 -19.1428757 -19.1388502 -19.1386924
            7           8           9          10          11          12
    1 -14.4013620 -10.4192326 -10.4046985 -10.3408275 -10.3393219 -10.3246050
           13          14          15          16          17          18
    1 -10.3143283 -10.3118244 -10.3103127 -10.3007375 -10.2960039 -10.2913703
           19          20          21          22          23          24
    1 -10.2877171 -10.2601765 -10.2559058 -10.2469023 -10.2372574 -10.2293710
           25          26          27          28          29          30
    1 -10.2017319  -2.9816804  -2.0517231  -2.0479589  -2.0465546  -1.5261958
           31          32          33          34          35          36
    1  -1.4377020  -1.3504564  -1.2918380  -1.2782615  -1.2434980  -1.2086355
           37          38          39          40          41          42
    1  -1.1687393  -1.1292965  -1.1230475  -1.0811228  -1.0611667  -1.0366235
           43          44          45          46          47          48
    1  -1.0165100  -1.0114009  -0.9842691  -0.9441008  -0.9400909  -0.9192893
           49          50          51          52          53          54
    1  -0.9153504  -0.8788927  -0.8551819  -0.8424038  -0.8375868  -0.8318224
           55          56          57          58          59          60
    1  -0.8218056  -0.7885801  -0.7781329  -0.7717492  -0.7693206  -0.7614598
           61          62          63          64          65          66
    1  -0.7509439  -0.7412616  -0.7377443  -0.7310162  -0.7219774  -0.7217325
           67          68          69          70          71          72
    1  -0.7087737  -0.6980983  -0.6940534  -0.6911187  -0.6797112  -0.6770754
           73          74          75          76          77          78
    1  -0.6708565  -0.6672434  -0.6657802  -0.6589275  -0.6518886  -0.6510147
           79          80          81          82          83          84
    1  -0.6420413  -0.6398011  -0.6323224  -0.6304221  -0.6280640  -0.6194904
           85          86          87          88          89          90
    1  -0.6159829  -0.6041800  -0.5929125  -0.5845127  -0.5728350  -0.5650959
           91          92          93          94          95          96
    1  -0.5492832  -0.5438551  -0.5411653  -0.5394902  -0.5060848  -0.4656001
           97          98          99         100         101         102
    1  -0.4310077  -0.2764492  -0.1471764  -0.1422183  -0.1037282  -0.1002517
 Analysis of SCF Wavefunction
 
 --------------------------------------------------------------
                    Orbital Energies (a.u.)
 --------------------------------------------------------------
 
 Alpha MOs
 -- Occupied --
-24.690 -24.595 -19.198 -19.142 -19.139 -19.139 -14.401 -10.424
-10.409 -10.343 -10.340 -10.325 -10.314 -10.310 -10.310 -10.301
-10.296 -10.291 -10.288 -10.260 -10.256 -10.247 -10.237 -10.229
-10.202  -2.983  -2.053  -2.049  -2.048  -1.530  -1.438  -1.360
 -1.293  -1.279  -1.244  -1.216  -1.167  -1.131  -1.124  -1.095
 -1.061  -1.039  -1.017  -1.015  -0.985  -0.945  -0.940  -0.923
 -0.920  -0.880  -0.856  -0.843  -0.839  -0.834  -0.826  -0.799
 -0.784  -0.779  -0.771  -0.769  -0.754  -0.746  -0.741  -0.738
 -0.731  -0.723  -0.710  -0.700  -0.695  -0.692  -0.687  -0.679
 -0.673  -0.671  -0.669  -0.660  -0.653  -0.652  -0.650  -0.641
 -0.639  -0.631  -0.629  -0.628  -0.619  -0.614  -0.594  -0.585
 -0.573  -0.566  -0.551  -0.545  -0.543  -0.540  -0.531  -0.506
 -0.466  -0.432
 -- Virtual --
 -0.157  -0.144  -0.124  -0.119  -0.102  -0.090  -0.060  -0.050
 -0.047  -0.046  -0.043  -0.031  -0.029  -0.023  -0.020  -0.020
 -0.015  -0.010  -0.006   0.004   0.005   0.012   0.014   0.016
  0.018   0.023   0.028   0.034   0.035   0.041   0.042   0.045
  0.050   0.055   0.057   0.062   0.063   0.064   0.068   0.071
  0.073   0.080   0.081   0.082   0.086   0.091   0.093   0.100
  0.101   0.105   0.109   0.110   0.115   0.118   0.121   0.126
  0.127   0.129   0.132   0.135   0.137   0.139   0.144   0.148
  0.150   0.153   0.155   0.157   0.160   0.168   0.169   0.170
  0.175   0.177   0.180   0.183   0.184   0.186   0.192   0.197
  0.202   0.205   0.205   0.206   0.208   0.214   0.218   0.218
  0.220   0.225   0.226   0.231   0.233   0.236   0.241   0.243
  0.245   0.248   0.255   0.259   0.263   0.271   0.272   0.275
  0.276   0.281   0.285   0.289   0.293   0.298   0.301   0.305
  0.307   0.311   0.316   0.321   0.321   0.324   0.330   0.332
  0.338   0.342   0.346   0.350   0.351   0.355   0.358   0.365
  0.369   0.372   0.374   0.377   0.383   0.386   0.391   0.394
  0.397   0.401   0.405   0.407   0.414   0.420   0.426   0.427
  0.433   0.438   0.446   0.455   0.463   0.482   0.494   0.500
  0.502   0.536   0.548   0.568   0.578   0.589   0.601   0.613
  0.618   0.627   0.638   0.645   0.659   0.670   0.673   0.681
  0.698   0.702   0.706   0.716   0.717   0.722   0.726   0.730
  0.741   0.749   0.758   0.761   0.767   0.768   0.782   0.790
  0.794   0.803   0.808   0.815   0.819   0.832   0.837   0.850
  0.853   0.861   0.866   0.867   0.882   0.894   0.904   0.907
  0.920   0.929   0.944   0.962   0.966   0.972   0.977   0.986
  0.994   1.002   1.005   1.014   1.030   1.042   1.045   1.053
  1.063   1.073   1.075   1.094   1.105   1.121   1.123   1.127
  1.132   1.146   1.151   1.162   1.170   1.174   1.174   1.186
  1.198   1.200   1.212   1.217   1.230   1.240   1.245   1.248
  1.252   1.258   1.262   1.274   1.285   1.292   1.294   1.299
  1.308   1.318   1.322   1.334   1.337   1.349   1.353   1.359
  1.367   1.378   1.379   1.386   1.400   1.411   1.415   1.425
  1.436   1.447   1.465   1.479   1.509   1.517   1.536   1.547
  1.569   1.577   1.599   1.606   1.624   1.636   1.659   1.673
  1.685   1.691   1.697   1.699   1.710   1.725   1.736   1.740
  1.742   1.751   1.761   1.770   1.771   1.778   1.790   1.796
  1.806   1.814   1.821   1.828   1.831   1.838   1.847   1.853
  1.858   1.862   1.868   1.874   1.885   1.896   1.900   1.903
  1.915   1.919   1.928   1.933   1.940   1.947   1.958   1.963
  1.970   1.973   1.984   1.988   2.003   2.018   2.021   2.031
  2.038   2.052   2.058   2.065   2.079   2.091   2.106   2.109
  2.115   2.130   2.150   2.155   2.163   2.180   2.193   2.195
  2.211   2.224   2.233   2.237   2.249   2.252   2.259   2.273
  2.293   2.305   2.316   2.320   2.325   2.333   2.342   2.352
  2.361   2.375   2.390   2.397   2.413   2.414   2.418   2.426
  2.435   2.449   2.481   2.493   2.510   2.513   2.531   2.552
  2.570   2.585   2.600   2.636   2.659   2.667   2.679   2.700
  2.746   2.759   2.776   2.791   2.818   2.827   2.855   2.880
  2.908   2.932   2.942   2.978   3.024   3.050   3.070   3.145
  3.167   3.185   3.250   3.270   3.402   3.491  59.427
 
 Beta MOs
 -- Occupied --
-24.688 -24.595 -19.193 -19.143 -19.139 -19.139 -14.401 -10.419
-10.405 -10.341 -10.339 -10.325 -10.314 -10.312 -10.310 -10.301
-10.296 -10.291 -10.288 -10.260 -10.256 -10.247 -10.237 -10.229
-10.202  -2.982  -2.052  -2.048  -2.047  -1.526  -1.438  -1.350
 -1.292  -1.278  -1.243  -1.209  -1.169  -1.129  -1.123  -1.081
 -1.061  -1.037  -1.017  -1.011  -0.984  -0.944  -0.940  -0.919
 -0.915  -0.879  -0.855  -0.842  -0.838  -0.832  -0.822  -0.789
 -0.778  -0.772  -0.769  -0.761  -0.751  -0.741  -0.738  -0.731
 -0.722  -0.722  -0.709  -0.698  -0.694  -0.691  -0.680  -0.677
 -0.671  -0.667  -0.666  -0.659  -0.652  -0.651  -0.642  -0.640
 -0.632  -0.630  -0.628  -0.619  -0.616  -0.604  -0.593  -0.585
 -0.573  -0.565  -0.549  -0.544  -0.541  -0.539  -0.506  -0.466
 -0.431
 -- Virtual --
 -0.276  -0.147  -0.142  -0.104  -0.100  -0.099  -0.065  -0.060
 -0.049  -0.046  -0.045  -0.043  -0.031  -0.028  -0.023  -0.020
 -0.019  -0.014  -0.009  -0.005   0.005   0.006   0.012   0.014
  0.017   0.018   0.024   0.029   0.034   0.036   0.041   0.043
  0.046   0.050   0.055   0.058   0.062   0.064   0.067   0.070
  0.072   0.077   0.081   0.082   0.084   0.088   0.093   0.095
  0.100   0.102   0.105   0.109   0.111   0.116   0.119   0.121
  0.126   0.128   0.130   0.132   0.135   0.137   0.140   0.145
  0.148   0.150   0.153   0.155   0.158   0.160   0.169   0.170
  0.171   0.176   0.178   0.180   0.184   0.185   0.187   0.193
  0.197   0.203   0.205   0.206   0.207   0.210   0.214   0.219
  0.219   0.221   0.225   0.227   0.232   0.233   0.238   0.242
  0.243   0.247   0.249   0.255   0.260   0.263   0.272   0.272
  0.277   0.277   0.282   0.286   0.290   0.294   0.299   0.301
  0.305   0.308   0.312   0.318   0.322   0.322   0.325   0.331
  0.333   0.340   0.343   0.347   0.350   0.352   0.355   0.359
  0.365   0.370   0.373   0.375   0.377   0.384   0.387   0.393
  0.395   0.398   0.402   0.405   0.409   0.415   0.420   0.427
  0.428   0.434   0.439   0.447   0.456   0.463   0.482   0.495
  0.501   0.502   0.538   0.550   0.571   0.579   0.590   0.604
  0.615   0.620   0.629   0.639   0.646   0.660   0.673   0.675
  0.683   0.699   0.704   0.707   0.717   0.718   0.726   0.727
  0.734   0.742   0.752   0.759   0.764   0.767   0.770   0.783
  0.791   0.798   0.804   0.809   0.816   0.820   0.833   0.838
  0.852   0.854   0.862   0.867   0.868   0.882   0.896   0.904
  0.908   0.921   0.930   0.945   0.963   0.966   0.973   0.978
  0.987   0.994   1.005   1.006   1.015   1.032   1.044   1.047
  1.053   1.064   1.075   1.077   1.098   1.105   1.122   1.124
  1.129   1.133   1.146   1.152   1.168   1.171   1.176   1.176
  1.187   1.199   1.204   1.213   1.220   1.231   1.242   1.246
  1.252   1.254   1.261   1.271   1.279   1.286   1.293   1.297
  1.300   1.310   1.321   1.324   1.335   1.341   1.352   1.354
  1.360   1.371   1.380   1.381   1.390   1.401   1.412   1.417
  1.428   1.439   1.448   1.467   1.480   1.511   1.519   1.537
  1.548   1.571   1.579   1.600   1.611   1.625   1.638   1.662
  1.676   1.686   1.693   1.699   1.701   1.713   1.728   1.738
  1.742   1.743   1.753   1.764   1.771   1.773   1.780   1.792
  1.797   1.807   1.817   1.822   1.829   1.832   1.839   1.848
  1.854   1.860   1.863   1.870   1.877   1.887   1.898   1.901
  1.904   1.917   1.921   1.929   1.935   1.940   1.950   1.958
  1.964   1.971   1.975   1.986   1.989   2.005   2.018   2.021
  2.033   2.039   2.053   2.060   2.069   2.083   2.093   2.107
  2.112   2.117   2.134   2.152   2.158   2.165   2.183   2.196
  2.199   2.213   2.229   2.237   2.239   2.254   2.257   2.261
  2.274   2.294   2.305   2.319   2.321   2.326   2.334   2.343
  2.353   2.364   2.375   2.391   2.399   2.413   2.417   2.423
  2.433   2.435   2.449   2.482   2.496   2.512   2.521   2.534
  2.554   2.578   2.588   2.601   2.637   2.660   2.669   2.682
  2.707   2.746   2.760   2.777   2.791   2.819   2.829   2.856
  2.880   2.908   2.933   2.947   2.980   3.024   3.053   3.075
  3.146   3.170   3.189   3.250   3.270   3.405   3.491  59.428
 --------------------------------------------------------------
 
          Ground-State Mulliken Net Atomic Charges

     Atom                 Charge (a.u.)    Spin (a.u.)
  --------------------------------------------------------
      1 V                     1.266505       0.032943
      2 O                    -0.087826      -0.026964
      3 O                    -0.427260       0.165841
      4 O                    -0.448825       0.019703
      5 O                    -0.391233       0.005610
      6 N                    -0.496585       0.001261
      7 C                    -0.487460       0.320205
      8 C                     0.582032       0.189685
      9 C                    -0.180839      -0.158202
     10 H                     0.292569       0.004582
     11 C                    -0.300988       0.376360
     12 C                     0.110068      -0.007579
     13 H                     0.292149      -0.002293
     14 C                     0.505784       0.027772
     15 C                    -0.529155      -0.007948
     16 H                     0.324503       0.004000
     17 H                     0.249220       0.000210
     18 C                    -0.608377      -0.002123
     19 H                     0.251160      -0.000024
     20 H                     0.277676      -0.000001
     21 C                     1.063134      -0.002262
     22 C                    -0.000065      -0.006718
     23 H                     0.247499      -0.000033
     24 C                    -0.425512       0.006789
     25 C                    -0.447543      -0.005707
     26 H                     0.259001       0.000152
     27 C                     0.407863       0.012032
     28 C                    -0.289919       0.009358
     29 C                    -0.218334       0.007337
     30 H                     0.257594      -0.000052
     31 H                     0.256931      -0.000346
     32 C                    -0.324508      -0.003072
     33 H                     0.254912      -0.000011
     34 H                     0.246215      -0.000304
     35 C                    -0.780198      -0.023251
     36 H                     0.291035       0.011772
     37 H                     0.261473      -0.000398
     38 H                     0.293087       0.011357
     39 C                    -0.754478      -0.000972
     40 H                     0.248655       0.000316
     41 H                     0.242412       0.000006
     42 H                     0.268761       0.000305
     43 F                    -0.306736       0.000544
     44 F                    -0.244399       0.040122
  --------------------------------------------------------
  Sum of atomic charges =     1.000000
  Sum of spin   charges =     1.000000

 -----------------------------------------------------------------
                    Cartesian Multipole Moments
 -----------------------------------------------------------------
    Charge (ESU x 10^10)
                 4.8032
    Dipole Moment (Debye)
         X       8.8289      Y       3.7456      Z       1.2492
       Tot       9.6716
    Quadrupole Moments (Debye-Ang)
        XX    -110.6169     XY       8.3283     YY    -155.9466
        XZ      -5.8031     YZ       4.2199     ZZ    -128.3462
    Octapole Moments (Debye-Ang^2)
       XXX     165.8597    XXY     -32.0097    XYY      39.2734
       YYY      27.0904    XXZ     -83.7538    XYZ      -0.7302
       YYZ      15.3150    XZZ       8.0706    YZZ     -16.7094
       ZZZ      29.1128
    Hexadecapole Moments (Debye-Ang^3)
      XXXX   -6621.5554   XXXY     149.8786   XXYY   -1710.2525
      XYYY     104.3519   YYYY   -2783.1542   XXXZ    -114.3477
      XXYZ      41.2519   XYYZ     -22.6841   YYYZ      30.3128
      XXZZ   -1291.8056   XYZZ     -25.6938   YYZZ    -720.7511
      XZZZ      15.4434   YZZZ     -33.3191   ZZZZ   -1678.8602
 -----------------------------------------------------------------
 Total job time:  5266.28s(wall), 5261.27s(cpu) 
 Thu Jun 19 06:23:34 2014

        *************************************************************
        *                                                           *
        *  Thank you very much for using Q-Chem.  Have a nice day.  *
        *                                                           *
        *************************************************************


0 sent ACK to 0 
now end server 0 ... 
