Process 0 of 1 is on cl015.stfx.acenet.ca - thread support 1
initial socket setup ...start
initial socket setup ...done 
now start server 0 ... 

cmd = /usr/bin/ssh clhead /usr/local/qchem/bin/get_hostid 133521547 > /scratch/tmp/6063535.1.short.q/qchem14361/lic.dat
                  Welcome to Q-Chem
     A Quantum Leap Into The Future Of Chemistry

 Y. Shao, L. Fusti-Molnar, Y. Jung, J. Kussmann, C. Ochsenfeld,
 S. T. Brown, A. T. B. Gilbert, L. V. Slipchenko,S. V. Levchenko,
 D. P. O'Neill, R. A. DiStasio Jr., R. C. Lochan, T. Wang,
 G. J. O. Beran, N. A. Besley, J. M. Herbert, C. Y. Lin,
 T. Van Voorhis, S. H. Chien, A. Sodt, R. P. Steele, 
 V. A. Rassolov, P. E. Maslen, P. P. Korambath, R. D. Adamson,
 B. Austin, J. Baker, E. F. C. Byrd, H. Dachsel, R. J. Doerksen,
 A. Dreuw, B. D. Dunietz, A. D. Dutoi, T. R. Furlani,
 S. R. Gwaltney, A. Heyden, S. Hirata, C.-P. Hsu, G. Kedziora,
 R. Z. Khaliullin, P. Klunzinger, A. M. Lee, M. S. Lee, W. Liang,
 I. Lotan, N. Nair, B. Peters, E. I. Proynov, P. A. Pieniazek, 
 Y. M. Rhee, J. Ritchie, E. Rosta, C. D. Sherrill, 
 A. C. Simmonett, J. E. Subotnik, H. L. Woodcock III,
 W. Zhang, A. T. Bell, A. K. Chakraborty, D. M. Chipman,
 F. J. Keil, A. Warshel, W. J. Hehre, H. F. Schaefer III,
 J. Kong, A. I. Krylov, P. M. W. Gill, M. Head-Gordon,
 Q-Chem, Version 3.1, Q-Chem, Inc., Pittsburgh, PA (2007).

 Additional authors for Version 3.1: 
 Z. Gan, Y. Zhao, N. E. Schultz, D. Truhlar, E. Epifanovsky and M. Oana.

 Additional authors for Version 3.2: 
 R. Baer, B. R. Brooks, D. Casanova, J.-D. Chai, C.-L. Cheng, 
 C. Cramer, D. Crittenden, A. Ghysels, G. Hawkins, E. G. Hohenstein, 
 C. Kelley, W. Kurlancheek, D. Liotard, E. Livshits, P. Manohar, 
 A. Marenich, D. Neuhauser, R. Olson, M. A. Rohrdanz, K. S. Thanthiriwatte, 
 A. J. W. Thom, V. Vanovschi, C. F. Williams, Q. Wu and Z.-Q. You. 


 Intel X86 Linux Version

 Q-chem begins on Sun Jul  7 08:37:53 2013  

 Parallel job on  1  processors
Processing $rem in /usr/local/qchem/config/preferences.

theFileMan(): MAXOPENFILES=974 MAX_SUB_FILE_NUM=16
Maximum size of a physical file is 2.0 GB, maximum size of a tmp-file is 32.0 GB


--------------------------------------------------------------
User input:
--------------------------------------------------------------

$molecule
-1,2
N          0.00000        0.00000        0.02589
N          0.00000        0.00000        1.13189
O          0.00000        0.00000        2.30331
$end

$comment
negative
$end

$xc_functional
C PBE   1.00
X wPBE  1.00
$end

$rem
SYMMETRY_DECOMPOSITION	0
exchange 		general
LRC_DFT                 true
BASIS                   g3large
omega			700
mem_static              760
max_scf_cycles          200
scf_final_print         1
sym_ignore              true
$end

--------------------------------------------------------------
 Writing REM_CC_EA            3
 ----------------------------------------------------
       Standard Nuclear Orientation (Angstroms)
    I     Atom         X            Y            Z
 ----------------------------------------------------
    1      N       0.000000     0.000000     0.025890
    2      N       0.000000     0.000000     1.131890
    3      O       0.000000     0.000000     2.303310
 ----------------------------------------------------
 Nuclear Repulsion Energy =    61.7540562782 hartrees
 There are       12 alpha and       11 beta electrons
 Requested basis set is G3large
 There are 30 shells and 126 basis functions

Total QAlloc Memory Limit   2000 MB
Mega-Array Size       743 MB
MEM_STATIC part       760 MB

                       Distance Matrix (Angstroms)
             N (  1)   N (  2)
   N (  2)  1.106000
   O (  3)  2.277420  1.171420
 
 A cutoff of  1.0D-08 yielded    434 shell pairs
 There are   7827 function pairs ( 10283 Cartesian)
Evaluating contribution to one-electron hamiltonian from nuclear
 Smallest overlap matrix eigenvalue = 4.25E-05

 Q-Chem warning in module mkSTV.C, line 194:

 Overlap eigenvalue is smaller than square root of threshold

 Multipole matrices computed through 2nd order

  Scale SEOQF with 1.000000e-01/1.000000e-01/1.000000e-01

 Standard Electronic Orientation quadrupole field applied
 Nucleus-field energy     =    -0.0000000055 hartrees
 Guess from superposition of atomic densities
 Warning:  Energy on first SCF cycle will be non-variational
 Long-range K will be added via erf
 Coulomb attenuation parameter = 0.7 bohr**(-1)
 An unrestricted Kohn-Sham SCF calculation will be
 performed using Pulay DIIS extrapolation
 Exchange:  wPBE + LR-HF      Correlation:  PBE
 Using SG-1 standard quadrature grid
 SCF converges when DIIS error is below 1.0E-05
 Requested basis set is G3large
 There are 30 shells and 126 basis functions
 A cutoff of  1.0D-08 yielded    434 shell pairs
 There are   7827 function pairs ( 10283 Cartesian)
 Warning!  Inaccurate integrated density:
   Number of electrons =    23
   Numerical integral  =    22.000008617596
   Relative error      =    -4.3477886191 %
 ---------------------------------------
  Cycle       Energy         DIIS Error
 ---------------------------------------
    1    -185.3491970162      4.91E-02
    2    -184.4231728278      6.62E-03
    3    -184.4665967628      5.28E-03
    4    -184.5020194612      6.42E-04
    5    -184.5032101245      3.42E-04
    6    -184.5036140097      1.53E-04
    7    -184.5037748469      7.06E-05
    8    -184.5038465277      3.22E-05
    9    -184.5038986657      1.95E-05
   10    -184.5039155690      6.72E-06 Convergence criterion met
 ---------------------------------------
 One-Electron    Energy =  -379.9048169689
 Total Coulomb   Energy =   156.2164601024
 Alpha Exchange  Energy =    -3.7503434187
 Beta  Exchange  Energy =    -3.4539419433
 DFT   Exchange  Energy =   -14.5907340664
 DFT Correlation Energy =    -0.7745955468
 Nuclear Repu.   Energy =    61.7540562727
 Nuclear Attr.   Energy =  -564.6011683877
 Kinetic         Energy =   184.6963514188
 <S^2> = 0.7552
 SCF time:  CPU 34.80 s  wall 35.98 s
 Final Alpha MO Eigenvalues
            1           2           3           4           5           6
    1 -18.8940813 -14.2226635 -14.1189717  -1.2061367  -1.0179620  -0.5137655
            7           8           9          10          11          12
    1  -0.4959001  -0.4635160  -0.3709701  -0.2492519  -0.2041498   0.0499145
           13          14          15          16          17
    1   0.2582800   0.3071404   0.3324354   0.3621312   0.3811292
 Final Beta MO Eigenvalues
            1           2           3           4           5           6
    1 -18.8917771 -14.2091668 -14.1139071  -1.1884449  -1.0085481  -0.4950225
            7           8           9          10          11          12
    1  -0.4537831  -0.4264613  -0.3473172  -0.2019799  -0.1839166   0.2603953
           13          14          15          16
    1   0.3102827   0.3374235   0.3460553   0.3826142
 Analysis of SCF Wavefunction
 
 --------------------------------------------------------------
                    Orbital Energies (a.u.)
 --------------------------------------------------------------
 
 Alpha MOs
 -- Occupied --
-18.894 -14.223 -14.119  -1.206  -1.018  -0.514  -0.496  -0.464
 -0.371  -0.249  -0.204   0.050
 -- Virtual --
  0.258   0.307   0.332   0.362   0.381   0.396   0.413   0.440
  0.487   0.511   0.525   0.528   0.599   0.723   0.950   1.088
  1.089   1.173   1.184   1.203   1.203   1.244   1.286   1.404
  1.462   1.466   1.542   1.542   1.556   1.577   1.578   1.607
  2.048   2.049   2.070   2.152   2.156   2.413   2.810   2.811
  2.993   3.201   3.732   3.732   3.735   3.735   3.854   4.032
  4.038   4.107   4.110   4.226   4.226   4.416   4.418   4.707
  4.816   4.817   4.871   4.872   5.079   5.096   5.109   5.111
  5.263   5.265   5.304   5.306   5.505   5.505   5.584   5.586
  5.898   6.129   6.129   6.264   6.505   6.505   7.224   7.224
  7.521   7.676   7.677   8.023   8.026   8.248   9.273  35.903
 36.643  37.736  37.737  38.115  38.117  38.825  39.888  40.763
 40.868  40.878  40.966  40.967  40.983  41.096  41.292  41.292
 42.135  44.086  44.146  44.285  44.286  44.564  46.169  46.169
 47.070  50.893
 
 Beta MOs
 -- Occupied --
-18.892 -14.209 -14.114  -1.188  -1.009  -0.495  -0.454  -0.426
 -0.347  -0.202  -0.184
 -- Virtual --
  0.260   0.310   0.337   0.346   0.383   0.389   0.415   0.447
  0.466   0.491   0.529   0.533   0.542   0.604   0.744   0.954
  1.092   1.111   1.189   1.208   1.215   1.215   1.249   1.293
  1.410   1.468   1.478   1.549   1.558   1.577   1.597   1.597
  1.618   2.063   2.063   2.075   2.158   2.175   2.421   2.813
  2.829   3.001   3.212   3.742   3.743   3.755   3.756   3.863
  4.053   4.087   4.111   4.136   4.249   4.249   4.420   4.439
  4.720   4.832   4.833   4.877   4.898   5.089   5.104   5.152
  5.154   5.298   5.299   5.307   5.325   5.512   5.512   5.586
  5.601   5.903   6.138   6.138   6.269   6.512   6.536   7.235
  7.235   7.529   7.676   7.688   8.027   8.045   8.256   9.277
 35.914  36.655  37.743  37.759  38.123  38.139  38.828  39.896
 40.790  40.891  40.894  40.969  40.987  40.995  41.104  41.293
 41.308  42.139  44.093  44.153  44.285  44.291  44.566  46.171
 46.177  47.071  50.895
 --------------------------------------------------------------
 
          Ground-State Mulliken Net Atomic Charges

     Atom                 Charge (a.u.)    Spin (a.u.)
  --------------------------------------------------------
      1 N                    -0.945199       0.700690
      2 N                     0.582232       0.166405
      3 O                    -0.637034       0.132905
  --------------------------------------------------------
  Sum of atomic charges =    -1.000000
  Sum of spin   charges =     1.000000

 -----------------------------------------------------------------
                    Cartesian Multipole Moments
 -----------------------------------------------------------------
    Charge (ESU x 10^10)
                -4.8032
    Dipole Moment (Debye)
         X       0.0205      Y       0.0262      Z      -4.0391
       Tot       4.0392
    Quadrupole Moments (Debye-Ang)
        XX     -18.8851     XY      -1.2172     YY     -19.5007
        XZ       0.0090     YZ       0.0118     ZZ     -33.4553
    Octapole Moments (Debye-Ang^2)
       XXX       0.0934    XXY       0.0400    XYY       0.0311
       YYY       0.1199    XXZ     -19.0635    XYZ      -0.0344
       YYZ     -19.0809    XZZ       0.0675    YZZ       0.0873
       ZZZ     -97.1518
    Hexadecapole Moments (Debye-Ang^3)
      XXXX     -22.3793   XXXY      -2.5956   XXYY      -7.8974
      XYYY      -2.5956   YYYY     -25.0050   XXXZ       0.0484
      XXYZ       0.0210   XYYZ       0.0162   YYYZ       0.0629
      XXZZ     -48.1939   XYZZ      -2.1714   YYZZ     -49.2921
      XZZZ       0.1530   YZZZ       0.1987   ZZZZ    -351.8833
 -----------------------------------------------------------------
 Total job time:  36.14s(wall), 34.95s(cpu) 
 Sun Jul  7 08:38:30 2013

        *************************************************************
        *                                                           *
        *  Thank you very much for using Q-Chem.  Have a nice day.  *
        *                                                           *
        *************************************************************


0 sent ACK to 0 
now end server 0 ... 
 
**********************************************************************
Job 2 of 3 
**********************************************************************
 
Process 0 of 1 is on cl015.stfx.acenet.ca - thread support 1
initial socket setup ...start
initial socket setup ...done 
now start server 0 ... 

cmd = /usr/bin/ssh clhead /usr/local/qchem/bin/get_hostid 857807480 > /scratch/tmp/6063535.1.short.q/qchem14361/lic.dat
                  Welcome to Q-Chem
     A Quantum Leap Into The Future Of Chemistry

 Y. Shao, L. Fusti-Molnar, Y. Jung, J. Kussmann, C. Ochsenfeld,
 S. T. Brown, A. T. B. Gilbert, L. V. Slipchenko,S. V. Levchenko,
 D. P. O'Neill, R. A. DiStasio Jr., R. C. Lochan, T. Wang,
 G. J. O. Beran, N. A. Besley, J. M. Herbert, C. Y. Lin,
 T. Van Voorhis, S. H. Chien, A. Sodt, R. P. Steele, 
 V. A. Rassolov, P. E. Maslen, P. P. Korambath, R. D. Adamson,
 B. Austin, J. Baker, E. F. C. Byrd, H. Dachsel, R. J. Doerksen,
 A. Dreuw, B. D. Dunietz, A. D. Dutoi, T. R. Furlani,
 S. R. Gwaltney, A. Heyden, S. Hirata, C.-P. Hsu, G. Kedziora,
 R. Z. Khaliullin, P. Klunzinger, A. M. Lee, M. S. Lee, W. Liang,
 I. Lotan, N. Nair, B. Peters, E. I. Proynov, P. A. Pieniazek, 
 Y. M. Rhee, J. Ritchie, E. Rosta, C. D. Sherrill, 
 A. C. Simmonett, J. E. Subotnik, H. L. Woodcock III,
 W. Zhang, A. T. Bell, A. K. Chakraborty, D. M. Chipman,
 F. J. Keil, A. Warshel, W. J. Hehre, H. F. Schaefer III,
 J. Kong, A. I. Krylov, P. M. W. Gill, M. Head-Gordon,
 Q-Chem, Version 3.1, Q-Chem, Inc., Pittsburgh, PA (2007).

 Additional authors for Version 3.1: 
 Z. Gan, Y. Zhao, N. E. Schultz, D. Truhlar, E. Epifanovsky and M. Oana.

 Additional authors for Version 3.2: 
 R. Baer, B. R. Brooks, D. Casanova, J.-D. Chai, C.-L. Cheng, 
 C. Cramer, D. Crittenden, A. Ghysels, G. Hawkins, E. G. Hohenstein, 
 C. Kelley, W. Kurlancheek, D. Liotard, E. Livshits, P. Manohar, 
 A. Marenich, D. Neuhauser, R. Olson, M. A. Rohrdanz, K. S. Thanthiriwatte, 
 A. J. W. Thom, V. Vanovschi, C. F. Williams, Q. Wu and Z.-Q. You. 


 Intel X86 Linux Version

 Q-chem begins on Sun Jul  7 08:38:33 2013  

 Parallel job on  1  processors
Processing $rem in /usr/local/qchem/config/preferences.

theFileMan(): MAXOPENFILES=974 MAX_SUB_FILE_NUM=16
Maximum size of a physical file is 2.0 GB, maximum size of a tmp-file is 32.0 GB


--------------------------------------------------------------
User input:
--------------------------------------------------------------

$molecule
0,1
N          0.00000        0.00000        0.02589
N          0.00000        0.00000        1.13189
O          0.00000        0.00000        2.30331
$end

$comment
neutral
$end

$xc_functional
C PBE   1.00
X wPBE  1.00
$end


$rem
SYMMETRY_DECOMPOSITION	0
LRC_DFT                 true
exchange 		general
BASIS                   g3large
omega			700
mem_static              760
max_scf_cycles          200
scf_final_print         1
sym_ignore              true
$end

--------------------------------------------------------------
 Writing REM_CC_EA            3
 ----------------------------------------------------
       Standard Nuclear Orientation (Angstroms)
    I     Atom         X            Y            Z
 ----------------------------------------------------
    1      N       0.000000     0.000000     0.025890
    2      N       0.000000     0.000000     1.131890
    3      O       0.000000     0.000000     2.303310
 ----------------------------------------------------
 Nuclear Repulsion Energy =    61.7540562782 hartrees
 There are       11 alpha and       11 beta electrons
 Requested basis set is G3large
 There are 30 shells and 126 basis functions

Total QAlloc Memory Limit   2000 MB
Mega-Array Size       743 MB
MEM_STATIC part       760 MB

                       Distance Matrix (Angstroms)
             N (  1)   N (  2)
   N (  2)  1.106000
   O (  3)  2.277420  1.171420
 
 A cutoff of  1.0D-08 yielded    434 shell pairs
 There are   7827 function pairs ( 10283 Cartesian)
Evaluating contribution to one-electron hamiltonian from nuclear
 Smallest overlap matrix eigenvalue = 4.25E-05

 Q-Chem warning in module mkSTV.C, line 194:

 Overlap eigenvalue is smaller than square root of threshold

 Multipole matrices computed through 2nd order

  Scale SEOQF with 1.000000e-01/1.000000e-01/1.000000e-01

 Standard Electronic Orientation quadrupole field applied
 Nucleus-field energy     =    -0.0000000055 hartrees
 Guess from superposition of atomic densities
 Warning:  Energy on first SCF cycle will be non-variational
 Long-range K will be added via erf
 Coulomb attenuation parameter = 0.7 bohr**(-1)
 A restricted Kohn-Sham SCF calculation will be
 performed using Pulay DIIS extrapolation
 Exchange:  wPBE + LR-HF      Correlation:  PBE
 Using SG-1 standard quadrature grid
 SCF converges when DIIS error is below 1.0E-05
 Requested basis set is G3large
 There are 30 shells and 126 basis functions
 A cutoff of  1.0D-08 yielded    434 shell pairs
 There are   7827 function pairs ( 10283 Cartesian)
 ---------------------------------------
  Cycle       Energy         DIIS Error
 ---------------------------------------
    1    -185.3491970162      4.91E-02
    2    -184.4830789942      8.04E-03
    3    -184.5028132977      7.82E-03
    4    -184.5769202198      6.12E-04
    5    -184.5775595144      3.90E-04
    6    -184.5777693125      1.94E-04
    7    -184.5778458816      3.97E-05
    8    -184.5778537995      1.20E-05
    9    -184.5778547272      4.51E-06 Convergence criterion met
 ---------------------------------------
 One-Electron    Energy =  -372.8734354323
 Total Coulomb   Energy =   148.7321101208
 Alpha Exchange  Energy =    -3.4834817871
 Beta  Exchange  Energy =    -3.4834817871
 DFT   Exchange  Energy =   -14.4775944484
 DFT Correlation Energy =    -0.7460276658
 Nuclear Repu.   Energy =    61.7540562727
 Nuclear Attr.   Energy =  -556.9529861809
 Kinetic         Energy =   184.0795507486
 SCF time:  CPU 25.86 s  wall 26.39 s
 Final Alpha MO Eigenvalues
            1           2           3           4           5           6
    1 -19.2072450 -14.6182287 -14.4683236  -1.5271844  -1.3514262  -0.8017495
            7           8           9          10          11          12
    1  -0.7824737  -0.7824667  -0.6802289  -0.5058388  -0.5058253   0.0810808
           13          14          15          16
    1   0.0957642   0.0957668   0.1387666   0.1669428
 Analysis of SCF Wavefunction
 
 --------------------------------------------------------------
                    Orbital Energies (a.u.)
 --------------------------------------------------------------
 
 Alpha MOs
 -- Occupied --
-19.207 -14.618 -14.468  -1.527  -1.351  -0.802  -0.782  -0.782
 -0.680  -0.506  -0.506
 -- Virtual --
  0.081   0.096   0.096   0.139   0.167   0.167   0.217   0.222
  0.222   0.299   0.316   0.335   0.335   0.397   0.469   0.703
  0.818   0.818   0.903   0.903   0.920   0.920   0.956   1.012
  1.161   1.213   1.213   1.253   1.257   1.257   1.290   1.290
  1.339   1.771   1.771   1.805   1.866   1.866   2.115   2.525
  2.525   2.718   2.896   3.409   3.409   3.413   3.413   3.532
  3.707   3.707   3.786   3.786   3.907   3.907   4.096   4.096
  4.380   4.500   4.500   4.553   4.553   4.761   4.780   4.780
  4.781   4.938   4.938   4.991   4.991   5.213   5.213   5.282
  5.282   5.588   5.824   5.824   5.944   6.175   6.175   6.927
  6.927   7.206   7.379   7.379   7.705   7.705   7.930   8.946
 35.535  36.274  37.366  37.366  37.749  37.749  38.474  39.509
 40.376  40.480  40.528  40.587  40.587  40.633  40.720  40.932
 40.932  41.768  43.775  43.836  43.973  43.973  44.249  45.858
 45.858  46.756  50.580
 --------------------------------------------------------------
 
          Ground-State Mulliken Net Atomic Charges

     Atom                 Charge (a.u.)
  ----------------------------------------
      1 N                    -0.108001
      2 N                     0.393304
      3 O                    -0.285303
  ----------------------------------------
  Sum of atomic charges =     0.000000

 -----------------------------------------------------------------
                    Cartesian Multipole Moments
 -----------------------------------------------------------------
    Charge (ESU x 10^10)
                 0.0000
    Dipole Moment (Debye)
         X       0.0000      Y       0.0000      Z      -0.4251
       Tot       0.4251
    Quadrupole Moments (Debye-Ang)
        XX     -15.1179     XY       0.0002     YY     -15.1179
        XZ      -0.0001     YZ       0.0000     ZZ     -20.2355
    Octapole Moments (Debye-Ang^2)
       XXX       0.0000    XXY       0.0000    XYY       0.0000
       YYY       0.0000    XXZ     -17.4258    XYZ      -0.0006
       YYZ     -17.4260    XZZ      -0.0001    YZZ      -0.0001
       ZZZ     -67.1861
    Hexadecapole Moments (Debye-Ang^3)
      XXXX     -11.8589   XXXY       0.0002   XXYY      -3.9529
      XYYY       0.0002   YYYY     -11.8587   XXXZ       0.0000
      XXYZ       0.0000   XYYZ       0.0000   YYYZ       0.0000
      XXZZ     -38.8711   XYZZ      -0.0012   YYZZ     -38.8714
      XZZZ      -0.0005   YZZZ      -0.0002   ZZZZ    -253.8277
 -----------------------------------------------------------------
 Total job time:  26.54s(wall), 25.99s(cpu) 
 Sun Jul  7 08:38:59 2013

        *************************************************************
        *                                                           *
        *  Thank you very much for using Q-Chem.  Have a nice day.  *
        *                                                           *
        *************************************************************


0 sent ACK to 0 
now end server 0 ... 
 
**********************************************************************
Job 3 of 3 
**********************************************************************
 
Process 0 of 1 is on cl015.stfx.acenet.ca - thread support 1
initial socket setup ...start
initial socket setup ...done 
now start server 0 ... 

cmd = /usr/bin/ssh clhead /usr/local/qchem/bin/get_hostid 629057650 > /scratch/tmp/6063535.1.short.q/qchem14361/lic.dat
                  Welcome to Q-Chem
     A Quantum Leap Into The Future Of Chemistry

 Y. Shao, L. Fusti-Molnar, Y. Jung, J. Kussmann, C. Ochsenfeld,
 S. T. Brown, A. T. B. Gilbert, L. V. Slipchenko,S. V. Levchenko,
 D. P. O'Neill, R. A. DiStasio Jr., R. C. Lochan, T. Wang,
 G. J. O. Beran, N. A. Besley, J. M. Herbert, C. Y. Lin,
 T. Van Voorhis, S. H. Chien, A. Sodt, R. P. Steele, 
 V. A. Rassolov, P. E. Maslen, P. P. Korambath, R. D. Adamson,
 B. Austin, J. Baker, E. F. C. Byrd, H. Dachsel, R. J. Doerksen,
 A. Dreuw, B. D. Dunietz, A. D. Dutoi, T. R. Furlani,
 S. R. Gwaltney, A. Heyden, S. Hirata, C.-P. Hsu, G. Kedziora,
 R. Z. Khaliullin, P. Klunzinger, A. M. Lee, M. S. Lee, W. Liang,
 I. Lotan, N. Nair, B. Peters, E. I. Proynov, P. A. Pieniazek, 
 Y. M. Rhee, J. Ritchie, E. Rosta, C. D. Sherrill, 
 A. C. Simmonett, J. E. Subotnik, H. L. Woodcock III,
 W. Zhang, A. T. Bell, A. K. Chakraborty, D. M. Chipman,
 F. J. Keil, A. Warshel, W. J. Hehre, H. F. Schaefer III,
 J. Kong, A. I. Krylov, P. M. W. Gill, M. Head-Gordon,
 Q-Chem, Version 3.1, Q-Chem, Inc., Pittsburgh, PA (2007).

 Additional authors for Version 3.1: 
 Z. Gan, Y. Zhao, N. E. Schultz, D. Truhlar, E. Epifanovsky and M. Oana.

 Additional authors for Version 3.2: 
 R. Baer, B. R. Brooks, D. Casanova, J.-D. Chai, C.-L. Cheng, 
 C. Cramer, D. Crittenden, A. Ghysels, G. Hawkins, E. G. Hohenstein, 
 C. Kelley, W. Kurlancheek, D. Liotard, E. Livshits, P. Manohar, 
 A. Marenich, D. Neuhauser, R. Olson, M. A. Rohrdanz, K. S. Thanthiriwatte, 
 A. J. W. Thom, V. Vanovschi, C. F. Williams, Q. Wu and Z.-Q. You. 


 Intel X86 Linux Version

 Q-chem begins on Sun Jul  7 08:39:02 2013  

 Parallel job on  1  processors
Processing $rem in /usr/local/qchem/config/preferences.

theFileMan(): MAXOPENFILES=974 MAX_SUB_FILE_NUM=16
Maximum size of a physical file is 2.0 GB, maximum size of a tmp-file is 32.0 GB


--------------------------------------------------------------
User input:
--------------------------------------------------------------

$molecule
1,2
N          0.00000        0.00000        0.02589
N          0.00000        0.00000        1.13189
O          0.00000        0.00000        2.30331
$end

$comment
positive
$end

$xc_functional
C PBE   1.00
X wPBE  1.00
$end

$rem
SYMMETRY_DECOMPOSITION	0
LRC_DFT                 true
exchange 		general
BASIS                   g3large
omega			700
mem_static              760
max_scf_cycles          200
scf_final_print         1
sym_ignore              true
$end

--------------------------------------------------------------
 Writing REM_CC_EA            3
 ----------------------------------------------------
       Standard Nuclear Orientation (Angstroms)
    I     Atom         X            Y            Z
 ----------------------------------------------------
    1      N       0.000000     0.000000     0.025890
    2      N       0.000000     0.000000     1.131890
    3      O       0.000000     0.000000     2.303310
 ----------------------------------------------------
 Nuclear Repulsion Energy =    61.7540562782 hartrees
 There are       11 alpha and       10 beta electrons
 Requested basis set is G3large
 There are 30 shells and 126 basis functions

Total QAlloc Memory Limit   2000 MB
Mega-Array Size       743 MB
MEM_STATIC part       760 MB

                       Distance Matrix (Angstroms)
             N (  1)   N (  2)
   N (  2)  1.106000
   O (  3)  2.277420  1.171420
 
 A cutoff of  1.0D-08 yielded    434 shell pairs
 There are   7827 function pairs ( 10283 Cartesian)
Evaluating contribution to one-electron hamiltonian from nuclear
 Smallest overlap matrix eigenvalue = 4.25E-05

 Q-Chem warning in module mkSTV.C, line 194:

 Overlap eigenvalue is smaller than square root of threshold

 Multipole matrices computed through 2nd order

  Scale SEOQF with 1.000000e-01/1.000000e-01/1.000000e-01

 Standard Electronic Orientation quadrupole field applied
 Nucleus-field energy     =    -0.0000000055 hartrees
 Guess from superposition of atomic densities
 Warning:  Energy on first SCF cycle will be non-variational
 Long-range K will be added via erf
 Coulomb attenuation parameter = 0.7 bohr**(-1)
 An unrestricted Kohn-Sham SCF calculation will be
 performed using Pulay DIIS extrapolation
 Exchange:  wPBE + LR-HF      Correlation:  PBE
 Using SG-1 standard quadrature grid
 SCF converges when DIIS error is below 1.0E-05
 Requested basis set is G3large
 There are 30 shells and 126 basis functions
 A cutoff of  1.0D-08 yielded    434 shell pairs
 There are   7827 function pairs ( 10283 Cartesian)
 Warning!  Inaccurate integrated density:
   Number of electrons =    21
   Numerical integral  =    22.000008617596
   Relative error      =     4.7619457981 %
 ---------------------------------------
  Cycle       Energy         DIIS Error
 ---------------------------------------
    1    -185.3491970162      4.91E-02
    2    -183.9367919388      8.90E-03
    3    -184.0304155030      7.16E-03
    4    -184.0944350729      1.38E-03
    5    -184.0990336314      4.39E-04
    6    -184.1005942023      2.83E-04
    7    -184.1011286892      1.02E-04
    8    -184.1015508333      4.79E-05
    9    -184.1016311209      1.73E-05
   10    -184.1016459375      4.76E-06 Convergence criterion met
 ---------------------------------------
 One-Electron    Energy =  -364.6033068805
 Total Coulomb   Energy =   140.5672688312
 Alpha Exchange  Energy =    -3.5322446315
 Beta  Exchange  Energy =    -3.2025326272
 DFT   Exchange  Energy =   -14.3833003886
 DFT Correlation Energy =    -0.7015865135
 Nuclear Repu.   Energy =    61.7540562727
 Nuclear Attr.   Energy =  -548.3786708921
 Kinetic         Energy =   183.7753640116
 <S^2> = 0.8075
 SCF time:  CPU 35.36 s  wall 35.75 s
 Final Alpha MO Eigenvalues
            1           2           3           4           5           6
    1 -19.6641418 -14.9549532 -14.8716446  -1.9182478  -1.7402874  -1.1943640
            7           8           9          10          11          12
    1  -1.1683545  -1.1391343  -1.0278580  -0.9441951  -0.8923299  -0.2446173
           13          14          15          16
    1  -0.2281814  -0.1439584  -0.0514073  -0.0453368
 Final Beta MO Eigenvalues
            1           2           3           4           5           6
    1 -19.6439557 -14.9612520 -14.8617472  -1.8913176  -1.6997222  -1.1616465
            7           8           9          10          11          12
    1  -1.1367523  -1.0842334  -1.0074246  -0.8698812  -0.4465688  -0.2263149
           13          14          15
    1  -0.1666186  -0.1407337  -0.0442636
 Analysis of SCF Wavefunction
 
 --------------------------------------------------------------
                    Orbital Energies (a.u.)
 --------------------------------------------------------------
 
 Alpha MOs
 -- Occupied --
-19.664 -14.955 -14.872  -1.918  -1.740  -1.194  -1.168  -1.139
 -1.028  -0.944  -0.892
 -- Virtual --
 -0.245  -0.228  -0.144  -0.051  -0.045  -0.034   0.003   0.018
  0.030   0.034   0.105   0.132   0.137   0.195   0.217   0.451
  0.531   0.540   0.579   0.580   0.636   0.647   0.655   0.711
  0.871   0.877   0.896   0.915   0.930   0.936   0.959   0.959
  1.051   1.406   1.407   1.479   1.523   1.544   1.816   2.168
  2.191   2.383   2.539   3.053   3.054   3.070   3.070   3.188
  3.382   3.383   3.411   3.436   3.559   3.559   3.717   3.738
  4.021   4.140   4.140   4.184   4.201   4.410   4.421   4.431
  4.434   4.566   4.567   4.582   4.619   4.786   4.787   4.870
  4.909   5.191   5.427   5.429   5.574   5.792   5.812   6.466
  6.468   6.822   6.940   6.986   7.301   7.329   7.552   8.558
 35.167  35.906  36.994  37.000  37.375  37.380  38.083  39.152
 40.039  40.121  40.144  40.226  40.230  40.232  40.360  40.544
 40.552  41.396  43.301  43.360  43.497  43.533  43.798  45.378
 45.413  46.310  50.130
 
 Beta MOs
 -- Occupied --
-19.644 -14.961 -14.862  -1.891  -1.700  -1.162  -1.137  -1.084
 -1.007  -0.870
 -- Virtual --
 -0.447  -0.226  -0.167  -0.141  -0.044  -0.040  -0.033   0.007
  0.021   0.035   0.036   0.106   0.138   0.140   0.197   0.220
  0.457   0.538   0.540   0.587   0.587   0.650   0.652   0.661
  0.719   0.881   0.903   0.916   0.939   0.940   0.948   0.982
  0.983   1.061   1.443   1.445   1.497   1.548   1.550   1.820
  2.194   2.195   2.393   2.554   3.065   3.065   3.074   3.074
  3.193   3.363   3.373   3.445   3.449   3.571   3.571   3.742
  3.742   4.028   4.150   4.151   4.200   4.203   4.419   4.431
  4.432   4.437   4.591   4.593   4.632   4.641   4.843   4.844
  4.920   4.927   5.219   5.456   5.458   5.584   5.813   5.814
  6.549   6.558   6.842   6.998   7.008   7.336   7.338   7.562
  8.570  35.169  35.908  37.001  37.001  37.381  37.382  38.088
 39.152  40.029  40.134  40.140  40.229  40.230  40.245  40.359
 40.553  40.554  41.397  43.351  43.412  43.540  43.548  43.820
 45.426  45.435  46.324  50.148
 --------------------------------------------------------------
 
          Ground-State Mulliken Net Atomic Charges

     Atom                 Charge (a.u.)    Spin (a.u.)
  --------------------------------------------------------
      1 N                     0.367769       0.466144
      2 N                     0.380544      -0.247364
      3 O                     0.251687       0.781221
  --------------------------------------------------------
  Sum of atomic charges =     1.000000
  Sum of spin   charges =     1.000000

 -----------------------------------------------------------------
                    Cartesian Multipole Moments
 -----------------------------------------------------------------
    Charge (ESU x 10^10)
                 4.8032
    Dipole Moment (Debye)
         X       0.0011      Y      -0.0008      Z       5.5953
       Tot       5.5953
    Quadrupole Moments (Debye-Ang)
        XX     -12.5824     XY      -0.4758     YY     -12.8775
        XZ       0.0000     YZ       0.0000     ZZ      -4.2173
    Octapole Moments (Debye-Ang^2)
       XXX       0.0008    XXY      -0.0002    XYY       0.0003
       YYY      -0.0006    XXZ     -14.3664    XYZ      -0.6898
       YYZ     -14.7943    XZZ       0.0013    YZZ      -0.0010
       ZZZ     -27.9014
    Hexadecapole Moments (Debye-Ang^3)
      XXXX      -8.3779   XXXY      -0.2571   XXYY      -2.8460
      XYYY      -0.2573   YYYY      -8.6969   XXXZ       0.0000
      XXYZ       0.0000   XYYZ       0.0000   YYYZ      -0.0001
      XXZZ     -30.6574   XYZZ      -1.6935   YYZZ     -31.7078
      XZZZ       0.0030   YZZZ      -0.0024   ZZZZ    -146.3311
 -----------------------------------------------------------------
 Total job time:  35.90s(wall), 35.51s(cpu) 
 Sun Jul  7 08:39:38 2013

        *************************************************************
        *                                                           *
        *  Thank you very much for using Q-Chem.  Have a nice day.  *
        *                                                           *
        *************************************************************


0 sent ACK to 0 
now end server 0 ... 
