Process 0 of 1 is on cl085.stfx.acenet.ca - thread support 1
initial socket setup ...start
initial socket setup ...done 
now start server 0 ... 

cmd = /usr/bin/ssh clhead /usr/local/qchem/bin/get_hostid 1659048523 > /scratch/tmp/6064942.1.short.q/qchem32014/lic.dat
                  Welcome to Q-Chem
     A Quantum Leap Into The Future Of Chemistry

 Y. Shao, L. Fusti-Molnar, Y. Jung, J. Kussmann, C. Ochsenfeld,
 S. T. Brown, A. T. B. Gilbert, L. V. Slipchenko,S. V. Levchenko,
 D. P. O'Neill, R. A. DiStasio Jr., R. C. Lochan, T. Wang,
 G. J. O. Beran, N. A. Besley, J. M. Herbert, C. Y. Lin,
 T. Van Voorhis, S. H. Chien, A. Sodt, R. P. Steele, 
 V. A. Rassolov, P. E. Maslen, P. P. Korambath, R. D. Adamson,
 B. Austin, J. Baker, E. F. C. Byrd, H. Dachsel, R. J. Doerksen,
 A. Dreuw, B. D. Dunietz, A. D. Dutoi, T. R. Furlani,
 S. R. Gwaltney, A. Heyden, S. Hirata, C.-P. Hsu, G. Kedziora,
 R. Z. Khaliullin, P. Klunzinger, A. M. Lee, M. S. Lee, W. Liang,
 I. Lotan, N. Nair, B. Peters, E. I. Proynov, P. A. Pieniazek, 
 Y. M. Rhee, J. Ritchie, E. Rosta, C. D. Sherrill, 
 A. C. Simmonett, J. E. Subotnik, H. L. Woodcock III,
 W. Zhang, A. T. Bell, A. K. Chakraborty, D. M. Chipman,
 F. J. Keil, A. Warshel, W. J. Hehre, H. F. Schaefer III,
 J. Kong, A. I. Krylov, P. M. W. Gill, M. Head-Gordon,
 Q-Chem, Version 3.1, Q-Chem, Inc., Pittsburgh, PA (2007).

 Additional authors for Version 3.1: 
 Z. Gan, Y. Zhao, N. E. Schultz, D. Truhlar, E. Epifanovsky and M. Oana.

 Additional authors for Version 3.2: 
 R. Baer, B. R. Brooks, D. Casanova, J.-D. Chai, C.-L. Cheng, 
 C. Cramer, D. Crittenden, A. Ghysels, G. Hawkins, E. G. Hohenstein, 
 C. Kelley, W. Kurlancheek, D. Liotard, E. Livshits, P. Manohar, 
 A. Marenich, D. Neuhauser, R. Olson, M. A. Rohrdanz, K. S. Thanthiriwatte, 
 A. J. W. Thom, V. Vanovschi, C. F. Williams, Q. Wu and Z.-Q. You. 


 Intel X86 Linux Version

 Q-chem begins on Mon Jul  8 12:28:49 2013  

 Parallel job on  1  processors
Processing $rem in /usr/local/qchem/config/preferences.

theFileMan(): MAXOPENFILES=974 MAX_SUB_FILE_NUM=16
Maximum size of a physical file is 2.0 GB, maximum size of a tmp-file is 32.0 GB


--------------------------------------------------------------
User input:
--------------------------------------------------------------

$molecule
-1,2
C         -0.00199        0.00000        0.00717
C          0.00183        0.00000        1.31937
F          1.13163        0.00000       -0.70826
H         -0.88054        0.00000       -0.62880
H          0.92723        0.00000        1.88041
H         -0.93959        0.00000        1.85049
$end

$comment
negative
$end

$xc_functional
C PBE   1.00
X wPBE  1.00
$end

$rem
SYMMETRY_DECOMPOSITION	0
exchange 		general
LRC_DFT                 true
BASIS                   g3large
omega			200
mem_static              760
max_scf_cycles          200
scf_final_print         1
sym_ignore              true
$end

--------------------------------------------------------------
 Writing REM_CC_EA            6
 ----------------------------------------------------
       Standard Nuclear Orientation (Angstroms)
    I     Atom         X            Y            Z
 ----------------------------------------------------
    1      C      -0.001990     0.000000     0.007170
    2      C       0.001830     0.000000     1.319370
    3      F       1.131630     0.000000    -0.708260
    4      H      -0.880540     0.000000    -0.628800
    5      H       0.927230     0.000000     1.880410
    6      H      -0.939590     0.000000     1.850490
 ----------------------------------------------------
 Nuclear Repulsion Energy =    67.7967727849 hartrees
 There are       13 alpha and       12 beta electrons
 Requested basis set is G3large
 There are 48 shells and 156 basis functions

Total QAlloc Memory Limit   2000 MB
Mega-Array Size       743 MB
MEM_STATIC part       760 MB

                       Distance Matrix (Angstroms)
             C (  1)   C (  2)   F (  3)   H (  4)   H (  5)
   C (  2)  1.312206
   F (  3)  1.340498  2.321149
   H (  4)  1.084577  2.138678  2.013738
   H (  5)  2.091047  1.082188  2.596727  3.092599
   H (  6)  2.068072  1.080907  3.291983  2.479993  1.867060
 
 A cutoff of  1.0D-08 yielded   1115 shell pairs
 There are  11879 function pairs ( 14831 Cartesian)
Evaluating contribution to one-electron hamiltonian from nuclear
 Smallest overlap matrix eigenvalue = 1.04E-04
 Multipole matrices computed through 2nd order

  Scale SEOQF with 1.000000e-01/1.000000e-01/1.000000e-01

 Standard Electronic Orientation quadrupole field applied
 Nucleus-field energy     =    -0.0000000019 hartrees
 Guess from superposition of atomic densities
 Warning:  Energy on first SCF cycle will be non-variational
 Long-range K will be added via erf
 Coulomb attenuation parameter = 0.2 bohr**(-1)
 An unrestricted Kohn-Sham SCF calculation will be
 performed using Pulay DIIS extrapolation
 Exchange:  wPBE + LR-HF      Correlation:  PBE
 Using SG-1 standard quadrature grid
 SCF converges when DIIS error is below 1.0E-05
 Requested basis set is G3large
 There are 48 shells and 156 basis functions
 A cutoff of  1.0D-08 yielded   1115 shell pairs
 There are  11879 function pairs ( 14831 Cartesian)
 Warning!  Inaccurate integrated density:
   Number of electrons =    25
   Numerical integral  =    23.999812481250
   Relative error      =    -4.0007500750 %
 ---------------------------------------
  Cycle       Energy         DIIS Error
 ---------------------------------------
    1    -178.1561599868      3.46E-02
    2    -177.4735045033      6.74E-03
    3    -177.4154654463      8.71E-03
    4    -177.6687819603      1.67E-03
    5    -177.6822244086      4.05E-04
    6    -177.6833757146      2.22E-04
    7    -177.6839020999      6.43E-05
    8    -177.6841804670      4.43E-05
    9    -177.6843431043      3.48E-05
   10    -177.6845414718      2.48E-05
   11    -177.6847262613      1.78E-05
   12    -177.6848676902      1.02E-05
   13    -177.6848893646      5.68E-06 Convergence criterion met
 ---------------------------------------
 One-Electron    Energy =  -380.9362363612
 Total Coulomb   Energy =   157.7839569325
 Alpha Exchange  Energy =    -1.3720444776
 Beta  Exchange  Energy =    -1.3075797369
 DFT   Exchange  Energy =   -18.8544947292
 DFT Correlation Energy =    -0.7952637752
 Nuclear Repu.   Energy =    67.7967727830
 Nuclear Attr.   Energy =  -558.2834494384
 Kinetic         Energy =   177.3472130772
 <S^2> = 0.7501
 SCF time:  CPU 85.68 s  wall 86.45 s
 Final Alpha MO Eigenvalues
            1           2           3           4           5           6
    1 -24.2439876  -9.9285927  -9.8472731  -1.1114107  -0.6760132  -0.5234018
            7           8           9          10          11          12
    1  -0.4472473  -0.4011952  -0.3837809  -0.3253205  -0.2899666  -0.1974431
           13          14          15          16          17          18
    1   0.0326832   0.1408157   0.1502355   0.1894941   0.2091737   0.2176653
 Final Beta MO Eigenvalues
            1           2           3           4           5           6
    1 -24.2439802  -9.9282170  -9.8468504  -1.1113441  -0.6752735  -0.5226138
            7           8           9          10          11          12
    1  -0.4461349  -0.4002301  -0.3836835  -0.3243119  -0.2890564  -0.1969259
           13          14          15          16          17
    1   0.1440315   0.1652612   0.1722036   0.1900556   0.2174821
 Analysis of SCF Wavefunction
 
 --------------------------------------------------------------
                    Orbital Energies (a.u.)
 --------------------------------------------------------------
 
 Alpha MOs
 -- Occupied --
-24.244  -9.929  -9.847  -1.111  -0.676  -0.523  -0.447  -0.401
 -0.384  -0.325  -0.290  -0.197   0.033
 -- Virtual --
  0.141   0.150   0.189   0.209   0.218   0.236   0.272   0.273
  0.281   0.298   0.313   0.339   0.339   0.384   0.432   0.447
  0.508   0.528   0.541   0.587   0.655   0.663   0.693   0.696
  0.731   0.770   0.779   0.813   0.822   0.845   0.866   0.914
  0.964   0.983   1.088   1.106   1.185   1.208   1.261   1.333
  1.348   1.382   1.448   1.489   1.527   1.547   1.552   1.573
  1.617   1.676   1.687   1.800   1.906   2.106   2.226   2.342
  2.374   2.602   2.619   2.673   2.790   2.814   2.850   2.891
  2.906   2.961   3.002   3.046   3.137   3.233   3.261   3.271
  3.298   3.300   3.350   3.398   3.414   3.527   3.599   3.608
  3.722   3.737   3.778   3.861   3.914   3.916   4.132   4.160
  4.274   4.300   4.370   4.538   4.542   4.601   4.818   4.823
  5.246   5.374   5.467   5.704   6.052   6.304   6.427   6.735
  6.746   6.824   6.854   6.914   7.186   7.447   7.691   9.186
  9.239   9.566   9.743  10.027  23.989  24.827  27.237  27.436
 28.066  28.230  28.270  28.385  40.828  40.925  41.007  41.116
 41.122  41.202  41.276  41.277  41.323  41.390  50.120  50.142
 50.283  50.315  50.452  55.613  55.678  56.119  66.626
 
 Beta MOs
 -- Occupied --
-24.244  -9.928  -9.847  -1.111  -0.675  -0.523  -0.446  -0.400
 -0.384  -0.324  -0.289  -0.197
 -- Virtual --
  0.144   0.165   0.172   0.190   0.217   0.223   0.239   0.273
  0.275   0.284   0.300   0.314   0.340   0.343   0.386   0.433
  0.447   0.509   0.529   0.542   0.587   0.655   0.664   0.693
  0.697   0.732   0.770   0.780   0.814   0.823   0.846   0.866
  0.914   0.964   0.984   1.089   1.107   1.186   1.210   1.262
  1.334   1.348   1.383   1.448   1.490   1.528   1.548   1.554
  1.573   1.619   1.677   1.688   1.802   1.907   2.106   2.226
  2.343   2.374   2.602   2.620   2.673   2.790   2.815   2.850
  2.892   2.907   2.962   3.003   3.046   3.137   3.234   3.263
  3.272   3.299   3.301   3.351   3.399   3.415   3.528   3.599
  3.608   3.723   3.737   3.780   3.861   3.915   3.917   4.132
  4.161   4.275   4.301   4.370   4.539   4.543   4.602   4.819
  4.823   5.248   5.375   5.468   5.705   6.054   6.304   6.427
  6.735   6.747   6.824   6.854   6.914   7.186   7.447   7.691
  9.186   9.239   9.566   9.743  10.027  23.989  24.828  27.237
 27.436  28.067  28.230  28.270  28.386  40.828  40.926  41.007
 41.117  41.122  41.203  41.277  41.278  41.324  41.390  50.120
 50.142  50.283  50.315  50.452  55.613  55.678  56.119  66.626
 --------------------------------------------------------------
 
          Ground-State Mulliken Net Atomic Charges

     Atom                 Charge (a.u.)    Spin (a.u.)
  --------------------------------------------------------
      1 C                     0.737627      -0.826745
      2 C                     1.157013      -1.285094
      3 F                    -0.143005       0.016056
      4 H                    -1.654467       1.809681
      5 H                     0.021602       0.056512
      6 H                    -1.118770       1.229591
  --------------------------------------------------------
  Sum of atomic charges =    -1.000000
  Sum of spin   charges =     1.000000

 -----------------------------------------------------------------
                    Cartesian Multipole Moments
 -----------------------------------------------------------------
    Charge (ESU x 10^10)
                -4.8032
    Dipole Moment (Debye)
         X       8.2296      Y      -0.0107      Z      -1.5636
       Tot       8.3769
    Quadrupole Moments (Debye-Ang)
        XX     -53.4431     XY      -0.0010     YY     -34.8929
        XZ       5.4987     YZ      -0.1250     ZZ     -43.2128
    Octapole Moments (Debye-Ang^2)
       XXX      93.1838    XXY      -0.0390    XYY      21.7624
       YYY      -0.0757    XXZ     -20.4638    XYZ       0.0914
       YYZ     -14.8272    XZZ      41.5403    YZZ      -0.1900
       ZZZ     -52.4081
    Hexadecapole Moments (Debye-Ang^3)
      XXXX    -531.1171   XXXY       0.0046   XXYY    -108.1314
      XYYY       0.0120   YYYY    -156.5238   XXXZ      61.5615
      XXYZ      -0.3508   XYYZ      15.7821   YYYZ      -0.8247
      XXZZ    -184.3254   XYZZ       0.1144   YYZZ    -100.3559
      XZZZ      78.5138   YZZZ      -1.1205   ZZZZ    -476.5352
 -----------------------------------------------------------------
 Total job time:  86.63s(wall), 85.84s(cpu) 
 Mon Jul  8 12:30:15 2013

        *************************************************************
        *                                                           *
        *  Thank you very much for using Q-Chem.  Have a nice day.  *
        *                                                           *
        *************************************************************


0 sent ACK to 0 
now end server 0 ... 
 
**********************************************************************
Job 2 of 3 
**********************************************************************
 
Process 0 of 1 is on cl085.stfx.acenet.ca - thread support 1
initial socket setup ...start
initial socket setup ...done 
now start server 0 ... 

cmd = /usr/bin/ssh clhead /usr/local/qchem/bin/get_hostid 375614902 > /scratch/tmp/6064942.1.short.q/qchem32014/lic.dat
                  Welcome to Q-Chem
     A Quantum Leap Into The Future Of Chemistry

 Y. Shao, L. Fusti-Molnar, Y. Jung, J. Kussmann, C. Ochsenfeld,
 S. T. Brown, A. T. B. Gilbert, L. V. Slipchenko,S. V. Levchenko,
 D. P. O'Neill, R. A. DiStasio Jr., R. C. Lochan, T. Wang,
 G. J. O. Beran, N. A. Besley, J. M. Herbert, C. Y. Lin,
 T. Van Voorhis, S. H. Chien, A. Sodt, R. P. Steele, 
 V. A. Rassolov, P. E. Maslen, P. P. Korambath, R. D. Adamson,
 B. Austin, J. Baker, E. F. C. Byrd, H. Dachsel, R. J. Doerksen,
 A. Dreuw, B. D. Dunietz, A. D. Dutoi, T. R. Furlani,
 S. R. Gwaltney, A. Heyden, S. Hirata, C.-P. Hsu, G. Kedziora,
 R. Z. Khaliullin, P. Klunzinger, A. M. Lee, M. S. Lee, W. Liang,
 I. Lotan, N. Nair, B. Peters, E. I. Proynov, P. A. Pieniazek, 
 Y. M. Rhee, J. Ritchie, E. Rosta, C. D. Sherrill, 
 A. C. Simmonett, J. E. Subotnik, H. L. Woodcock III,
 W. Zhang, A. T. Bell, A. K. Chakraborty, D. M. Chipman,
 F. J. Keil, A. Warshel, W. J. Hehre, H. F. Schaefer III,
 J. Kong, A. I. Krylov, P. M. W. Gill, M. Head-Gordon,
 Q-Chem, Version 3.1, Q-Chem, Inc., Pittsburgh, PA (2007).

 Additional authors for Version 3.1: 
 Z. Gan, Y. Zhao, N. E. Schultz, D. Truhlar, E. Epifanovsky and M. Oana.

 Additional authors for Version 3.2: 
 R. Baer, B. R. Brooks, D. Casanova, J.-D. Chai, C.-L. Cheng, 
 C. Cramer, D. Crittenden, A. Ghysels, G. Hawkins, E. G. Hohenstein, 
 C. Kelley, W. Kurlancheek, D. Liotard, E. Livshits, P. Manohar, 
 A. Marenich, D. Neuhauser, R. Olson, M. A. Rohrdanz, K. S. Thanthiriwatte, 
 A. J. W. Thom, V. Vanovschi, C. F. Williams, Q. Wu and Z.-Q. You. 


 Intel X86 Linux Version

 Q-chem begins on Mon Jul  8 12:30:18 2013  

 Parallel job on  1  processors
Processing $rem in /usr/local/qchem/config/preferences.

theFileMan(): MAXOPENFILES=974 MAX_SUB_FILE_NUM=16
Maximum size of a physical file is 2.0 GB, maximum size of a tmp-file is 32.0 GB


--------------------------------------------------------------
User input:
--------------------------------------------------------------

$molecule
0,1
C         -0.00199        0.00000        0.00717
C          0.00183        0.00000        1.31937
F          1.13163        0.00000       -0.70826
H         -0.88054        0.00000       -0.62880
H          0.92723        0.00000        1.88041
H         -0.93959        0.00000        1.85049
$end

$comment
neutral
$end

$xc_functional
C PBE   1.00
X wPBE  1.00
$end


$rem
SYMMETRY_DECOMPOSITION	0
LRC_DFT                 true
exchange 		general
BASIS                   g3large
omega			200
mem_static              760
max_scf_cycles          200
scf_final_print         1
sym_ignore              true
$end

--------------------------------------------------------------
 Writing REM_CC_EA            6
 ----------------------------------------------------
       Standard Nuclear Orientation (Angstroms)
    I     Atom         X            Y            Z
 ----------------------------------------------------
    1      C      -0.001990     0.000000     0.007170
    2      C       0.001830     0.000000     1.319370
    3      F       1.131630     0.000000    -0.708260
    4      H      -0.880540     0.000000    -0.628800
    5      H       0.927230     0.000000     1.880410
    6      H      -0.939590     0.000000     1.850490
 ----------------------------------------------------
 Nuclear Repulsion Energy =    67.7967727849 hartrees
 There are       12 alpha and       12 beta electrons
 Requested basis set is G3large
 There are 48 shells and 156 basis functions

Total QAlloc Memory Limit   2000 MB
Mega-Array Size       743 MB
MEM_STATIC part       760 MB

                       Distance Matrix (Angstroms)
             C (  1)   C (  2)   F (  3)   H (  4)   H (  5)
   C (  2)  1.312206
   F (  3)  1.340498  2.321149
   H (  4)  1.084577  2.138678  2.013738
   H (  5)  2.091047  1.082188  2.596727  3.092599
   H (  6)  2.068072  1.080907  3.291983  2.479993  1.867060
 
 A cutoff of  1.0D-08 yielded   1115 shell pairs
 There are  11879 function pairs ( 14831 Cartesian)
Evaluating contribution to one-electron hamiltonian from nuclear
 Smallest overlap matrix eigenvalue = 1.04E-04
 Multipole matrices computed through 2nd order

  Scale SEOQF with 1.000000e-01/1.000000e-01/1.000000e-01

 Standard Electronic Orientation quadrupole field applied
 Nucleus-field energy     =    -0.0000000019 hartrees
 Guess from superposition of atomic densities
 Warning:  Energy on first SCF cycle will be non-variational
 Long-range K will be added via erf
 Coulomb attenuation parameter = 0.2 bohr**(-1)
 A restricted Kohn-Sham SCF calculation will be
 performed using Pulay DIIS extrapolation
 Exchange:  wPBE + LR-HF      Correlation:  PBE
 Using SG-1 standard quadrature grid
 SCF converges when DIIS error is below 1.0E-05
 Requested basis set is G3large
 There are 48 shells and 156 basis functions
 A cutoff of  1.0D-08 yielded   1115 shell pairs
 There are  11879 function pairs ( 14831 Cartesian)
 ---------------------------------------
  Cycle       Energy         DIIS Error
 ---------------------------------------
    1    -178.1561599868      3.46E-02
    2    -177.6645925225      4.67E-03
    3    -177.6712895370      4.48E-03
    4    -177.7171428290      7.04E-04
    5    -177.7183110824      2.34E-04
    6    -177.7184987796      5.66E-05
    7    -177.7185006830      3.12E-05
    8    -177.7185029443      8.44E-06 Convergence criterion met
 ---------------------------------------
 One-Electron    Energy =  -377.5930746256
 Total Coulomb   Energy =   154.3107722113
 Alpha Exchange  Energy =    -1.3078490817
 Beta  Exchange  Energy =    -1.3078490817
 DFT   Exchange  Energy =   -18.8301360481
 DFT Correlation Energy =    -0.7871391016
 Nuclear Repu.   Energy =    67.7967727830
 Nuclear Attr.   Energy =  -554.8600957596
 Kinetic         Energy =   177.2670211340
 SCF time:  CPU 41.99 s  wall 42.57 s
 Final Alpha MO Eigenvalues
            1           2           3           4           5           6
    1 -24.3783544 -10.0767675  -9.9938059  -1.2456482  -0.8210247  -0.6640637
            7           8           9          10          11          12
    1  -0.5897495  -0.5420080  -0.5178834  -0.4695877  -0.4298639  -0.3401876
           13          14          15          16          17
    1   0.0388979   0.0526328   0.0535878   0.0626957   0.1007036
 Analysis of SCF Wavefunction
 
 --------------------------------------------------------------
                    Orbital Energies (a.u.)
 --------------------------------------------------------------
 
 Alpha MOs
 -- Occupied --
-24.378 -10.077  -9.994  -1.246  -0.821  -0.664  -0.590  -0.542
 -0.518  -0.470  -0.430  -0.340
 -- Virtual --
  0.039   0.053   0.054   0.063   0.101   0.109   0.128   0.157
  0.159   0.165   0.184   0.193   0.206   0.218   0.249   0.313
  0.329   0.387   0.405   0.420   0.458   0.515   0.524   0.553
  0.559   0.596   0.634   0.637   0.674   0.689   0.702   0.728
  0.771   0.823   0.838   0.945   0.967   1.044   1.059   1.113
  1.192   1.206   1.237   1.315   1.349   1.397   1.409   1.410
  1.438   1.474   1.530   1.552   1.661   1.764   1.975   2.091
  2.203   2.237   2.457   2.474   2.531   2.645   2.674   2.705
  2.746   2.762   2.820   2.856   2.901   2.994   3.088   3.117
  3.125   3.152   3.154   3.207   3.254   3.269   3.380   3.454
  3.466   3.576   3.589   3.633   3.716   3.767   3.772   3.989
  4.018   4.120   4.149   4.229   4.388   4.397   4.456   4.669
  4.678   5.101   5.225   5.322   5.560   5.904   6.172   6.294
  6.603   6.614   6.691   6.722   6.781   7.052   7.312   7.554
  9.053   9.106   9.433   9.610   9.894  23.842  24.680  27.090
 27.289  27.919  28.083  28.122  28.239  40.681  40.778  40.860
 40.968  40.974  41.056  41.129  41.130  41.176  41.243  49.986
 50.008  50.148  50.180  50.318  55.479  55.544  55.985  66.492
 --------------------------------------------------------------
 
          Ground-State Mulliken Net Atomic Charges

     Atom                 Charge (a.u.)
  ----------------------------------------
      1 C                    -0.096941
      2 C                    -0.132231
      3 F                    -0.103889
      4 H                     0.127883
      5 H                     0.118536
      6 H                     0.086642
  ----------------------------------------
  Sum of atomic charges =     0.000000

 -----------------------------------------------------------------
                    Cartesian Multipole Moments
 -----------------------------------------------------------------
    Charge (ESU x 10^10)
                 0.0000
    Dipole Moment (Debye)
         X      -1.1679      Y       0.0000      Z       0.6521
       Tot       1.3376
    Quadrupole Moments (Debye-Ang)
        XX     -17.6066     XY       0.0000     YY     -19.2406
        XZ       1.2904     YZ      -0.0002     ZZ     -16.4316
    Octapole Moments (Debye-Ang^2)
       XXX     -16.6755    XXY       0.0002    XYY      -4.6374
       YYY      -0.0007    XXZ      -3.4849    XYZ      -0.0002
       YYZ      -7.5511    XZZ      -5.6228    YZZ       0.0000
       ZZZ     -14.0563
    Hexadecapole Moments (Debye-Ang^3)
      XXXX     -65.4839   XXXY       0.0002   XXYY     -14.8042
      XYYY      -0.0001   YYYY     -20.9404   XXXZ      11.7354
      XXYZ      -0.0004   XYYZ       3.6673   YYYZ      -0.0007
      XXZZ     -26.8619   XYZZ       0.0001   YYZZ     -25.5307
      XZZZ      11.7613   YZZZ      -0.0006   ZZZZ    -114.2608
 -----------------------------------------------------------------
 Total job time:  42.74s(wall), 42.14s(cpu) 
 Mon Jul  8 12:31:00 2013

        *************************************************************
        *                                                           *
        *  Thank you very much for using Q-Chem.  Have a nice day.  *
        *                                                           *
        *************************************************************


0 sent ACK to 0 
now end server 0 ... 
 
**********************************************************************
Job 3 of 3 
**********************************************************************
 
Process 0 of 1 is on cl085.stfx.acenet.ca - thread support 1
initial socket setup ...start
initial socket setup ...done 
now start server 0 ... 

cmd = /usr/bin/ssh clhead /usr/local/qchem/bin/get_hostid 1410471037 > /scratch/tmp/6064942.1.short.q/qchem32014/lic.dat
                  Welcome to Q-Chem
     A Quantum Leap Into The Future Of Chemistry

 Y. Shao, L. Fusti-Molnar, Y. Jung, J. Kussmann, C. Ochsenfeld,
 S. T. Brown, A. T. B. Gilbert, L. V. Slipchenko,S. V. Levchenko,
 D. P. O'Neill, R. A. DiStasio Jr., R. C. Lochan, T. Wang,
 G. J. O. Beran, N. A. Besley, J. M. Herbert, C. Y. Lin,
 T. Van Voorhis, S. H. Chien, A. Sodt, R. P. Steele, 
 V. A. Rassolov, P. E. Maslen, P. P. Korambath, R. D. Adamson,
 B. Austin, J. Baker, E. F. C. Byrd, H. Dachsel, R. J. Doerksen,
 A. Dreuw, B. D. Dunietz, A. D. Dutoi, T. R. Furlani,
 S. R. Gwaltney, A. Heyden, S. Hirata, C.-P. Hsu, G. Kedziora,
 R. Z. Khaliullin, P. Klunzinger, A. M. Lee, M. S. Lee, W. Liang,
 I. Lotan, N. Nair, B. Peters, E. I. Proynov, P. A. Pieniazek, 
 Y. M. Rhee, J. Ritchie, E. Rosta, C. D. Sherrill, 
 A. C. Simmonett, J. E. Subotnik, H. L. Woodcock III,
 W. Zhang, A. T. Bell, A. K. Chakraborty, D. M. Chipman,
 F. J. Keil, A. Warshel, W. J. Hehre, H. F. Schaefer III,
 J. Kong, A. I. Krylov, P. M. W. Gill, M. Head-Gordon,
 Q-Chem, Version 3.1, Q-Chem, Inc., Pittsburgh, PA (2007).

 Additional authors for Version 3.1: 
 Z. Gan, Y. Zhao, N. E. Schultz, D. Truhlar, E. Epifanovsky and M. Oana.

 Additional authors for Version 3.2: 
 R. Baer, B. R. Brooks, D. Casanova, J.-D. Chai, C.-L. Cheng, 
 C. Cramer, D. Crittenden, A. Ghysels, G. Hawkins, E. G. Hohenstein, 
 C. Kelley, W. Kurlancheek, D. Liotard, E. Livshits, P. Manohar, 
 A. Marenich, D. Neuhauser, R. Olson, M. A. Rohrdanz, K. S. Thanthiriwatte, 
 A. J. W. Thom, V. Vanovschi, C. F. Williams, Q. Wu and Z.-Q. You. 


 Intel X86 Linux Version

 Q-chem begins on Mon Jul  8 12:31:04 2013  

 Parallel job on  1  processors
Processing $rem in /usr/local/qchem/config/preferences.

theFileMan(): MAXOPENFILES=974 MAX_SUB_FILE_NUM=16
Maximum size of a physical file is 2.0 GB, maximum size of a tmp-file is 32.0 GB


--------------------------------------------------------------
User input:
--------------------------------------------------------------

$molecule
1,2
C         -0.00199        0.00000        0.00717
C          0.00183        0.00000        1.31937
F          1.13163        0.00000       -0.70826
H         -0.88054        0.00000       -0.62880
H          0.92723        0.00000        1.88041
H         -0.93959        0.00000        1.85049
$end

$comment
positive
$end

$xc_functional
C PBE   1.00
X wPBE  1.00
$end

$rem
SYMMETRY_DECOMPOSITION	0
LRC_DFT                 true
exchange 		general
BASIS                   g3large
omega			200
mem_static              760
max_scf_cycles          200
scf_final_print         1
sym_ignore              true
$end

--------------------------------------------------------------
 Writing REM_CC_EA            6
 ----------------------------------------------------
       Standard Nuclear Orientation (Angstroms)
    I     Atom         X            Y            Z
 ----------------------------------------------------
    1      C      -0.001990     0.000000     0.007170
    2      C       0.001830     0.000000     1.319370
    3      F       1.131630     0.000000    -0.708260
    4      H      -0.880540     0.000000    -0.628800
    5      H       0.927230     0.000000     1.880410
    6      H      -0.939590     0.000000     1.850490
 ----------------------------------------------------
 Nuclear Repulsion Energy =    67.7967727849 hartrees
 There are       12 alpha and       11 beta electrons
 Requested basis set is G3large
 There are 48 shells and 156 basis functions

Total QAlloc Memory Limit   2000 MB
Mega-Array Size       743 MB
MEM_STATIC part       760 MB

                       Distance Matrix (Angstroms)
             C (  1)   C (  2)   F (  3)   H (  4)   H (  5)
   C (  2)  1.312206
   F (  3)  1.340498  2.321149
   H (  4)  1.084577  2.138678  2.013738
   H (  5)  2.091047  1.082188  2.596727  3.092599
   H (  6)  2.068072  1.080907  3.291983  2.479993  1.867060
 
 A cutoff of  1.0D-08 yielded   1115 shell pairs
 There are  11879 function pairs ( 14831 Cartesian)
Evaluating contribution to one-electron hamiltonian from nuclear
 Smallest overlap matrix eigenvalue = 1.04E-04
 Multipole matrices computed through 2nd order

  Scale SEOQF with 1.000000e-01/1.000000e-01/1.000000e-01

 Standard Electronic Orientation quadrupole field applied
 Nucleus-field energy     =    -0.0000000019 hartrees
 Guess from superposition of atomic densities
 Warning:  Energy on first SCF cycle will be non-variational
 Long-range K will be added via erf
 Coulomb attenuation parameter = 0.2 bohr**(-1)
 An unrestricted Kohn-Sham SCF calculation will be
 performed using Pulay DIIS extrapolation
 Exchange:  wPBE + LR-HF      Correlation:  PBE
 Using SG-1 standard quadrature grid
 SCF converges when DIIS error is below 1.0E-05
 Requested basis set is G3large
 There are 48 shells and 156 basis functions
 A cutoff of  1.0D-08 yielded   1115 shell pairs
 There are  11879 function pairs ( 14831 Cartesian)
 Warning!  Inaccurate integrated density:
   Number of electrons =    23
   Numerical integral  =    23.999812481250
   Relative error      =     4.3470107880 %
 ---------------------------------------
  Cycle       Energy         DIIS Error
 ---------------------------------------
    1    -178.1561599868      3.46E-02
    2    -177.2893196587      3.66E-03
    3    -177.2944538937      4.21E-03
    4    -177.3292707124      1.22E-03
    5    -177.3320714298      3.12E-04
    6    -177.3325391840      8.79E-05
    7    -177.3326602770      3.51E-05
    8    -177.3327268490      1.68E-05
    9    -177.3327429515      6.39E-06 Convergence criterion met
 ---------------------------------------
 One-Electron    Energy =  -370.1170677262
 Total Coulomb   Energy =   146.8963367825
 Alpha Exchange  Energy =    -1.3111620950
 Beta  Exchange  Energy =    -1.2035810968
 DFT   Exchange  Energy =   -18.6461217251
 DFT Correlation Energy =    -0.7479198739
 Nuclear Repu.   Energy =    67.7967727830
 Nuclear Attr.   Energy =  -547.1234956301
 Kinetic         Energy =   177.0064279039
 <S^2> = 0.7523
 SCF time:  CPU 58.46 s  wall 59.04 s
 Final Alpha MO Eigenvalues
            1           2           3           4           5           6
    1 -24.6975055 -10.4195319 -10.3435316  -1.5514120  -1.1634661  -0.9636903
            7           8           9          10          11          12
    1  -0.8901139  -0.8510663  -0.8323220  -0.7663150  -0.7258310  -0.6842189
           13          14          15          16          17
    1  -0.2620495  -0.1381082  -0.1175087  -0.1048979  -0.0824838
 Final Beta MO Eigenvalues
            1           2           3           4           5           6
    1 -24.6922650 -10.4149725 -10.3350406  -1.5415605  -1.1339214  -0.9530004
            7           8           9          10          11          12
    1  -0.8841248  -0.8422703  -0.8005792  -0.7608200  -0.7202952  -0.4309262
           13          14          15          16
    1  -0.2082875  -0.1336409  -0.1135412  -0.1017682
 Analysis of SCF Wavefunction
 
 --------------------------------------------------------------
                    Orbital Energies (a.u.)
 --------------------------------------------------------------
 
 Alpha MOs
 -- Occupied --
-24.698 -10.420 -10.344  -1.551  -1.163  -0.964  -0.890  -0.851
 -0.832  -0.766  -0.726  -0.684
 -- Virtual --
 -0.262  -0.138  -0.118  -0.105  -0.082  -0.072  -0.046  -0.035
 -0.016  -0.011   0.004   0.011   0.024   0.041   0.046   0.109
  0.120   0.154   0.206   0.226   0.237   0.277   0.283   0.284
  0.315   0.322   0.372   0.397   0.416   0.433   0.447   0.474
  0.517   0.550   0.573   0.697   0.708   0.787   0.796   0.856
  0.927   0.936   0.971   1.068   1.071   1.138   1.139   1.151
  1.188   1.222   1.267   1.298   1.391   1.493   1.700   1.798
  1.917   1.935   2.168   2.184   2.231   2.304   2.356   2.362
  2.421   2.445   2.524   2.529   2.577   2.667   2.773   2.797
  2.798   2.836   2.844   2.899   2.945   2.948   3.065   3.139
  3.151   3.270   3.292   3.298   3.401   3.441   3.463   3.695
  3.723   3.830   3.854   3.938   4.093   4.097   4.138   4.327
  4.376   4.779   4.927   5.019   5.264   5.603   5.860   6.000
  6.301   6.313   6.394   6.422   6.478   6.745   7.014   7.251
  8.738   8.792   9.117   9.311   9.591  23.498  24.335  26.737
 26.934  27.579  27.739  27.780  27.896  40.332  40.433  40.505
 40.621  40.625  40.700  40.776  40.787  40.832  40.900  49.662
 49.684  49.824  49.868  50.002  55.153  55.229  55.669  66.174
 
 Beta MOs
 -- Occupied --
-24.692 -10.415 -10.335  -1.542  -1.134  -0.953  -0.884  -0.842
 -0.801  -0.761  -0.720
 -- Virtual --
 -0.431  -0.208  -0.134  -0.114  -0.102  -0.081  -0.066  -0.043
 -0.028  -0.010  -0.009   0.006   0.017   0.026   0.043   0.049
  0.111   0.126   0.163   0.208   0.228   0.239   0.282   0.290
  0.303   0.329   0.346   0.394   0.404   0.439   0.440   0.454
  0.486   0.528   0.568   0.579   0.700   0.715   0.798   0.808
  0.863   0.942   0.945   0.978   1.072   1.089   1.150   1.151
  1.156   1.191   1.227   1.275   1.303   1.403   1.501   1.708
  1.812   1.927   1.950   2.180   2.196   2.241   2.343   2.381
  2.401   2.465   2.467   2.533   2.559   2.604   2.707   2.791
  2.826   2.830   2.858   2.861   2.908   2.966   2.975   3.090
  3.162   3.166   3.279   3.301   3.337   3.423   3.473   3.479
  3.702   3.728   3.839   3.857   3.949   4.103   4.104   4.147
  4.369   4.378   4.796   4.932   5.022   5.267   5.607   5.885
  6.005   6.316   6.327   6.400   6.432   6.490   6.759   7.016
  7.255   8.760   8.814   9.139   9.314   9.599  23.507  24.344
 26.756  26.956  27.582  27.744  27.784  27.900  40.342  40.441
 40.524  40.632  40.636  40.718  40.790  40.792  40.837  40.903
 49.678  49.700  49.839  49.869  50.006  55.169  55.232  55.672
 66.180
 --------------------------------------------------------------
 
          Ground-State Mulliken Net Atomic Charges

     Atom                 Charge (a.u.)    Spin (a.u.)
  --------------------------------------------------------
      1 C                     0.123600       0.311479
      2 C                     0.169509       0.562288
      3 F                     0.100036       0.162097
      4 H                     0.225882      -0.009218
      5 H                     0.204799      -0.013711
      6 H                     0.176174      -0.012936
  --------------------------------------------------------
  Sum of atomic charges =     1.000000
  Sum of spin   charges =     1.000000

 -----------------------------------------------------------------
                    Cartesian Multipole Moments
 -----------------------------------------------------------------
    Charge (ESU x 10^10)
                 4.8032
    Dipole Moment (Debye)
         X      -0.5720      Y      -0.0005      Z       3.4034
       Tot       3.4512
    Quadrupole Moments (Debye-Ang)
        XX     -12.7205     XY      -0.0002     YY     -15.1281
        XZ       0.4763     YZ      -0.0001     ZZ      -7.5256
    Octapole Moments (Debye-Ang^2)
       XXX     -14.4900    XXY       0.0000    XYY      -4.4839
       YYY      -0.0005    XXZ      -2.0812    XYZ      -0.0017
       YYZ      -4.6743    XZZ      -4.8179    YZZ      -0.0007
       ZZZ      -1.0764
    Hexadecapole Moments (Debye-Ang^3)
      XXXX     -51.7801   XXXY       0.0003   XXYY     -11.4990
      XYYY      -0.0002   YYYY     -12.0693   XXXZ       9.5732
      XXYZ      -0.0004   XYYZ       3.2389   YYYZ      -0.0001
      XXZZ     -16.8946   XYZZ      -0.0019   YYZZ     -18.6036
      XZZZ      10.3663   YZZZ      -0.0017   ZZZZ     -75.2149
 -----------------------------------------------------------------
 Total job time:  59.21s(wall), 58.61s(cpu) 
 Mon Jul  8 12:32:03 2013

        *************************************************************
        *                                                           *
        *  Thank you very much for using Q-Chem.  Have a nice day.  *
        *                                                           *
        *************************************************************


0 sent ACK to 0 
now end server 0 ... 
