Process 0 of 1 is on cl232.stfx.acenet.ca - thread support 1
initial socket setup ...start
initial socket setup ...done 
now start server 0 ... 

cmd = /usr/bin/ssh clhead /usr/local/qchem/bin/get_hostid 88283874 > /scratch/tmp/4503869.1.medium.q/qchem6426/lic.dat
                  Welcome to Q-Chem
     A Quantum Leap Into The Future Of Chemistry

 Y. Shao, L. Fusti-Molnar, Y. Jung, J. Kussmann, C. Ochsenfeld,
 S. T. Brown, A. T. B. Gilbert, L. V. Slipchenko,S. V. Levchenko,
 D. P. O'Neill, R. A. DiStasio Jr., R. C. Lochan, T. Wang,
 G. J. O. Beran, N. A. Besley, J. M. Herbert, C. Y. Lin,
 T. Van Voorhis, S. H. Chien, A. Sodt, R. P. Steele, 
 V. A. Rassolov, P. E. Maslen, P. P. Korambath, R. D. Adamson,
 B. Austin, J. Baker, E. F. C. Byrd, H. Dachsel, R. J. Doerksen,
 A. Dreuw, B. D. Dunietz, A. D. Dutoi, T. R. Furlani,
 S. R. Gwaltney, A. Heyden, S. Hirata, C.-P. Hsu, G. Kedziora,
 R. Z. Khaliullin, P. Klunzinger, A. M. Lee, M. S. Lee, W. Liang,
 I. Lotan, N. Nair, B. Peters, E. I. Proynov, P. A. Pieniazek, 
 Y. M. Rhee, J. Ritchie, E. Rosta, C. D. Sherrill, 
 A. C. Simmonett, J. E. Subotnik, H. L. Woodcock III,
 W. Zhang, A. T. Bell, A. K. Chakraborty, D. M. Chipman,
 F. J. Keil, A. Warshel, W. J. Hehre, H. F. Schaefer III,
 J. Kong, A. I. Krylov, P. M. W. Gill, M. Head-Gordon,
 Q-Chem, Version 3.1, Q-Chem, Inc., Pittsburgh, PA (2007).

 Additional authors for Version 3.1: 
 Z. Gan, Y. Zhao, N. E. Schultz, D. Truhlar, E. Epifanovsky and M. Oana.

 Additional authors for Version 3.2: 
 R. Baer, B. R. Brooks, D. Casanova, J.-D. Chai, C.-L. Cheng, 
 C. Cramer, D. Crittenden, A. Ghysels, G. Hawkins, E. G. Hohenstein, 
 C. Kelley, W. Kurlancheek, D. Liotard, E. Livshits, P. Manohar, 
 A. Marenich, D. Neuhauser, R. Olson, M. A. Rohrdanz, K. S. Thanthiriwatte, 
 A. J. W. Thom, V. Vanovschi, C. F. Williams, Q. Wu and Z.-Q. You. 


 Intel X86 Linux Version

 Q-chem begins on Sun Apr 17 19:53:46 2011  

 Parallel job on  1  processors
Processing $rem in /usr/local/qchem/config/preferences.

theFileMan(): MAXOPENFILES=974 MAX_SUB_FILE_NUM=16
Maximum size of a physical file is 2.0 GB, maximum size of a tmp-file is 32.0 GB


--------------------------------------------------------------
User input:
--------------------------------------------------------------

$molecule
0,1
C
H,1,CH
H,1,CH,2,HCH

CH=1.11942218
HCH=100.2755497

$end

$comment
neutral
$end

$xc_functional
   X HF 1.0
   X BNL 1.0
   C LYP 1.0
$end

$rem
SYMMETRY_DECOMPOSITION	0
exchange 		general
BASIS                   g3large
omega			480 
JOBTYPE                 opt
separate_jk		true
mem_static              760
max_scf_cycles          200
scf_final_print         1
sym_ignore              true
$end


--------------------------------------------------------------
 Writing REM_CC_EA            3
 ----------------------------------------------------
       Standard Nuclear Orientation (Angstroms)
    I     Atom         X            Y            Z
 ----------------------------------------------------
    1      C       0.000000     0.000000     0.000000
    2      H       0.000000     0.000000     1.119422
    3      H       1.101468     0.000000    -0.199685
 ----------------------------------------------------
 Nuclear Repulsion Energy =     5.9806103808 hartrees
 There are        4 alpha and        4 beta electrons
 Requested basis set is G3large
 There are 22 shells and 62 basis functions

Total QAlloc Memory Limit   2000 MB
Mega-Array Size       743 MB
MEM_STATIC part       760 MB
 A cutoff of  1.0D-11 yielded    253 shell pairs
 There are   2043 function pairs (  2475 Cartesian)
Evaluating contribution to one-electron hamiltonian from nuclear
 Smallest overlap matrix eigenvalue = 3.40E-03
 Multipole matrices computed through 2nd order

  Scale SEOQF with 1.000000e-01/1.000000e-01/1.000000e-01

 Standard Electronic Orientation quadrupole field applied
 Guess from superposition of atomic densities
 Warning:  Energy on first SCF cycle will be non-variational
 A restricted hybrid HF-DFT SCF calculation will be
 performed using Pulay DIIS extrapolation
 Exchange:     1.0000 Hartree-Fock + 1.0000 BNL
 Correlation:  1.0000 LYP
 Using SG-1 standard quadrature grid
 SCF converges when DIIS error is below 1.0E-08
 ---------------------------------------
  Cycle       Energy         DIIS Error
 ---------------------------------------
    1     -38.5428971297      3.34E-02
    2     -38.6376130167      4.06E-03
    3     -38.6577806807      1.75E-03
    4     -38.6641696859      1.10E-03
    5     -38.6698526878      7.27E-04
    6     -38.6733731004      3.74E-04
    7     -38.6742859814      1.71E-04
    8     -38.6744893763      6.40E-05
    9     -38.6745149831      1.17E-05
   10     -38.6745154054      2.69E-06
   11     -38.6745154227      6.70E-07
   12     -38.6745154236      1.54E-07
   13     -38.6745154237      3.64E-08
   14     -38.6745154237      6.44E-09 Convergence criterion met
 ---------------------------------------
 One-Electron    Energy =   -63.4797270539
 Total Coulomb   Energy =    24.3531437458
 Alpha Exchange  Energy =    -0.8920791928
 Beta  Exchange  Energy =    -0.8920791928
 DFT   Exchange  Energy =    -3.5116754781
 DFT Correlation Energy =    -0.2327086326
 Nuclear Repu.   Energy =     5.9806103807
 Nuclear Attr.   Energy =  -101.8983369577
 Kinetic         Energy =    38.4186099038
 SCF time:  CPU 10.07 s  wall 20.64 s
 Final Alpha MO Eigenvalues
            1           2           3           4           5           6
    1 -10.0972973  -0.8292011  -0.5405952  -0.3884822  -0.0345609   0.0330713
            7           8           9
    1   0.0657310   0.1208715   0.1273209
 Analysis of SCF Wavefunction
 
 --------------------------------------------------------------
                    Orbital Energies (a.u.)
 --------------------------------------------------------------
 
 Alpha MOs
 -- Occupied --
-10.097  -0.829  -0.541  -0.388
 -- Virtual --
 -0.035   0.033   0.066   0.121   0.127   0.146   0.169   0.231
  0.248   0.501   0.575   0.620   0.639   0.667   0.667   0.669
  0.712   0.815   1.029   1.032   1.135   1.163   1.183   1.334
  1.539   1.542   2.479   2.479   2.731   2.944   2.965   2.978
  3.023   3.061   3.072   3.222   3.238   3.289   3.435   3.473
  3.506   3.813   3.870   4.180   4.247   4.258   4.353   5.113
  5.596  23.890  27.247  27.621  27.995  40.863  40.950  41.163
 41.165  41.200
 --------------------------------------------------------------
 
          Ground-State Mulliken Net Atomic Charges

     Atom                 Charge (a.u.)
  ----------------------------------------
      1 C                    -0.209956
      2 H                     0.104977
      3 H                     0.104978
  ----------------------------------------
  Sum of atomic charges =     0.000000

 -----------------------------------------------------------------
                    Cartesian Multipole Moments
 -----------------------------------------------------------------
    Charge (ESU x 10^10)
                 0.0000
    Dipole Moment (Debye)
         X       1.5786      Y       0.0000      Z       1.3182
       Tot       2.0566
    Quadrupole Moments (Debye-Ang)
        XX      -8.3489     XY       0.0000     YY      -6.6427
        XZ      -0.8403     YZ       0.0000     ZZ      -8.0442
    Octapole Moments (Debye-Ang^2)
       XXX      -0.1369    XXY       0.0000    XYY      -0.2497
       YYY       0.0000    XXZ      -0.6097    XYZ       0.0000
       YYZ      -0.2085    XZZ      -0.4193    YZZ       0.0000
       ZZZ       0.1452
    Hexadecapole Moments (Debye-Ang^3)
      XXXX     -16.9646   XXXY       0.0000   XXYY      -4.2452
      XYYY       0.0000   YYYY      -6.8067   XXXZ      -0.9823
      XXYZ       0.0000   XYYZ      -0.1883   YYYZ       0.0000
      XXZZ      -6.1027   XYZZ       0.0000   YYZZ      -4.1770
      XZZZ      -0.6741   YZZZ       0.0000   ZZZZ     -16.3640
 -----------------------------------------------------------------
 Calculating analytic gradient of the SCF energy
 Gradient of AOints
            1           2           3
    1   1.5380360   0.0778068  -1.6158428
    2  -0.0000001   0.0000001   0.0000001
    3   1.2843030  -1.6563263   0.3720233
 Gradient of XC Energy
            1           2           3
    1  -0.1242735  -0.0028467   0.1271202
    2   0.0000000  -0.0000000  -0.0000000
    3  -0.1037420   0.1296982  -0.0259563
 Gradient of SCF Energy
            1           2           3
    1  -0.0085133   0.0032395   0.0052738
    2   0.0000000  -0.0000000  -0.0000000
    3  -0.0070791   0.0047597   0.0023194
 Max gradient component =       8.513E-03
 RMS gradient           =       4.582E-03
 Gradient time:  CPU 1.91 s  wall 9.25 s
 Geometry Optimization Parameters
   NAtoms,    NIC,     NZ,  NCons,   NDum,   NFix, NCnnct, MaxDiis
        3       9       3       0       0       0       0       0


** GEOMETRY OPTIMIZATION IN DELOCALIZED INTERNAL COORDINATES **
   Searching for a Minimum

   Optimization Cycle:   1

                       Coordinates (Angstroms)
     ATOM              X           Y           Z
    1  C           0.000000    0.000000    0.000000
    2  H           0.000000    0.000000    1.119422
    3  H           1.101468    0.000000   -0.199685
   Point Group: c1    Number of degrees of freedom:   3


   Energy is    -38.674515424


 Attempting to Generate Delocalized Internal Coordinates

  3 Hessian modes will be used to form the next step
  Hessian Eigenvalues:
     0.160000    0.316225    0.316225

 Minimum Search - Taking Simple RFO Step
 Searching for Lamda that Minimizes Along All modes
 Value Taken    Lamda =  -0.00043577
 Step Taken.  Stepsize is  0.047629

                             Maximum     Tolerance    Cnvgd?
         Gradient           0.009192      0.000300      NO
         Displacement       0.039088      0.001200      NO
         Energy change     *********      0.000001      NO


 New Cartesian Coordinates Obtained by Inverse Iteration

 Displacement from previous Coordinates is:  0.043237
 Writing REM_CC_EA            3
 ----------------------------------------------------
       Standard Nuclear Orientation (Angstroms)
    I     Atom         X            Y            Z
 ----------------------------------------------------
    1      C       0.012004     0.000000     0.010006
    2      H      -0.011680     0.000000     1.121228
    3      H       1.101144     0.000000    -0.211496
 ----------------------------------------------------
 Nuclear Repulsion Energy =     6.0181291227 hartrees
 There are        4 alpha and        4 beta electrons
 Applying Cartesian multipole field
    Component          Value
    ---------          -----
     (2,0,0)        1.00000E-11
     (0,2,0)        2.00000E-11
     (0,0,2)       -3.00000E-11
 Requested basis set is G3large
 There are 22 shells and 62 basis functions
 A cutoff of  1.0D-11 yielded    253 shell pairs
 There are   2043 function pairs (  2475 Cartesian)
Evaluating contribution to one-electron hamiltonian from nuclear
 Smallest overlap matrix eigenvalue = 3.37E-03
 Multipole matrices computed through 2nd order
 Guess MOs from SCF MO coefficient file
Reading MOs from coefficient file
Reading MOs from coefficient file
 A restricted hybrid HF-DFT SCF calculation will be
 performed using Pulay DIIS extrapolation
 Exchange:     1.0000 Hartree-Fock + 1.0000 BNL
 Correlation:  1.0000 LYP
 Using SG-1 standard quadrature grid
 SCF converges when DIIS error is below 1.0E-08
 ---------------------------------------
  Cycle       Energy         DIIS Error
 ---------------------------------------
    1     -38.6770470069      7.89E-04
    2     -38.6747681432      9.52E-05
    3     -38.6747745603      2.78E-05
    4     -38.6747751676      9.61E-06
    5     -38.6747752838      2.92E-06
    6     -38.6747752973      5.77E-07
    7     -38.6747752982      1.25E-07
    8     -38.6747752982      1.77E-08
    9     -38.6747752982      2.69E-09 Convergence criterion met
 ---------------------------------------
 One-Electron    Energy =   -63.5507654501
 Total Coulomb   Energy =    24.3916411225
 Alpha Exchange  Energy =    -0.8927232199
 Beta  Exchange  Energy =    -0.8927232199
 DFT   Exchange  Energy =    -3.5154205799
 DFT Correlation Energy =    -0.2329130735
 Nuclear Repu.   Energy =     6.0181291226
 Nuclear Attr.   Energy =  -101.9828889952
 Kinetic         Energy =    38.4321235451
 SCF time:  CPU 6.37 s  wall 11.18 s
 Final Alpha MO Eigenvalues
            1           2           3           4           5           6
    1 -10.0952605  -0.8296162  -0.5466460  -0.3851983  -0.0344135   0.0333354
            7           8           9
    1   0.0652758   0.1208880   0.1273581
 Analysis of SCF Wavefunction
 
 --------------------------------------------------------------
                    Orbital Energies (a.u.)
 --------------------------------------------------------------
 
 Alpha MOs
 -- Occupied --
-10.095  -0.830  -0.547  -0.385
 -- Virtual --
 -0.034   0.033   0.065   0.121   0.127   0.147   0.169   0.231
  0.249   0.505   0.572   0.624   0.639   0.667   0.668   0.674
  0.717   0.814   1.025   1.032   1.142   1.159   1.184   1.349
  1.540   1.551   2.471   2.473   2.733   2.945   2.966   2.975
  3.027   3.063   3.079   3.223   3.242   3.285   3.432   3.477
  3.483   3.852   3.880   4.191   4.229   4.269   4.391   5.142
  5.619  23.923  27.250  27.607  28.019  40.867  40.957  41.166
 41.167  41.205
 --------------------------------------------------------------
 
          Ground-State Mulliken Net Atomic Charges

     Atom                 Charge (a.u.)
  ----------------------------------------
      1 C                    -0.218091
      2 H                     0.109041
      3 H                     0.109050
  ----------------------------------------
  Sum of atomic charges =     0.000000

 -----------------------------------------------------------------
                    Cartesian Multipole Moments
 -----------------------------------------------------------------
    Charge (ESU x 10^10)
                 0.0000
    Dipole Moment (Debye)
         X       1.5795      Y       0.0000      Z       1.3189
       Tot       2.0578
    Quadrupole Moments (Debye-Ang)
        XX      -8.3247     XY       0.0000     YY      -6.6257
        XZ      -0.9080     YZ       0.0000     ZZ      -7.9955
    Octapole Moments (Debye-Ang^2)
       XXX      -0.3041    XXY       0.0000    XYY      -0.2820
       YYY       0.0000    XXZ      -0.7045    XYZ       0.0000
       YYZ      -0.2354    XZZ      -0.5066    YZZ       0.0000
       ZZZ       0.0279
    Hexadecapole Moments (Debye-Ang^3)
      XXXX     -16.9171   XXXY       0.0000   XXYY      -4.2313
      XYYY       0.0000   YYYY      -6.7926   XXXZ      -1.0274
      XXYZ       0.0000   XYYZ      -0.1885   YYYZ       0.0000
      XXZZ      -6.0677   XYZZ       0.0000   YYZZ      -4.1631
      XZZZ      -0.7269   YZZZ       0.0000   ZZZZ     -16.2815
 -----------------------------------------------------------------
 Calculating analytic gradient of the SCF energy
 Gradient of AOints
            1           2           3
    1   1.4870922   0.1395702  -1.6266623
    2  -0.0000000   0.0000000   0.0000000
    3   1.2417924  -1.6785472   0.4367548
 Gradient of XC Energy
            1           2           3
    1  -0.1205983  -0.0070923   0.1276906
    2   0.0000000  -0.0000000  -0.0000000
    3  -0.1006705   0.1310449  -0.0303744
 Gradient of SCF Energy
            1           2           3
    1  -0.0017834   0.0005554   0.0012280
    2   0.0000000  -0.0000000  -0.0000000
    3  -0.0014812   0.0011562   0.0003250
 Max gradient component =       1.783E-03
 RMS gradient           =       9.794E-04
 Gradient time:  CPU 1.88 s  wall 3.07 s
 Geometry Optimization Parameters
   NAtoms,    NIC,     NZ,  NCons,   NDum,   NFix, NCnnct, MaxDiis
        3       9       3       0       0       0       0       0

 Cartesian Hessian Update
 Hessian Updated using BFGS Update


** GEOMETRY OPTIMIZATION IN DELOCALIZED INTERNAL COORDINATES **
   Searching for a Minimum

   Optimization Cycle:   2

                       Coordinates (Angstroms)
     ATOM              X           Y           Z
    1  C           0.012004    0.000000    0.010006
    2  H          -0.011680    0.000000    1.121228
    3  H           1.101144    0.000000   -0.211496
   Point Group: c1    Number of degrees of freedom:   3


   Energy is    -38.674775298

 Hessian Updated using BFGS Update

  3 Hessian modes will be used to form the next step
  Hessian Eigenvalues:
     0.140164    0.290639    0.316225

 Minimum Search - Taking Simple RFO Step
 Searching for Lamda that Minimizes Along All modes
 Value Taken    Lamda =  -0.00002154
 Step Taken.  Stepsize is  0.011334

                             Maximum     Tolerance    Cnvgd?
         Gradient           0.001992      0.000300      NO
         Displacement       0.010084      0.001200      NO
         Energy change     -0.000260      0.000001      NO


 New Cartesian Coordinates Obtained by Inverse Iteration

 Displacement from previous Coordinates is:  0.009324
 Writing REM_CC_EA            3
 ----------------------------------------------------
       Standard Nuclear Orientation (Angstroms)
    I     Atom         X            Y            Z
 ----------------------------------------------------
    1      C       0.014848     0.000000     0.012379
    2      H      -0.013980     0.000000     1.121094
    3      H       1.100601     0.000000    -0.213736
 ----------------------------------------------------
 Nuclear Repulsion Energy =     6.0299398126 hartrees
 There are        4 alpha and        4 beta electrons
 Applying Cartesian multipole field
    Component          Value
    ---------          -----
     (2,0,0)        1.00000E-11
     (0,2,0)        2.00000E-11
     (0,0,2)       -3.00000E-11
 Requested basis set is G3large
 There are 22 shells and 62 basis functions
 A cutoff of  1.0D-11 yielded    253 shell pairs
 There are   2043 function pairs (  2475 Cartesian)
Evaluating contribution to one-electron hamiltonian from nuclear
 Smallest overlap matrix eigenvalue = 3.36E-03
 Multipole matrices computed through 2nd order
 Guess MOs from SCF MO coefficient file
Reading MOs from coefficient file
Reading MOs from coefficient file
 A restricted hybrid HF-DFT SCF calculation will be
 performed using Pulay DIIS extrapolation
 Exchange:     1.0000 Hartree-Fock + 1.0000 BNL
 Correlation:  1.0000 LYP
 Using SG-1 standard quadrature grid
 SCF converges when DIIS error is below 1.0E-08
 ---------------------------------------
  Cycle       Energy         DIIS Error
 ---------------------------------------
    1     -38.6753858428      2.06E-04
    2     -38.6747855389      2.43E-05
    3     -38.6747859506      6.81E-06
    4     -38.6747859872      2.31E-06
    5     -38.6747859946      7.82E-07
    6     -38.6747859955      1.55E-07
    7     -38.6747859955      3.19E-08
    8     -38.6747859955      4.52E-09 Convergence criterion met
 ---------------------------------------
 One-Electron    Energy =   -63.5728245831
 Total Coulomb   Energy =    24.4034716859
 Alpha Exchange  Energy =    -0.8929121724
 Beta  Exchange  Energy =    -0.8929121724
 DFT   Exchange  Energy =    -3.5165714829
 DFT Correlation Energy =    -0.2329770832
 Nuclear Repu.   Energy =     6.0299398125
 Nuclear Attr.   Energy =  -102.0094369656
 Kinetic         Energy =    38.4366123825
 SCF time:  CPU 5.69 s  wall 11.49 s
 Final Alpha MO Eigenvalues
            1           2           3           4           5           6
    1 -10.0946878  -0.8298936  -0.5481137  -0.3844748  -0.0343862   0.0333964
            7           8           9
    1   0.0651761   0.1208877   0.1273644
 Analysis of SCF Wavefunction
 
 --------------------------------------------------------------
                    Orbital Energies (a.u.)
 --------------------------------------------------------------
 
 Alpha MOs
 -- Occupied --
-10.095  -0.830  -0.548  -0.384
 -- Virtual --
 -0.034   0.033   0.065   0.121   0.127   0.147   0.169   0.231
  0.250   0.506   0.572   0.625   0.639   0.667   0.668   0.676
  0.718   0.813   1.025   1.032   1.143   1.158   1.184   1.352
  1.541   1.554   2.469   2.472   2.733   2.945   2.967   2.975
  3.028   3.064   3.080   3.222   3.245   3.284   3.432   3.477
  3.478   3.862   3.884   4.195   4.226   4.272   4.400   5.150
  5.626  23.932  27.250  27.604  28.025  40.868  40.960  41.167
 41.167  41.206
 --------------------------------------------------------------
 
          Ground-State Mulliken Net Atomic Charges

     Atom                 Charge (a.u.)
  ----------------------------------------
      1 C                    -0.220164
      2 H                     0.110077
      3 H                     0.110087
  ----------------------------------------
  Sum of atomic charges =     0.000000

 -----------------------------------------------------------------
                    Cartesian Multipole Moments
 -----------------------------------------------------------------
    Charge (ESU x 10^10)
                 0.0000
    Dipole Moment (Debye)
         X       1.5802      Y       0.0000      Z       1.3194
       Tot       2.0586
    Quadrupole Moments (Debye-Ang)
        XX      -8.3182     XY       0.0000     YY      -6.6206
        XZ      -0.9218     YZ       0.0000     ZZ      -7.9840
    Octapole Moments (Debye-Ang^2)
       XXX      -0.3435    XXY       0.0000    XYY      -0.2888
       YYY       0.0000    XXZ      -0.7254    XYZ       0.0000
       YYZ      -0.2412    XZZ      -0.5263    YZZ       0.0000
       ZZZ      -0.0005
    Hexadecapole Moments (Debye-Ang^3)
      XXXX     -16.8996   XXXY       0.0000   XXYY      -4.2260
      XYYY       0.0000   YYYY      -6.7880   XXXZ      -1.0386
      XXYZ       0.0000   XYYZ      -0.1891   YYYZ       0.0000
      XXZZ      -6.0564   XYZZ       0.0000   YYZZ      -4.1576
      XZZZ      -0.7402   YZZZ       0.0000   ZZZZ     -16.2553
 -----------------------------------------------------------------
 Calculating analytic gradient of the SCF energy
 Gradient of AOints
            1           2           3
    1   1.4762108   0.1528301  -1.6290410
    2  -0.0000000   0.0000000   0.0000000
    3   1.2327091  -1.6833735   0.4506643
 Gradient of XC Energy
            1           2           3
    1  -0.1198330  -0.0080106   0.1278437
    2   0.0000000  -0.0000000  -0.0000000
    3  -0.1000312   0.1313665  -0.0313353
 Gradient of SCF Energy
            1           2           3
    1   0.0000357   0.0000349  -0.0000706
    2  -0.0000000  -0.0000000   0.0000000
    3   0.0000352  -0.0000669   0.0000316
 Max gradient component =       7.058E-05
 RMS gradient           =       3.971E-05
 Gradient time:  CPU 1.88 s  wall 2.71 s
 Geometry Optimization Parameters
   NAtoms,    NIC,     NZ,  NCons,   NDum,   NFix, NCnnct, MaxDiis
        3       9       3       0       0       0       0       0

 Cartesian Hessian Update
 Hessian Updated using BFGS Update


** GEOMETRY OPTIMIZATION IN DELOCALIZED INTERNAL COORDINATES **
   Searching for a Minimum

   Optimization Cycle:   3

                       Coordinates (Angstroms)
     ATOM              X           Y           Z
    1  C           0.014848    0.000000    0.012379
    2  H          -0.013980    0.000000    1.121094
    3  H           1.100601    0.000000   -0.213736
   Point Group: c1    Number of degrees of freedom:   3


   Energy is    -38.674785996

 Hessian Updated using BFGS Update

  3 Hessian modes will be used to form the next step
  Hessian Eigenvalues:
     0.134721    0.304644    0.316225

 Minimum Search - Taking Simple RFO Step
 Searching for Lamda that Minimizes Along All modes
 Value Taken    Lamda =   0.00000000
 Step Taken.  Stepsize is  0.000452

                             Maximum     Tolerance    Cnvgd?
         Gradient           0.000094      0.000300     YES
         Displacement       0.000437      0.001200     YES
         Energy change     -0.000011      0.000001      NO


                       Distance Matrix (Angstroms)
             C (  1)   H (  2)
   H (  2)  1.109090
   H (  3)  1.109048  1.738983
 


 ******************************
 **  OPTIMIZATION CONVERGED  **
 ******************************
 Analysis of SCF Wavefunction
 
 --------------------------------------------------------------
                    Orbital Energies (a.u.)
 --------------------------------------------------------------
 
 Alpha MOs
 -- Occupied --
-10.095  -0.830  -0.548  -0.384
 -- Virtual --
 -0.034   0.033   0.065   0.121   0.127   0.147   0.169   0.231
  0.250   0.506   0.572   0.625   0.639   0.667   0.668   0.676
  0.718   0.813   1.025   1.032   1.143   1.158   1.184   1.352
  1.541   1.554   2.469   2.472   2.733   2.945   2.967   2.975
  3.028   3.064   3.080   3.222   3.245   3.284   3.432   3.477
  3.478   3.862   3.884   4.195   4.226   4.272   4.400   5.150
  5.626  23.932  27.250  27.604  28.025  40.868  40.960  41.167
 41.167  41.206
 --------------------------------------------------------------
 
          Ground-State Mulliken Net Atomic Charges

     Atom                 Charge (a.u.)
  ----------------------------------------
      1 C                    -0.220164
      2 H                     0.110077
      3 H                     0.110087
  ----------------------------------------
  Sum of atomic charges =     0.000000

 -----------------------------------------------------------------
                    Cartesian Multipole Moments
 -----------------------------------------------------------------
    Charge (ESU x 10^10)
                 0.0000
    Dipole Moment (Debye)
         X       1.5802      Y       0.0000      Z       1.3194
       Tot       2.0586
    Quadrupole Moments (Debye-Ang)
        XX      -8.3182     XY       0.0000     YY      -6.6206
        XZ      -0.9218     YZ       0.0000     ZZ      -7.9840
    Octapole Moments (Debye-Ang^2)
       XXX      -0.3435    XXY       0.0000    XYY      -0.2888
       YYY       0.0000    XXZ      -0.7254    XYZ       0.0000
       YYZ      -0.2412    XZZ      -0.5263    YZZ       0.0000
       ZZZ      -0.0005
    Hexadecapole Moments (Debye-Ang^3)
      XXXX     -16.8996   XXXY       0.0000   XXYY      -4.2260
      XYYY       0.0000   YYYY      -6.7880   XXXZ      -1.0386
      XXYZ       0.0000   XYYZ      -0.1891   YYYZ       0.0000
      XXZZ      -6.0564   XYZZ       0.0000   YYZZ      -4.1576
      XZZZ      -0.7402   YZZZ       0.0000   ZZZZ     -16.2553
 -----------------------------------------------------------------
 Total job time:  58.94s(wall), 27.98s(cpu) 
 Sun Apr 17 19:54:45 2011

        *************************************************************
        *                                                           *
        *  Thank you very much for using Q-Chem.  Have a nice day.  *
        *                                                           *
        *************************************************************


0 sent ACK to 0 
now end server 0 ... 
 
**********************************************************************
Job 2 of 2 
**********************************************************************
 
Process 0 of 1 is on cl232.stfx.acenet.ca - thread support 1
initial socket setup ...start
initial socket setup ...done 
now start server 0 ... 

cmd = /usr/bin/ssh clhead /usr/local/qchem/bin/get_hostid 566078984 > /scratch/tmp/4503869.1.medium.q/qchem6426/lic.dat
                  Welcome to Q-Chem
     A Quantum Leap Into The Future Of Chemistry

 Y. Shao, L. Fusti-Molnar, Y. Jung, J. Kussmann, C. Ochsenfeld,
 S. T. Brown, A. T. B. Gilbert, L. V. Slipchenko,S. V. Levchenko,
 D. P. O'Neill, R. A. DiStasio Jr., R. C. Lochan, T. Wang,
 G. J. O. Beran, N. A. Besley, J. M. Herbert, C. Y. Lin,
 T. Van Voorhis, S. H. Chien, A. Sodt, R. P. Steele, 
 V. A. Rassolov, P. E. Maslen, P. P. Korambath, R. D. Adamson,
 B. Austin, J. Baker, E. F. C. Byrd, H. Dachsel, R. J. Doerksen,
 A. Dreuw, B. D. Dunietz, A. D. Dutoi, T. R. Furlani,
 S. R. Gwaltney, A. Heyden, S. Hirata, C.-P. Hsu, G. Kedziora,
 R. Z. Khaliullin, P. Klunzinger, A. M. Lee, M. S. Lee, W. Liang,
 I. Lotan, N. Nair, B. Peters, E. I. Proynov, P. A. Pieniazek, 
 Y. M. Rhee, J. Ritchie, E. Rosta, C. D. Sherrill, 
 A. C. Simmonett, J. E. Subotnik, H. L. Woodcock III,
 W. Zhang, A. T. Bell, A. K. Chakraborty, D. M. Chipman,
 F. J. Keil, A. Warshel, W. J. Hehre, H. F. Schaefer III,
 J. Kong, A. I. Krylov, P. M. W. Gill, M. Head-Gordon,
 Q-Chem, Version 3.1, Q-Chem, Inc., Pittsburgh, PA (2007).

 Additional authors for Version 3.1: 
 Z. Gan, Y. Zhao, N. E. Schultz, D. Truhlar, E. Epifanovsky and M. Oana.

 Additional authors for Version 3.2: 
 R. Baer, B. R. Brooks, D. Casanova, J.-D. Chai, C.-L. Cheng, 
 C. Cramer, D. Crittenden, A. Ghysels, G. Hawkins, E. G. Hohenstein, 
 C. Kelley, W. Kurlancheek, D. Liotard, E. Livshits, P. Manohar, 
 A. Marenich, D. Neuhauser, R. Olson, M. A. Rohrdanz, K. S. Thanthiriwatte, 
 A. J. W. Thom, V. Vanovschi, C. F. Williams, Q. Wu and Z.-Q. You. 


 Intel X86 Linux Version

 Q-chem begins on Sun Apr 17 19:54:49 2011  

 Parallel job on  1  processors
Processing $rem in /usr/local/qchem/config/preferences.

theFileMan(): MAXOPENFILES=974 MAX_SUB_FILE_NUM=16
Maximum size of a physical file is 2.0 GB, maximum size of a tmp-file is 32.0 GB


--------------------------------------------------------------
User input:
--------------------------------------------------------------

$molecule 
READ 
$end 

$xc_functional
   X HF 1.0
   X BNL 1.0
   C LYP 1.0
$end

$rem
SYMMETRY_DECOMPOSITION	0
exchange 		general
BASIS                   g3large
omega			480 
JOBTYPE                 freq
IDERIV 0
SCF_GUESS READ
separate_jk		true
mem_static              760
max_scf_cycles          200
scf_final_print         1
sym_ignore              true
$end

--------------------------------------------------------------
 Writing REM_CC_EA            3
 ----------------------------------------------------
       Standard Nuclear Orientation (Angstroms)
    I     Atom         X            Y            Z
 ----------------------------------------------------
    1      C       0.014848     0.000000     0.012379
    2      H      -0.013980     0.000000     1.121094
    3      H       1.100601     0.000000    -0.213736
 ----------------------------------------------------
 Nuclear Repulsion Energy =     6.0299398126 hartrees
 There are        4 alpha and        4 beta electrons
 Requested basis set is G3large
 There are 22 shells and 62 basis functions

Total QAlloc Memory Limit   2000 MB
Mega-Array Size       759 MB
MEM_STATIC part       760 MB

                       Distance Matrix (Angstroms)
             C (  1)   H (  2)
   H (  2)  1.109090
   H (  3)  1.109048  1.738983
 
 A cutoff of  1.0D-11 yielded    253 shell pairs
 There are   2043 function pairs (  2475 Cartesian)
Evaluating contribution to one-electron hamiltonian from nuclear
 Smallest overlap matrix eigenvalue = 3.36E-03
 Multipole matrices computed through 2nd order
 Guess MOs from SCF MO coefficient file
Reading MOs from coefficient file
Reading MOs from coefficient file
 A restricted hybrid HF-DFT SCF calculation will be
 performed using Pulay DIIS extrapolation
 Exchange:     1.0000 Hartree-Fock + 1.0000 BNL
 Correlation:  1.0000 LYP
 Using SG-1 standard quadrature grid
 SCF converges when DIIS error is below 1.0E-08
 ---------------------------------------
  Cycle       Energy         DIIS Error
 ---------------------------------------
    1     -38.6747859955      7.91E-10
    2     -38.6747859955      2.52E-10 Convergence criterion met
 ---------------------------------------
 One-Electron    Energy =   -63.5728246559
 Total Coulomb   Energy =    24.4034717785
 Alpha Exchange  Energy =    -0.8929121778
 Beta  Exchange  Energy =    -0.8929121778
 DFT   Exchange  Energy =    -3.5165714912
 DFT Correlation Energy =    -0.2329770837
 Nuclear Repu.   Energy =     6.0299398126
 Nuclear Attr.   Energy =  -102.0094370164
 Kinetic         Energy =    38.4366123605
 SCF time:  CPU 1.39 s  wall 3.28 s
 Final Alpha MO Eigenvalues
            1           2           3           4           5           6
    1 -10.0946878  -0.8298936  -0.5481137  -0.3844748  -0.0343862   0.0333964
            7           8           9
    1   0.0651761   0.1208877   0.1273644
 Analysis of SCF Wavefunction
 
 --------------------------------------------------------------
                    Orbital Energies (a.u.)
 --------------------------------------------------------------
 
 Alpha MOs
 -- Occupied --
-10.095  -0.830  -0.548  -0.384
 -- Virtual --
 -0.034   0.033   0.065   0.121   0.127   0.147   0.169   0.231
  0.250   0.506   0.572   0.625   0.639   0.667   0.668   0.676
  0.718   0.813   1.025   1.032   1.143   1.158   1.184   1.352
  1.541   1.554   2.469   2.472   2.733   2.945   2.967   2.975
  3.028   3.064   3.080   3.222   3.245   3.284   3.432   3.477
  3.478   3.862   3.884   4.195   4.226   4.272   4.400   5.150
  5.626  23.932  27.250  27.604  28.025  40.868  40.960  41.167
 41.167  41.206
 --------------------------------------------------------------
 
          Ground-State Mulliken Net Atomic Charges

     Atom                 Charge (a.u.)
  ----------------------------------------
      1 C                    -0.220164
      2 H                     0.110077
      3 H                     0.110087
  ----------------------------------------
  Sum of atomic charges =     0.000000

 -----------------------------------------------------------------
                    Cartesian Multipole Moments
 -----------------------------------------------------------------
    Charge (ESU x 10^10)
                 0.0000
    Dipole Moment (Debye)
         X       1.5802      Y       0.0000      Z       1.3194
       Tot       2.0586
    Quadrupole Moments (Debye-Ang)
        XX      -8.3182     XY       0.0000     YY      -6.6206
        XZ      -0.9217     YZ       0.0000     ZZ      -7.9840
    Octapole Moments (Debye-Ang^2)
       XXX      -0.3435    XXY       0.0000    XYY      -0.2888
       YYY       0.0000    XXZ      -0.7254    XYZ       0.0000
       YYZ      -0.2412    XZZ      -0.5263    YZZ       0.0000
       ZZZ      -0.0005
    Hexadecapole Moments (Debye-Ang^3)
      XXXX     -16.8996   XXXY       0.0000   XXYY      -4.2260
      XYYY       0.0000   YYYY      -6.7880   XXXZ      -1.0386
      XXYZ       0.0000   XYYZ      -0.1891   YYYZ       0.0000
      XXZZ      -6.0564   XYZZ       0.0000   YYZZ      -4.1576
      XZZZ      -0.7402   YZZZ       0.0000   ZZZZ     -16.2553
 -----------------------------------------------------------------
 No analytic derivatives required
 ######################################################
 ######################################################
 # Starting finite difference calculation for IDERIV  #
 Finite diff step size: 1.89e-03 a.u.
 Writing REM_CC_EA            3
 ----------------------------------------------------
       Standard Nuclear Orientation (Angstroms)
    I     Atom         X            Y            Z
 ----------------------------------------------------
    1      C       0.016848     0.000000     0.012379
    2      H      -0.013980     0.000000     1.121094
    3      H       1.100601     0.000000    -0.213736
 ----------------------------------------------------
 Nuclear Repulsion Energy =     6.0348640473 hartrees
 There are        4 alpha and        4 beta electrons

                       Distance Matrix (Angstroms)
             C (  1)   H (  2)
   H (  2)  1.109144
   H (  3)  1.107090  1.738983
 
 Requested basis set is G3large
 There are 22 shells and 62 basis functions
 A cutoff of  1.0D-11 yielded    253 shell pairs
 There are   2043 function pairs (  2475 Cartesian)
Evaluating contribution to one-electron hamiltonian from nuclear
 Smallest overlap matrix eigenvalue = 3.36E-03
 Multipole matrices computed through 2nd order
 Guess MOs from SCF MO coefficient file
Reading MOs from coefficient file
Reading MOs from coefficient file
 A restricted hybrid HF-DFT SCF calculation will be
 performed using Pulay DIIS extrapolation
 Exchange:     1.0000 Hartree-Fock + 1.0000 BNL
 Correlation:  1.0000 LYP
 Using SG-1 standard quadrature grid
 SCF converges when DIIS error is below 1.0E-08
 ---------------------------------------
  Cycle       Energy         DIIS Error
 ---------------------------------------
    1     -38.6750133957      1.03E-04
    2     -38.6747833651      1.28E-05
    3     -38.6747834720      3.31E-06
    4     -38.6747834785      8.88E-07
    5     -38.6747834798      2.89E-07
    6     -38.6747834799      7.05E-08
    7     -38.6747834799      1.49E-08
    8     -38.6747834799      2.64E-09 Convergence criterion met
 ---------------------------------------
 One-Electron    Energy =   -63.5819345086
 Total Coulomb   Energy =    24.4083092513
 Alpha Exchange  Energy =    -0.8929873091
 Beta  Exchange  Energy =    -0.8929873091
 DFT   Exchange  Energy =    -3.5170440251
 DFT Correlation Energy =    -0.2330036266
 Nuclear Repu.   Energy =     6.0348640473
 Nuclear Attr.   Energy =  -102.0205273876
 Kinetic         Energy =    38.4385928790
 SCF time:  CPU 5.67 s  wall 10.02 s
 Final Alpha MO Eigenvalues
            1           2           3           4           5           6
    1 -10.0944755  -0.8300725  -0.5485449  -0.3843031  -0.0343818   0.0334123
            7           8           9
    1   0.0651529   0.1208864   0.1273654
 Analysis of SCF Wavefunction
 
 --------------------------------------------------------------
                    Orbital Energies (a.u.)
 --------------------------------------------------------------
 
 Alpha MOs
 -- Occupied --
-10.094  -0.830  -0.549  -0.384
 -- Virtual --
 -0.034   0.033   0.065   0.121   0.127   0.147   0.169   0.231
  0.250   0.506   0.572   0.625   0.639   0.667   0.668   0.676
  0.718   0.813   1.025   1.032   1.144   1.158   1.184   1.353
  1.541   1.555   2.467   2.471   2.733   2.945   2.967   2.975
  3.028   3.064   3.081   3.223   3.246   3.283   3.431   3.476
  3.478   3.865   3.885   4.196   4.227   4.273   4.403   5.153
  5.629  23.936  27.251  27.604  28.027  40.868  40.960  41.167
 41.168  41.207
 --------------------------------------------------------------
 
          Ground-State Mulliken Net Atomic Charges

     Atom                 Charge (a.u.)
  ----------------------------------------
      1 C                    -0.220813
      2 H                     0.110169
      3 H                     0.110644
  ----------------------------------------
  Sum of atomic charges =     0.000000

 -----------------------------------------------------------------
                    Cartesian Multipole Moments
 -----------------------------------------------------------------
    Charge (ESU x 10^10)
                 0.0000
    Dipole Moment (Debye)
         X       1.5806      Y       0.0000      Z       1.3201
       Tot       2.0593
    Quadrupole Moments (Debye-Ang)
        XX      -8.3115     XY       0.0000     YY      -6.6186
        XZ      -0.9239     YZ       0.0000     ZZ      -7.9830
    Octapole Moments (Debye-Ang^2)
       XXX      -0.3787    XXY       0.0000    XYY      -0.2957
       YYY       0.0000    XXZ      -0.7283    XYZ       0.0000
       YYZ      -0.2410    XZZ      -0.5387    YZZ       0.0000
       ZZZ       0.0015
    Hexadecapole Moments (Debye-Ang^3)
      XXXX     -16.8758   XXXY       0.0000   XXYY      -4.2204
      XYYY       0.0000   YYYY      -6.7859   XXXZ      -1.0431
      XXYZ       0.0000   XYYZ      -0.1903   YYYZ       0.0000
      XXZZ      -6.0526   XYZZ       0.0000   YYZZ      -4.1579
      XZZZ      -0.7464   YZZZ       0.0000   ZZZZ     -16.2575
 -----------------------------------------------------------------
 Writing REM_CC_EA            3
 ----------------------------------------------------
       Standard Nuclear Orientation (Angstroms)
    I     Atom         X            Y            Z
 ----------------------------------------------------
    1      C       0.014848     0.000000     0.012379
    2      H      -0.013980     0.000000     1.121094
    3      H       1.100601     0.000000    -0.213736
 ----------------------------------------------------
 Nuclear Repulsion Energy =     6.0299398126 hartrees
 There are        4 alpha and        4 beta electrons

                       Distance Matrix (Angstroms)
             C (  1)   H (  2)
   H (  2)  1.109090
   H (  3)  1.109048  1.738983
 
 Requested basis set is G3large
 There are 22 shells and 62 basis functions
 A cutoff of  1.0D-11 yielded    253 shell pairs
 There are   2043 function pairs (  2475 Cartesian)
Evaluating contribution to one-electron hamiltonian from nuclear
 Smallest overlap matrix eigenvalue = 3.36E-03
 Multipole matrices computed through 2nd order
 Guess MOs from SCF MO coefficient file
Reading MOs from coefficient file
Reading MOs from coefficient file
 A restricted hybrid HF-DFT SCF calculation will be
 performed using Pulay DIIS extrapolation
 Exchange:     1.0000 Hartree-Fock + 1.0000 BNL
 Correlation:  1.0000 LYP
 Using SG-1 standard quadrature grid
 SCF converges when DIIS error is below 1.0E-08
 ---------------------------------------
  Cycle       Energy         DIIS Error
 ---------------------------------------
    1     -38.6745600880      1.03E-04
    2     -38.6747858807      1.28E-05
    3     -38.6747859876      3.31E-06
    4     -38.6747859942      8.87E-07
    5     -38.6747859954      2.88E-07
    6     -38.6747859955      7.05E-08
    7     -38.6747859956      1.49E-08
    8     -38.6747859956      2.64E-09 Convergence criterion met
 ---------------------------------------
 One-Electron    Energy =   -63.5728246676
 Total Coulomb   Energy =    24.4034717952
 Alpha Exchange  Energy =    -0.8929121804
 Beta  Exchange  Energy =    -0.8929121804
 DFT   Exchange  Energy =    -3.5165714912
 DFT Correlation Energy =    -0.2329770837
 Nuclear Repu.   Energy =     6.0299398126
 Nuclear Attr.   Energy =  -102.0094369555
 Kinetic         Energy =    38.4366122879
 SCF time:  CPU 5.65 s  wall 8.29 s
 Final Alpha MO Eigenvalues
            1           2           3           4           5           6
    1 -10.0946878  -0.8298936  -0.5481137  -0.3844748  -0.0343862   0.0333964
            7           8           9
    1   0.0651761   0.1208877   0.1273644
 Analysis of SCF Wavefunction
 
 --------------------------------------------------------------
                    Orbital Energies (a.u.)
 --------------------------------------------------------------
 
 Alpha MOs
 -- Occupied --
-10.095  -0.830  -0.548  -0.384
 -- Virtual --
 -0.034   0.033   0.065   0.121   0.127   0.147   0.169   0.231
  0.250   0.506   0.572   0.625   0.639   0.667   0.668   0.676
  0.718   0.813   1.025   1.032   1.143   1.158   1.184   1.352
  1.541   1.554   2.469   2.472   2.733   2.945   2.967   2.975
  3.028   3.064   3.080   3.222   3.245   3.284   3.432   3.477
  3.478   3.862   3.884   4.195   4.226   4.272   4.400   5.150
  5.626  23.932  27.250  27.604  28.025  40.868  40.960  41.167
 41.167  41.206
 --------------------------------------------------------------
 
          Ground-State Mulliken Net Atomic Charges

     Atom                 Charge (a.u.)
  ----------------------------------------
      1 C                    -0.220164
      2 H                     0.110077
      3 H                     0.110087
  ----------------------------------------
  Sum of atomic charges =     0.000000

 -----------------------------------------------------------------
                    Cartesian Multipole Moments
 -----------------------------------------------------------------
    Charge (ESU x 10^10)
                 0.0000
    Dipole Moment (Debye)
         X       1.5802      Y       0.0000      Z       1.3194
       Tot       2.0586
    Quadrupole Moments (Debye-Ang)
        XX      -8.3182     XY       0.0000     YY      -6.6206
        XZ      -0.9217     YZ       0.0000     ZZ      -7.9840
    Octapole Moments (Debye-Ang^2)
       XXX      -0.3435    XXY       0.0000    XYY      -0.2888
       YYY       0.0000    XXZ      -0.7254    XYZ       0.0000
       YYZ      -0.2412    XZZ      -0.5263    YZZ       0.0000
       ZZZ      -0.0005
    Hexadecapole Moments (Debye-Ang^3)
      XXXX     -16.8996   XXXY       0.0000   XXYY      -4.2260
      XYYY       0.0000   YYYY      -6.7880   XXXZ      -1.0386
      XXYZ       0.0000   XYYZ      -0.1891   YYYZ       0.0000
      XXZZ      -6.0564   XYZZ       0.0000   YYZZ      -4.1576
      XZZZ      -0.7402   YZZZ       0.0000   ZZZZ     -16.2553
 -----------------------------------------------------------------
 Writing REM_CC_EA            3
 ----------------------------------------------------
       Standard Nuclear Orientation (Angstroms)
    I     Atom         X            Y            Z
 ----------------------------------------------------
    1      C       0.015848     0.001000     0.012379
    2      H      -0.013980     0.000000     1.121094
    3      H       1.100601     0.000000    -0.213736
 ----------------------------------------------------
 Nuclear Repulsion Energy =     6.0323985726 hartrees
 There are        4 alpha and        4 beta electrons

                       Distance Matrix (Angstroms)
             C (  1)   H (  2)
   H (  2)  1.109117
   H (  3)  1.108069  1.738983
 
 Requested basis set is G3large
 There are 22 shells and 62 basis functions
 A cutoff of  1.0D-11 yielded    253 shell pairs
 There are   2043 function pairs (  2475 Cartesian)
Evaluating contribution to one-electron hamiltonian from nuclear
 Smallest overlap matrix eigenvalue = 3.36E-03
 Multipole matrices computed through 2nd order
 Guess MOs from SCF MO coefficient file
Reading MOs from coefficient file
Reading MOs from coefficient file
 A restricted hybrid HF-DFT SCF calculation will be
 performed using Pulay DIIS extrapolation
 Exchange:     1.0000 Hartree-Fock + 1.0000 BNL
 Correlation:  1.0000 LYP
 Using SG-1 standard quadrature grid
 SCF converges when DIIS error is below 1.0E-08
 ---------------------------------------
  Cycle       Energy         DIIS Error
 ---------------------------------------
    1     -38.6748998014      5.45E-05
    2     -38.6747851737      7.48E-06
    3     -38.6747852519      3.37E-06
    4     -38.6747852813      2.31E-06
    5     -38.6747853184      1.30E-06
    6     -38.6747853322      5.79E-07
    7     -38.6747853348      9.72E-08
    8     -38.6747853348      2.00E-08
    9     -38.6747853348      4.83E-09 Convergence criterion met
 ---------------------------------------
 One-Electron    Energy =   -63.5773746779
 Total Coulomb   Energy =    24.4058880418
 Alpha Exchange  Energy =    -0.8929497366
 Beta  Exchange  Energy =    -0.8929497366
 DFT   Exchange  Energy =    -3.5168074538
 DFT Correlation Energy =    -0.2329903442
 Nuclear Repu.   Energy =     6.0323985726
 Nuclear Attr.   Energy =  -102.0149751795
 Kinetic         Energy =    38.4376005016
 SCF time:  CPU 6.54 s  wall 10.04 s
 Final Alpha MO Eigenvalues
            1           2           3           4           5           6
    1 -10.0945817  -0.8299829  -0.5483292  -0.3843890  -0.0343840   0.0334044
            7           8           9
    1   0.0651645   0.1208871   0.1273649
 Analysis of SCF Wavefunction
 
 --------------------------------------------------------------
                    Orbital Energies (a.u.)
 --------------------------------------------------------------
 
 Alpha MOs
 -- Occupied --
-10.095  -0.830  -0.548  -0.384
 -- Virtual --
 -0.034   0.033   0.065   0.121   0.127   0.147   0.169   0.231
  0.250   0.506   0.572   0.625   0.639   0.667   0.668   0.676
  0.718   0.813   1.025   1.032   1.143   1.158   1.184   1.353
  1.541   1.554   2.468   2.471   2.733   2.945   2.967   2.975
  3.028   3.064   3.081   3.223   3.246   3.284   3.431   3.477
  3.477   3.863   3.884   4.195   4.227   4.273   4.401   5.151
  5.628  23.934  27.251  27.604  28.026  40.868  40.960  41.167
 41.167  41.207
 --------------------------------------------------------------
 
          Ground-State Mulliken Net Atomic Charges

     Atom                 Charge (a.u.)
  ----------------------------------------
      1 C                    -0.220488
      2 H                     0.110123
      3 H                     0.110365
  ----------------------------------------
  Sum of atomic charges =     0.000000

 -----------------------------------------------------------------
                    Cartesian Multipole Moments
 -----------------------------------------------------------------
    Charge (ESU x 10^10)
                 0.0000
    Dipole Moment (Debye)
         X       1.5804      Y      -0.0030      Z       1.3198
       Tot       2.0590
    Quadrupole Moments (Debye-Ang)
        XX      -8.3148     XY       0.0044     YY      -6.6196
        XZ      -0.9228     YZ       0.0037     ZZ      -7.9835
    Octapole Moments (Debye-Ang^2)
       XXX      -0.3611    XXY      -0.0081    XYY      -0.2922
       YYY      -0.0188    XXZ      -0.7269    XYZ      -0.0002
       YYZ      -0.2411    XZZ      -0.5325    YZZ      -0.0081
       ZZZ       0.0005
    Hexadecapole Moments (Debye-Ang^3)
      XXXX     -16.8877   XXXY       0.0053   XXYY      -4.2232
      XYYY       0.0062   YYYY      -6.7870   XXXZ      -1.0408
      XXYZ       0.0017   XYYZ      -0.1897   YYYZ       0.0052
      XXZZ      -6.0545   XYZZ       0.0019   YYZZ      -4.1578
      XZZZ      -0.7433   YZZZ       0.0044   ZZZZ     -16.2564
 -----------------------------------------------------------------
 Writing REM_CC_EA            3
 ----------------------------------------------------
       Standard Nuclear Orientation (Angstroms)
    I     Atom         X            Y            Z
 ----------------------------------------------------
    1      C       0.015848    -0.001000     0.012379
    2      H      -0.013980     0.000000     1.121094
    3      H       1.100601     0.000000    -0.213736
 ----------------------------------------------------
 Nuclear Repulsion Energy =     6.0323985726 hartrees
 There are        4 alpha and        4 beta electrons

                       Distance Matrix (Angstroms)
             C (  1)   H (  2)
   H (  2)  1.109117
   H (  3)  1.108069  1.738983
 
 Requested basis set is G3large
 There are 22 shells and 62 basis functions
 A cutoff of  1.0D-11 yielded    253 shell pairs
 There are   2043 function pairs (  2475 Cartesian)
Evaluating contribution to one-electron hamiltonian from nuclear
 Smallest overlap matrix eigenvalue = 3.36E-03
 Multipole matrices computed through 2nd order
 Guess MOs from SCF MO coefficient file
Reading MOs from coefficient file
Reading MOs from coefficient file
 A restricted hybrid HF-DFT SCF calculation will be
 performed using Pulay DIIS extrapolation
 Exchange:     1.0000 Hartree-Fock + 1.0000 BNL
 Correlation:  1.0000 LYP
 Using SG-1 standard quadrature grid
 SCF converges when DIIS error is below 1.0E-08
 ---------------------------------------
  Cycle       Energy         DIIS Error
 ---------------------------------------
    1     -38.6747830491      3.49E-05
    2     -38.6747848048      7.78E-06
    3     -38.6747850203      5.81E-06
    4     -38.6747851660      3.98E-06
    5     -38.6747853257      1.10E-06
    6     -38.6747853348      8.59E-08
    7     -38.6747853348      1.96E-08
    8     -38.6747853348      4.81E-09 Convergence criterion met
 ---------------------------------------
 One-Electron    Energy =   -63.5773750101
 Total Coulomb   Energy =    24.4058884243
 Alpha Exchange  Energy =    -0.8929497391
 Beta  Exchange  Energy =    -0.8929497391
 DFT   Exchange  Energy =    -3.5168074971
 DFT Correlation Energy =    -0.2329903462
 Nuclear Repu.   Energy =     6.0323985726
 Nuclear Attr.   Energy =  -102.0149759872
 Kinetic         Energy =    38.4376009771
 SCF time:  CPU 5.83 s  wall 9.21 s
 Final Alpha MO Eigenvalues
            1           2           3           4           5           6
    1 -10.0945817  -0.8299829  -0.5483292  -0.3843890  -0.0343840   0.0334044
            7           8           9
    1   0.0651645   0.1208871   0.1273649
 Analysis of SCF Wavefunction
 
 --------------------------------------------------------------
                    Orbital Energies (a.u.)
 --------------------------------------------------------------
 
 Alpha MOs
 -- Occupied --
-10.095  -0.830  -0.548  -0.384
 -- Virtual --
 -0.034   0.033   0.065   0.121   0.127   0.147   0.169   0.231
  0.250   0.506   0.572   0.625   0.639   0.667   0.668   0.676
  0.718   0.813   1.025   1.032   1.143   1.158   1.184   1.353
  1.541   1.554   2.468   2.471   2.733   2.945   2.967   2.975
  3.028   3.064   3.081   3.223   3.246   3.284   3.431   3.477
  3.477   3.863   3.884   4.195   4.227   4.273   4.401   5.151
  5.628  23.934  27.251  27.604  28.026  40.868  40.960  41.167
 41.167  41.207
 --------------------------------------------------------------
 
          Ground-State Mulliken Net Atomic Charges

     Atom                 Charge (a.u.)
  ----------------------------------------
      1 C                    -0.220488
      2 H                     0.110123
      3 H                     0.110365
  ----------------------------------------
  Sum of atomic charges =     0.000000

 -----------------------------------------------------------------
                    Cartesian Multipole Moments
 -----------------------------------------------------------------
    Charge (ESU x 10^10)
                 0.0000
    Dipole Moment (Debye)
         X       1.5804      Y       0.0030      Z       1.3197
       Tot       2.0590
    Quadrupole Moments (Debye-Ang)
        XX      -8.3148     XY      -0.0044     YY      -6.6196
        XZ      -0.9228     YZ      -0.0037     ZZ      -7.9835
    Octapole Moments (Debye-Ang^2)
       XXX      -0.3611    XXY       0.0081    XYY      -0.2922
       YYY       0.0188    XXZ      -0.7269    XYZ       0.0002
       YYZ      -0.2411    XZZ      -0.5325    YZZ       0.0081
       ZZZ       0.0005
    Hexadecapole Moments (Debye-Ang^3)
      XXXX     -16.8877   XXXY      -0.0053   XXYY      -4.2232
      XYYY      -0.0062   YYYY      -6.7870   XXXZ      -1.0408
      XXYZ      -0.0017   XYYZ      -0.1897   YYYZ      -0.0052
      XXZZ      -6.0545   XYZZ      -0.0019   YYZZ      -4.1578
      XZZZ      -0.7433   YZZZ      -0.0044   ZZZZ     -16.2564
 -----------------------------------------------------------------
 Writing REM_CC_EA            3
 ----------------------------------------------------
       Standard Nuclear Orientation (Angstroms)
    I     Atom         X            Y            Z
 ----------------------------------------------------
    1      C       0.015848     0.000000     0.013379
    2      H      -0.013980     0.000000     1.121094
    3      H       1.100601     0.000000    -0.213736
 ----------------------------------------------------
 Nuclear Repulsion Energy =     6.0344546406 hartrees
 There are        4 alpha and        4 beta electrons

                       Distance Matrix (Angstroms)
             C (  1)   H (  2)
   H (  2)  1.108117
   H (  3)  1.108273  1.738983
 
 Requested basis set is G3large
 There are 22 shells and 62 basis functions
 A cutoff of  1.0D-11 yielded    253 shell pairs
 There are   2043 function pairs (  2475 Cartesian)
Evaluating contribution to one-electron hamiltonian from nuclear
 Smallest overlap matrix eigenvalue = 3.36E-03
 Multipole matrices computed through 2nd order
 Guess MOs from SCF MO coefficient file
Reading MOs from coefficient file
Reading MOs from coefficient file
 A restricted hybrid HF-DFT SCF calculation will be
 performed using Pulay DIIS extrapolation
 Exchange:     1.0000 Hartree-Fock + 1.0000 BNL
 Correlation:  1.0000 LYP
 Using SG-1 standard quadrature grid
 SCF converges when DIIS error is below 1.0E-08
 ---------------------------------------
  Cycle       Energy         DIIS Error
 ---------------------------------------
    1     -38.6748810431      5.71E-05
    2     -38.6747846780      7.82E-06
    3     -38.6747847593      3.43E-06
    4     -38.6747847886      2.32E-06
    5     -38.6747848259      1.30E-06
    6     -38.6747848402      5.48E-07
    7     -38.6747848424      9.69E-08
    8     -38.6747848424      1.85E-08
    9     -38.6747848425      4.49E-09 Convergence criterion met
 ---------------------------------------
 One-Electron    Energy =   -63.5811799188
 Total Coulomb   Energy =    24.4079088469
 Alpha Exchange  Energy =    -0.8929811392
 Beta  Exchange  Energy =    -0.8929811392
 DFT   Exchange  Energy =    -3.5170047173
 DFT Correlation Energy =    -0.2330014155
 Nuclear Repu.   Energy =     6.0344546406
 Nuclear Attr.   Energy =  -102.0196066453
 Kinetic         Energy =    38.4384267265
 SCF time:  CPU 6.53 s  wall 8.59 s
 Final Alpha MO Eigenvalues
            1           2           3           4           5           6
    1 -10.0944929  -0.8300572  -0.5485097  -0.3843172  -0.0343821   0.0334110
            7           8           9
    1   0.0651548   0.1208865   0.1273653
 Analysis of SCF Wavefunction
 
 --------------------------------------------------------------
                    Orbital Energies (a.u.)
 --------------------------------------------------------------
 
 Alpha MOs
 -- Occupied --
-10.094  -0.830  -0.549  -0.384
 -- Virtual --
 -0.034   0.033   0.065   0.121   0.127   0.147   0.169   0.231
  0.250   0.506   0.572   0.625   0.639   0.667   0.668   0.676
  0.718   0.813   1.025   1.032   1.144   1.158   1.184   1.353
  1.541   1.555   2.468   2.471   2.733   2.945   2.967   2.975
  3.028   3.064   3.081   3.223   3.246   3.283   3.431   3.477
  3.478   3.864   3.885   4.196   4.227   4.273   4.403   5.152
  5.629  23.936  27.251  27.604  28.027  40.868  40.960  41.167
 41.167  41.207
 --------------------------------------------------------------
 
          Ground-State Mulliken Net Atomic Charges

     Atom                 Charge (a.u.)
  ----------------------------------------
      1 C                    -0.220758
      2 H                     0.110397
      3 H                     0.110361
  ----------------------------------------
  Sum of atomic charges =     0.000000

 -----------------------------------------------------------------
                    Cartesian Multipole Moments
 -----------------------------------------------------------------
    Charge (ESU x 10^10)
                 0.0000
    Dipole Moment (Debye)
         X       1.5807      Y       0.0000      Z       1.3199
       Tot       2.0593
    Quadrupole Moments (Debye-Ang)
        XX      -8.3152     XY       0.0000     YY      -6.6188
        XZ      -0.9231     YZ       0.0000     ZZ      -7.9799
    Octapole Moments (Debye-Ang^2)
       XXX      -0.3605    XXY       0.0000    XYY      -0.2922
       YYY       0.0000    XXZ      -0.7335    XYZ       0.0000
       YYZ      -0.2445    XZZ      -0.5336    YZZ       0.0000
       ZZZ      -0.0166
    Hexadecapole Moments (Debye-Ang^3)
      XXXX     -16.8927   XXXY       0.0000   XXYY      -4.2240
      XYYY       0.0000   YYYY      -6.7860   XXXZ      -1.0421
      XXYZ       0.0000   XYYZ      -0.1896   YYYZ       0.0000
      XXZZ      -6.0526   XYZZ       0.0000   YYZZ      -4.1548
      XZZZ      -0.7439   YZZZ       0.0000   ZZZZ     -16.2428
 -----------------------------------------------------------------
 Writing REM_CC_EA            3
 ----------------------------------------------------
       Standard Nuclear Orientation (Angstroms)
    I     Atom         X            Y            Z
 ----------------------------------------------------
    1      C       0.015848     0.000000     0.011379
    2      H      -0.013980     0.000000     1.121094
    3      H       1.100601     0.000000    -0.213736
 ----------------------------------------------------
 Nuclear Repulsion Energy =     6.0303497724 hartrees
 There are        4 alpha and        4 beta electrons

                       Distance Matrix (Angstroms)
             C (  1)   H (  2)
   H (  2)  1.110116
   H (  3)  1.107865  1.738983
 
 Requested basis set is G3large
 There are 22 shells and 62 basis functions
 A cutoff of  1.0D-11 yielded    253 shell pairs
 There are   2043 function pairs (  2475 Cartesian)
Evaluating contribution to one-electron hamiltonian from nuclear
 Smallest overlap matrix eigenvalue = 3.36E-03
 Multipole matrices computed through 2nd order
 Guess MOs from SCF MO coefficient file
Reading MOs from coefficient file
Reading MOs from coefficient file
 A restricted hybrid HF-DFT SCF calculation will be
 performed using Pulay DIIS extrapolation
 Exchange:     1.0000 Hartree-Fock + 1.0000 BNL
 Correlation:  1.0000 LYP
 Using SG-1 standard quadrature grid
 SCF converges when DIIS error is below 1.0E-08
 ---------------------------------------
  Cycle       Energy         DIIS Error
 ---------------------------------------
    1     -38.6745932401      1.09E-04
    2     -38.6747844374      1.36E-05
    3     -38.6747845572      3.51E-06
    4     -38.6747845641      8.94E-07
    5     -38.6747845654      2.54E-07
    6     -38.6747845654      6.79E-08
    7     -38.6747845655      1.40E-08
    8     -38.6747845655      2.70E-09 Convergence criterion met
 ---------------------------------------
 One-Electron    Energy =   -63.5735800418
 Total Coulomb   Energy =    24.4038725739
 Alpha Exchange  Energy =    -0.8929183612
 Beta  Exchange  Energy =    -0.8929183612
 DFT   Exchange  Energy =    -3.5166108519
 DFT Correlation Energy =    -0.2329792958
 Nuclear Repu.   Energy =     6.0303497724
 Nuclear Attr.   Energy =  -102.0103586201
 Kinetic         Energy =    38.4367785783
 SCF time:  CPU 5.78 s  wall 7.43 s
 Final Alpha MO Eigenvalues
            1           2           3           4           5           6
    1 -10.0946704  -0.8299090  -0.5481488  -0.3844608  -0.0343859   0.0333977
            7           8           9
    1   0.0651742   0.1208876   0.1273645
 Analysis of SCF Wavefunction
 
 --------------------------------------------------------------
                    Orbital Energies (a.u.)
 --------------------------------------------------------------
 
 Alpha MOs
 -- Occupied --
-10.095  -0.830  -0.548  -0.384
 -- Virtual --
 -0.034   0.033   0.065   0.121   0.127   0.147   0.169   0.231
  0.250   0.506   0.572   0.625   0.639   0.667   0.668   0.676
  0.718   0.813   1.025   1.032   1.143   1.158   1.184   1.352
  1.541   1.554   2.468   2.472   2.733   2.945   2.967   2.975
  3.028   3.064   3.080   3.222   3.245   3.284   3.432   3.477
  3.478   3.862   3.884   4.195   4.226   4.272   4.400   5.150
  5.626  23.933  27.250  27.604  28.025  40.868  40.960  41.167
 41.167  41.206
 --------------------------------------------------------------
 
          Ground-State Mulliken Net Atomic Charges

     Atom                 Charge (a.u.)
  ----------------------------------------
      1 C                    -0.220219
      2 H                     0.109850
      3 H                     0.110369
  ----------------------------------------
  Sum of atomic charges =     0.000000

 -----------------------------------------------------------------
                    Cartesian Multipole Moments
 -----------------------------------------------------------------
    Charge (ESU x 10^10)
                 0.0000
    Dipole Moment (Debye)
         X       1.5801      Y       0.0000      Z       1.3196
       Tot       2.0587
    Quadrupole Moments (Debye-Ang)
        XX      -8.3144     XY       0.0000     YY      -6.6205
        XZ      -0.9225     YZ       0.0000     ZZ      -7.9871
    Octapole Moments (Debye-Ang^2)
       XXX      -0.3618    XXY       0.0000    XYY      -0.2923
       YYY       0.0000    XXZ      -0.7202    XYZ       0.0000
       YYZ      -0.2376    XZZ      -0.5314    YZZ       0.0000
       ZZZ       0.0176
    Hexadecapole Moments (Debye-Ang^3)
      XXXX     -16.8827   XXXY       0.0000   XXYY      -4.2224
      XYYY       0.0000   YYYY      -6.7878   XXXZ      -1.0396
      XXYZ       0.0000   XYYZ      -0.1898   YYYZ       0.0000
      XXZZ      -6.0564   XYZZ       0.0000   YYZZ      -4.1607
      XZZZ      -0.7427   YZZZ       0.0000   ZZZZ     -16.2700
 -----------------------------------------------------------------
 Writing REM_CC_EA            3
 ----------------------------------------------------
       Standard Nuclear Orientation (Angstroms)
    I     Atom         X            Y            Z
 ----------------------------------------------------
    1      C       0.015848     0.000000     0.012379
    2      H      -0.012980     0.000000     1.121094
    3      H       1.100601     0.000000    -0.213736
 ----------------------------------------------------
 Nuclear Repulsion Energy =     6.0325813250 hartrees
 There are        4 alpha and        4 beta electrons

                       Distance Matrix (Angstroms)
             C (  1)   H (  2)
   H (  2)  1.109090
   H (  3)  1.108069  1.738343
 
 Requested basis set is G3large
 There are 22 shells and 62 basis functions
 A cutoff of  1.0D-11 yielded    253 shell pairs
 There are   2043 function pairs (  2475 Cartesian)
Evaluating contribution to one-electron hamiltonian from nuclear
 Smallest overlap matrix eigenvalue = 3.36E-03
 Multipole matrices computed through 2nd order
 Guess MOs from SCF MO coefficient file
Reading MOs from coefficient file
Reading MOs from coefficient file
 A restricted hybrid HF-DFT SCF calculation will be
 performed using Pulay DIIS extrapolation
 Exchange:     1.0000 Hartree-Fock + 1.0000 BNL
 Correlation:  1.0000 LYP
 Using SG-1 standard quadrature grid
 SCF converges when DIIS error is below 1.0E-08
 ---------------------------------------
  Cycle       Energy         DIIS Error
 ---------------------------------------
    1     -38.6748844653      5.67E-05
    2     -38.6747852725      6.97E-06
    3     -38.6747853090      1.93E-06
    4     -38.6747853114      5.19E-07
    5     -38.6747853119      7.18E-08
    6     -38.6747853119      1.47E-08
    7     -38.6747853119      4.76E-09 Convergence criterion met
 ---------------------------------------
 One-Electron    Energy =   -63.5776715839
 Total Coulomb   Energy =    24.4060190084
 Alpha Exchange  Energy =    -0.8929507919
 Beta  Exchange  Energy =    -0.8929507919
 DFT   Exchange  Energy =    -3.5168212205
 DFT Correlation Energy =    -0.2329912572
 Nuclear Repu.   Energy =     6.0325813250
 Nuclear Attr.   Energy =  -102.0154052370
 Kinetic         Energy =    38.4377336531
 SCF time:  CPU 5.03 s  wall 6.71 s
 Final Alpha MO Eigenvalues
            1           2           3           4           5           6
    1 -10.0945882  -0.8300253  -0.5482439  -0.3844556  -0.0343876   0.0333995
            7           8           9
    1   0.0651740   0.1208864   0.1273641
 Analysis of SCF Wavefunction
 
 --------------------------------------------------------------
                    Orbital Energies (a.u.)
 --------------------------------------------------------------
 
 Alpha MOs
 -- Occupied --
-10.095  -0.830  -0.548  -0.384
 -- Virtual --
 -0.034   0.033   0.065   0.121   0.127   0.147   0.169   0.231
  0.250   0.506   0.572   0.625   0.639   0.667   0.668   0.676
  0.718   0.813   1.025   1.032   1.143   1.158   1.184   1.353
  1.541   1.554   2.468   2.471   2.733   2.945   2.966   2.975
  3.028   3.064   3.081   3.223   3.246   3.284   3.432   3.477
  3.478   3.863   3.885   4.195   4.227   4.273   4.401   5.151
  5.628  23.934  27.251  27.604  28.026  40.868  40.960  41.167
 41.167  41.207
 --------------------------------------------------------------
 
          Ground-State Mulliken Net Atomic Charges

     Atom                 Charge (a.u.)
  ----------------------------------------
      1 C                    -0.220389
      2 H                     0.110077
      3 H                     0.110313
  ----------------------------------------
  Sum of atomic charges =     0.000000

 -----------------------------------------------------------------
                    Cartesian Multipole Moments
 -----------------------------------------------------------------
    Charge (ESU x 10^10)
                 0.0000
    Dipole Moment (Debye)
         X       1.5812      Y       0.0000      Z       1.3192
       Tot       2.0592
    Quadrupole Moments (Debye-Ang)
        XX      -8.3152     XY       0.0000     YY      -6.6196
        XZ      -0.9205     YZ       0.0000     ZZ      -7.9830
    Octapole Moments (Debye-Ang^2)
       XXX      -0.3638    XXY       0.0000    XYY      -0.2928
       YYY       0.0000    XXZ      -0.7269    XYZ       0.0000
       YYZ      -0.2414    XZZ      -0.5319    YZZ       0.0000
       ZZZ      -0.0007
    Hexadecapole Moments (Debye-Ang^3)
      XXXX     -16.8881   XXXY       0.0000   XXYY      -4.2231
      XYYY       0.0000   YYYY      -6.7867   XXXZ      -1.0409
      XXYZ       0.0000   XYYZ      -0.1899   YYYZ       0.0000
      XXZZ      -6.0542   XYZZ       0.0000   YYZZ      -4.1572
      XZZZ      -0.7417   YZZZ       0.0000   ZZZZ     -16.2537
 -----------------------------------------------------------------
 Writing REM_CC_EA            3
 ----------------------------------------------------
       Standard Nuclear Orientation (Angstroms)
    I     Atom         X            Y            Z
 ----------------------------------------------------
    1      C       0.015848     0.000000     0.012379
    2      H      -0.014980     0.000000     1.121094
    3      H       1.100601     0.000000    -0.213736
 ----------------------------------------------------
 Nuclear Repulsion Energy =     6.0322181823 hartrees
 There are        4 alpha and        4 beta electrons

                       Distance Matrix (Angstroms)
             C (  1)   H (  2)
   H (  2)  1.109144
   H (  3)  1.108069  1.739625
 
 Requested basis set is G3large
 There are 22 shells and 62 basis functions
 A cutoff of  1.0D-11 yielded    253 shell pairs
 There are   2043 function pairs (  2475 Cartesian)
Evaluating contribution to one-electron hamiltonian from nuclear
 Smallest overlap matrix eigenvalue = 3.36E-03
 Multipole matrices computed through 2nd order
 Guess MOs from SCF MO coefficient file
Reading MOs from coefficient file
Reading MOs from coefficient file
 A restricted hybrid HF-DFT SCF calculation will be
 performed using Pulay DIIS extrapolation
 Exchange:     1.0000 Hartree-Fock + 1.0000 BNL
 Correlation:  1.0000 LYP
 Using SG-1 standard quadrature grid
 SCF converges when DIIS error is below 1.0E-08
 ---------------------------------------
  Cycle       Energy         DIIS Error
 ---------------------------------------
    1     -38.6747824006      2.83E-05
    2     -38.6747852161      4.42E-06
    3     -38.6747852328      1.26E-06
    4     -38.6747852344      5.11E-07
    5     -38.6747852346      1.05E-07
    6     -38.6747852347      1.45E-08
    7     -38.6747852346      3.28E-09 Convergence criterion met
 ---------------------------------------
 One-Electron    Energy =   -63.5770817115
 Total Coulomb   Energy =    24.4057589985
 Alpha Exchange  Energy =    -0.8929486981
 Beta  Exchange  Energy =    -0.8929486981
 DFT   Exchange  Energy =    -3.5167938646
 DFT Correlation Energy =    -0.2329894431
 Nuclear Repu.   Energy =     6.0322181823
 Nuclear Attr.   Energy =  -102.0145499540
 Kinetic         Energy =    38.4374682425
 SCF time:  CPU 5.01 s  wall 6.51 s
 Final Alpha MO Eigenvalues
            1           2           3           4           5           6
    1 -10.0945751  -0.8299405  -0.5484147  -0.3843223  -0.0343804   0.0334092
            7           8           9
    1   0.0651549   0.1208877   0.1273658
 Analysis of SCF Wavefunction
 
 --------------------------------------------------------------
                    Orbital Energies (a.u.)
 --------------------------------------------------------------
 
 Alpha MOs
 -- Occupied --
-10.095  -0.830  -0.548  -0.384
 -- Virtual --
 -0.034   0.033   0.065   0.121   0.127   0.147   0.169   0.230
  0.250   0.506   0.572   0.625   0.639   0.667   0.668   0.676
  0.718   0.813   1.025   1.032   1.144   1.158   1.184   1.353
  1.541   1.554   2.468   2.471   2.733   2.945   2.967   2.975
  3.028   3.064   3.081   3.222   3.246   3.283   3.431   3.477
  3.478   3.864   3.884   4.195   4.226   4.272   4.402   5.152
  5.627  23.934  27.251  27.604  28.026  40.868  40.960  41.167
 41.167  41.207
 --------------------------------------------------------------
 
          Ground-State Mulliken Net Atomic Charges

     Atom                 Charge (a.u.)
  ----------------------------------------
      1 C                    -0.220587
      2 H                     0.110169
      3 H                     0.110418
  ----------------------------------------
  Sum of atomic charges =     0.000000

 -----------------------------------------------------------------
                    Cartesian Multipole Moments
 -----------------------------------------------------------------
    Charge (ESU x 10^10)
                 0.0000
    Dipole Moment (Debye)
         X       1.5796      Y       0.0000      Z       1.3203
       Tot       2.0587
    Quadrupole Moments (Debye-Ang)
        XX      -8.3145     XY       0.0000     YY      -6.6197
        XZ      -0.9251     YZ       0.0000     ZZ      -7.9841
    Octapole Moments (Debye-Ang^2)
       XXX      -0.3584    XXY       0.0000    XYY      -0.2917
       YYY       0.0000    XXZ      -0.7269    XYZ       0.0000
       YYZ      -0.2408    XZZ      -0.5331    YZZ       0.0000
       ZZZ       0.0018
    Hexadecapole Moments (Debye-Ang^3)
      XXXX     -16.8872   XXXY       0.0000   XXYY      -4.2233
      XYYY       0.0000   YYYY      -6.7871   XXXZ      -1.0407
      XXYZ       0.0000   XYYZ      -0.1896   YYYZ       0.0000
      XXZZ      -6.0547   XYZZ       0.0000   YYZZ      -4.1583
      XZZZ      -0.7449   YZZZ       0.0000   ZZZZ     -16.2591
 -----------------------------------------------------------------
 Writing REM_CC_EA            3
 ----------------------------------------------------
       Standard Nuclear Orientation (Angstroms)
    I     Atom         X            Y            Z
 ----------------------------------------------------
    1      C       0.015848     0.000000     0.012379
    2      H      -0.013980     0.001000     1.121094
    3      H       1.100601     0.000000    -0.213736
 ----------------------------------------------------
 Nuclear Repulsion Energy =     6.0323996891 hartrees
 There are        4 alpha and        4 beta electrons

                       Distance Matrix (Angstroms)
             C (  1)   H (  2)
   H (  2)  1.109117
   H (  3)  1.108069  1.738984
 
 Requested basis set is G3large
 There are 22 shells and 62 basis functions
 A cutoff of  1.0D-11 yielded    253 shell pairs
 There are   2043 function pairs (  2475 Cartesian)
Evaluating contribution to one-electron hamiltonian from nuclear
 Smallest overlap matrix eigenvalue = 3.36E-03
 Multipole matrices computed through 2nd order
 Guess MOs from SCF MO coefficient file
Reading MOs from coefficient file
Reading MOs from coefficient file
 A restricted hybrid HF-DFT SCF calculation will be
 performed using Pulay DIIS extrapolation
 Exchange:     1.0000 Hartree-Fock + 1.0000 BNL
 Correlation:  1.0000 LYP
 Using SG-1 standard quadrature grid
 SCF converges when DIIS error is below 1.0E-08
 ---------------------------------------
  Cycle       Energy         DIIS Error
 ---------------------------------------
    1     -38.6747863672      1.82E-05
    2     -38.6747852792      3.67E-06
    3     -38.6747853087      1.96E-06
    4     -38.6747853220      1.19E-06
    5     -38.6747853298      6.78E-07
    6     -38.6747853329      3.57E-07
    7     -38.6747853339      1.42E-07
    8     -38.6747853340      4.61E-08
    9     -38.6747853341      5.88E-09 Convergence criterion met
 ---------------------------------------
 One-Electron    Energy =   -63.5773768130
 Total Coulomb   Energy =    24.4058892146
 Alpha Exchange  Energy =    -0.8929497529
 Beta  Exchange  Energy =    -0.8929497529
 DFT   Exchange  Energy =    -3.5168075684
 DFT Correlation Energy =    -0.2329903506
 Nuclear Repu.   Energy =     6.0323996891
 Nuclear Attr.   Energy =  -102.0149778443
 Kinetic         Energy =    38.4376010313
 SCF time:  CPU 6.54 s  wall 8.87 s
 Final Alpha MO Eigenvalues
            1           2           3           4           5           6
    1 -10.0945816  -0.8299829  -0.5483293  -0.3843890  -0.0343840   0.0334044
            7           8           9
    1   0.0651645   0.1208871   0.1273649
 Analysis of SCF Wavefunction
 
 --------------------------------------------------------------
                    Orbital Energies (a.u.)
 --------------------------------------------------------------
 
 Alpha MOs
 -- Occupied --
-10.095  -0.830  -0.548  -0.384
 -- Virtual --
 -0.034   0.033   0.065   0.121   0.127   0.147   0.169   0.231
  0.250   0.506   0.572   0.625   0.639   0.667   0.668   0.676
  0.718   0.813   1.025   1.032   1.143   1.158   1.184   1.353
  1.541   1.554   2.468   2.471   2.733   2.945   2.967   2.975
  3.028   3.064   3.081   3.223   3.246   3.284   3.431   3.477
  3.477   3.863   3.884   4.195   4.227   4.273   4.401   5.151
  5.628  23.934  27.251  27.604  28.026  40.868  40.960  41.167
 41.167  41.207
 --------------------------------------------------------------
 
          Ground-State Mulliken Net Atomic Charges

     Atom                 Charge (a.u.)
  ----------------------------------------
      1 C                    -0.220488
      2 H                     0.110123
      3 H                     0.110365
  ----------------------------------------
  Sum of atomic charges =     0.000000

 -----------------------------------------------------------------
                    Cartesian Multipole Moments
 -----------------------------------------------------------------
    Charge (ESU x 10^10)
                 0.0000
    Dipole Moment (Debye)
         X       1.5804      Y       0.0015      Z       1.3198
       Tot       2.0590
    Quadrupole Moments (Debye-Ang)
        XX      -8.3148     XY      -0.0012     YY      -6.6196
        XZ      -0.9228     YZ      -0.0014     ZZ      -7.9835
    Octapole Moments (Debye-Ang^2)
       XXX      -0.3611    XXY      -0.0005    XYY      -0.2922
       YYY      -0.0005    XXZ      -0.7269    XYZ      -0.0003
       YYZ      -0.2411    XZZ      -0.5325    YZZ       0.0005
       ZZZ       0.0005
    Hexadecapole Moments (Debye-Ang^3)
      XXXX     -16.8877   XXXY      -0.0017   XXYY      -4.2232
      XYYY      -0.0016   YYYY      -6.7869   XXXZ      -1.0408
      XXYZ      -0.0018   XYYZ      -0.1897   YYYZ      -0.0053
      XXZZ      -6.0545   XYZZ      -0.0007   YYZZ      -4.1578
      XZZZ      -0.7433   YZZZ      -0.0036   ZZZZ     -16.2564
 -----------------------------------------------------------------
 Writing REM_CC_EA            3
 ----------------------------------------------------
       Standard Nuclear Orientation (Angstroms)
    I     Atom         X            Y            Z
 ----------------------------------------------------
    1      C       0.015848     0.000000     0.012379
    2      H      -0.013980    -0.001000     1.121094
    3      H       1.100601     0.000000    -0.213736
 ----------------------------------------------------
 Nuclear Repulsion Energy =     6.0323996891 hartrees
 There are        4 alpha and        4 beta electrons

                       Distance Matrix (Angstroms)
             C (  1)   H (  2)
   H (  2)  1.109117
   H (  3)  1.108069  1.738984
 
 Requested basis set is G3large
[...]
      XZZZ      -0.7407   YZZZ       0.0008   ZZZZ     -16.2553
 -----------------------------------------------------------------
 Writing REM_CC_EA            3
 ----------------------------------------------------
       Standard Nuclear Orientation (Angstroms)
    I     Atom         X            Y            Z
 ----------------------------------------------------
    1      C       0.014848     0.000000     0.012379
    2      H      -0.013980     0.000000     1.121094
    3      H       1.100601    -0.001000    -0.214736
 ----------------------------------------------------
 Nuclear Repulsion Energy =     6.0292770022 hartrees
 There are        4 alpha and        4 beta electrons

                       Distance Matrix (Angstroms)
             C (  1)   H (  2)
   H (  2)  1.109090
   H (  3)  1.109252  1.739751
 
 Requested basis set is G3large
 There are 22 shells and 62 basis functions
 A cutoff of  1.0D-11 yielded    253 shell pairs
 There are   2043 function pairs (  2475 Cartesian)
Evaluating contribution to one-electron hamiltonian from nuclear
 Smallest overlap matrix eigenvalue = 3.36E-03
 Multipole matrices computed through 2nd order
 Guess MOs from SCF MO coefficient file
Reading MOs from coefficient file
Reading MOs from coefficient file
 A restricted hybrid HF-DFT SCF calculation will be
 performed using Pulay DIIS extrapolation
 Exchange:     1.0000 Hartree-Fock + 1.0000 BNL
 Correlation:  1.0000 LYP
 Using SG-1 standard quadrature grid
 SCF converges when DIIS error is below 1.0E-08
 ---------------------------------------
  Cycle       Energy         DIIS Error
 ---------------------------------------
    1     -38.6747413356      3.29E-05
    2     -38.6747859453      4.70E-06
    3     -38.6747859642      1.40E-06
    4     -38.6747859660      4.82E-07
    5     -38.6747859662      1.41E-07
    6     -38.6747859663      2.24E-08
    7     -38.6747859663      3.48E-09 Convergence criterion met
 ---------------------------------------
 One-Electron    Energy =   -63.5716468586
 Total Coulomb   Energy =    24.4028780451
 Alpha Exchange  Energy =    -0.8929041163
 Beta  Exchange  Energy =    -0.8929041163
 DFT   Exchange  Energy =    -3.5165123423
 DFT Correlation Energy =    -0.2329735801
 Nuclear Repu.   Energy =     6.0292770022
 Nuclear Attr.   Energy =  -102.0079214164
 Kinetic         Energy =    38.4362745578
 SCF time:  CPU 5.41 s  wall 8.11 s
 Final Alpha MO Eigenvalues
            1           2           3           4           5           6
    1 -10.0946992  -0.8298267  -0.5481769  -0.3844106  -0.0343824   0.0334008
            7           8           9
    1   0.0651667   0.1208886   0.1273653
 Analysis of SCF Wavefunction
 
 --------------------------------------------------------------
                    Orbital Energies (a.u.)
 --------------------------------------------------------------
 
 Alpha MOs
 -- Occupied --
-10.095  -0.830  -0.548  -0.384
 -- Virtual --
 -0.034   0.033   0.065   0.121   0.127   0.147   0.169   0.230
  0.250   0.506   0.572   0.625   0.639   0.666   0.668   0.676
  0.718   0.813   1.025   1.032   1.143   1.158   1.184   1.353
  1.541   1.554   2.469   2.472   2.733   2.945   2.967   2.975
  3.028   3.064   3.080   3.222   3.245   3.283   3.431   3.477
  3.477   3.862   3.884   4.195   4.226   4.272   4.401   5.150
  5.625  23.932  27.250  27.604  28.025  40.868  40.959  41.167
 41.167  41.206
 --------------------------------------------------------------
 
          Ground-State Mulliken Net Atomic Charges

     Atom                 Charge (a.u.)
  ----------------------------------------
      1 C                    -0.220224
      2 H                     0.110131
      3 H                     0.110093
  ----------------------------------------
  Sum of atomic charges =     0.000000

 -----------------------------------------------------------------
                    Cartesian Multipole Moments
 -----------------------------------------------------------------
    Charge (ESU x 10^10)
                 0.0000
    Dipole Moment (Debye)
         X       1.5804      Y      -0.0015      Z       1.3186
       Tot       2.0582
    Quadrupole Moments (Debye-Ang)
        XX      -8.3195     XY       0.0016     YY      -6.6209
        XZ      -0.9238     YZ       0.0009     ZZ      -7.9831
    Octapole Moments (Debye-Ang^2)
       XXX      -0.3435    XXY      -0.0003    XYY      -0.2889
       YYY       0.0005    XXZ      -0.7262    XYZ       0.0004
       YYZ      -0.2406    XZZ      -0.5260    YZZ       0.0004
       ZZZ       0.0020
    Hexadecapole Moments (Debye-Ang^3)
      XXXX     -16.9057   XXXY       0.0039   XXYY      -4.2272
      XYYY       0.0055   YYYY      -6.7884   XXXZ      -1.0395
      XXYZ       0.0006   XYYZ      -0.1888   YYYZ       0.0007
      XXZZ      -6.0567   XYZZ       0.0018   YYZZ      -4.1578
      XZZZ      -0.7398   YZZZ       0.0008   ZZZZ     -16.2552
 -----------------------------------------------------------------
 Writing REM_CC_EA            3
 ----------------------------------------------------
       Standard Nuclear Orientation (Angstroms)
    I     Atom         X            Y            Z
 ----------------------------------------------------
    1      C       0.014848     0.000000     0.012379
    2      H      -0.013980     0.000000     1.121094
    3      H       1.100601     0.000000    -0.211736
 ----------------------------------------------------
 Nuclear Repulsion Energy =     6.0312571227 hartrees
 There are        4 alpha and        4 beta electrons

                       Distance Matrix (Angstroms)
             C (  1)   H (  2)
   H (  2)  1.109090
   H (  3)  1.108642  1.737449
 
 Requested basis set is G3large
 There are 22 shells and 62 basis functions
 A cutoff of  1.0D-11 yielded    253 shell pairs
 There are   2043 function pairs (  2475 Cartesian)
Evaluating contribution to one-electron hamiltonian from nuclear
 Smallest overlap matrix eigenvalue = 3.36E-03
 Multipole matrices computed through 2nd order
 Guess MOs from SCF MO coefficient file
Reading MOs from coefficient file
Reading MOs from coefficient file
 A restricted hybrid HF-DFT SCF calculation will be
 performed using Pulay DIIS extrapolation
 Exchange:     1.0000 Hartree-Fock + 1.0000 BNL
 Correlation:  1.0000 LYP
 Using SG-1 standard quadrature grid
 SCF converges when DIIS error is below 1.0E-08
 ---------------------------------------
  Cycle       Energy         DIIS Error
 ---------------------------------------
    1     -38.6748516203      5.06E-05
    2     -38.6747854231      7.63E-06
    3     -38.6747854905      2.81E-06
    4     -38.6747855055      1.48E-06
    5     -38.6747855132      9.05E-07
    6     -38.6747855175      5.47E-07
    7     -38.6747855200      2.19E-07
    8     -38.6747855204      8.89E-08
    9     -38.6747855204      1.87E-08
   10     -38.6747855204      3.67E-09 Convergence criterion met
 ---------------------------------------
 One-Electron    Energy =   -63.5751640056
 Total Coulomb   Energy =    24.4046505876
 Alpha Exchange  Energy =    -0.8929281377
 Beta  Exchange  Energy =    -0.8929281377
 DFT   Exchange  Energy =    -3.5166889041
 DFT Correlation Energy =    -0.2329840455
 Nuclear Repu.   Energy =     6.0312571227
 Nuclear Attr.   Energy =  -102.0124481990
 Kinetic         Energy =    38.4372841934
 SCF time:  CPU 7.81 s  wall 11.67 s
 Final Alpha MO Eigenvalues
            1           2           3           4           5           6
    1 -10.0946653  -0.8300272  -0.5479864  -0.3846035  -0.0343940   0.0333877
            7           8           9
    1   0.0651948   0.1208860   0.1273627
 Analysis of SCF Wavefunction
 
 --------------------------------------------------------------
                    Orbital Energies (a.u.)
 --------------------------------------------------------------
 
 Alpha MOs
 -- Occupied --
-10.095  -0.830  -0.548  -0.385
 -- Virtual --
 -0.034   0.033   0.065   0.121   0.127   0.147   0.169   0.231
  0.250   0.506   0.572   0.625   0.639   0.667   0.668   0.676
  0.718   0.813   1.025   1.032   1.143   1.158   1.184   1.352
  1.541   1.554   2.468   2.471   2.733   2.945   2.966   2.975
  3.028   3.064   3.080   3.223   3.245   3.284   3.432   3.477
  3.479   3.861   3.884   4.195   4.228   4.272   4.399   5.150
  5.627  23.933  27.250  27.605  28.025  40.868  40.960  41.167
 41.167  41.206
 --------------------------------------------------------------
 
          Ground-State Mulliken Net Atomic Charges

     Atom                 Charge (a.u.)
  ----------------------------------------
      1 C                    -0.220044
      2 H                     0.109970
      3 H                     0.110074
  ----------------------------------------
  Sum of atomic charges =     0.000000

 -----------------------------------------------------------------
                    Cartesian Multipole Moments
 -----------------------------------------------------------------
    Charge (ESU x 10^10)
                 0.0000
    Dipole Moment (Debye)
         X       1.5798      Y       0.0000      Z       1.3211
       Tot       2.0594
    Quadrupole Moments (Debye-Ang)
        XX      -8.3155     XY       0.0000     YY      -6.6202
        XZ      -0.9177     YZ       0.0000     ZZ      -7.9859
    Octapole Moments (Debye-Ang^2)
       XXX      -0.3436    XXY       0.0000    XYY      -0.2887
       YYY       0.0000    XXZ      -0.7239    XYZ       0.0000
       YYZ      -0.2423    XZZ      -0.5268    YZZ       0.0000
       ZZZ      -0.0057
    Hexadecapole Moments (Debye-Ang^3)
      XXXX     -16.8876   XXXY       0.0000   XXYY      -4.2237
      XYYY       0.0000   YYYY      -6.7871   XXXZ      -1.0366
      XXYZ       0.0000   XYYZ      -0.1898   YYYZ       0.0000
      XXZZ      -6.0559   XYZZ       0.0000   YYZZ      -4.1571
      XZZZ      -0.7411   YZZZ       0.0000   ZZZZ     -16.2553
 -----------------------------------------------------------------
 Writing REM_CC_EA            3
 ----------------------------------------------------
       Standard Nuclear Orientation (Angstroms)
    I     Atom         X            Y            Z
 ----------------------------------------------------
    1      C       0.014848     0.000000     0.012379
    2      H      -0.013980     0.000000     1.121094
    3      H       1.100601     0.000000    -0.215736
 ----------------------------------------------------
 Nuclear Repulsion Energy =     6.0286146622 hartrees
 There are        4 alpha and        4 beta electrons

                       Distance Matrix (Angstroms)
             C (  1)   H (  2)
   H (  2)  1.109090
   H (  3)  1.109457  1.740519
 
 Requested basis set is G3large
 There are 22 shells and 62 basis functions
 A cutoff of  1.0D-11 yielded    253 shell pairs
 There are   2043 function pairs (  2475 Cartesian)
Evaluating contribution to one-electron hamiltonian from nuclear
 Smallest overlap matrix eigenvalue = 3.36E-03
 Multipole matrices computed through 2nd order
 Guess MOs from SCF MO coefficient file
Reading MOs from coefficient file
Reading MOs from coefficient file
 A restricted hybrid HF-DFT SCF calculation will be
 performed using Pulay DIIS extrapolation
 Exchange:     1.0000 Hartree-Fock + 1.0000 BNL
 Correlation:  1.0000 LYP
 Using SG-1 standard quadrature grid
 SCF converges when DIIS error is below 1.0E-08
 ---------------------------------------
  Cycle       Energy         DIIS Error
 ---------------------------------------
    1     -38.6746963841      6.59E-05
    2     -38.6747856745      9.41E-06
    3     -38.6747857503      2.81E-06
    4     -38.6747857572      9.67E-07
    5     -38.6747857583      2.83E-07
    6     -38.6747857584      4.49E-08
    7     -38.6747857584      6.98E-09 Convergence criterion met
 ---------------------------------------
 One-Electron    Energy =   -63.5704696342
 Total Coulomb   Energy =    24.4022845963
 Alpha Exchange  Energy =    -0.8928960478
 Beta  Exchange  Energy =    -0.8928960478
 DFT   Exchange  Energy =    -3.5164532080
 DFT Correlation Energy =    -0.2329700791
 Nuclear Repu.   Energy =     6.0286146622
 Nuclear Attr.   Energy =  -102.0064065399
 Kinetic         Energy =    38.4359369057
 SCF time:  CPU 5.43 s  wall 7.97 s
 Final Alpha MO Eigenvalues
            1           2           3           4           5           6
    1 -10.0947105  -0.8297599  -0.5482401  -0.3843463  -0.0343785   0.0334051
            7           8           9
    1   0.0651574   0.1208894   0.1273662
 Analysis of SCF Wavefunction
 
 --------------------------------------------------------------
                    Orbital Energies (a.u.)
 --------------------------------------------------------------
 
 Alpha MOs
 -- Occupied --
-10.095  -0.830  -0.548  -0.384
 -- Virtual --
 -0.034   0.033   0.065   0.121   0.127   0.147   0.169   0.230
  0.250   0.506   0.572   0.625   0.639   0.666   0.668   0.676
  0.718   0.813   1.024   1.032   1.143   1.158   1.184   1.353
  1.541   1.554   2.469   2.472   2.733   2.945   2.967   2.975
  3.028   3.064   3.080   3.222   3.245   3.283   3.431   3.477
  3.477   3.862   3.883   4.194   4.225   4.271   4.401   5.150
  5.625  23.932  27.250  27.603  28.026  40.868  40.959  41.167
 41.167  41.206
 --------------------------------------------------------------
 
          Ground-State Mulliken Net Atomic Charges

     Atom                 Charge (a.u.)
  ----------------------------------------
      1 C                    -0.220284
      2 H                     0.110184
      3 H                     0.110100
  ----------------------------------------
  Sum of atomic charges =     0.000000

 -----------------------------------------------------------------
                    Cartesian Multipole Moments
 -----------------------------------------------------------------
    Charge (ESU x 10^10)
                 0.0000
    Dipole Moment (Debye)
         X       1.5806      Y       0.0000      Z       1.3178
       Tot       2.0578
    Quadrupole Moments (Debye-Ang)
        XX      -8.3208     XY       0.0000     YY      -6.6211
        XZ      -0.9258     YZ       0.0000     ZZ      -7.9821
    Octapole Moments (Debye-Ang^2)
       XXX      -0.3434    XXY       0.0000    XYY      -0.2890
       YYY       0.0000    XXZ      -0.7270    XYZ       0.0000
       YYZ      -0.2400    XZZ      -0.5257    YZZ       0.0000
       ZZZ       0.0046
    Hexadecapole Moments (Debye-Ang^3)
      XXXX     -16.9117   XXXY       0.0000   XXYY      -4.2283
      XYYY       0.0000   YYYY      -6.7889   XXXZ      -1.0405
      XXYZ       0.0000   XYYZ      -0.1885   YYYZ       0.0000
      XXZZ      -6.0570   XYZZ       0.0000   YYZZ      -4.1581
      XZZZ      -0.7393   YZZZ       0.0000   ZZZZ     -16.2552
 -----------------------------------------------------------------
 Writing REM_CC_EA            3
 ----------------------------------------------------
       Standard Nuclear Orientation (Angstroms)
    I     Atom         X            Y            Z
 ----------------------------------------------------
    1      C       0.014848     0.000000     0.012379
    2      H      -0.013980     0.000000     1.121094
    3      H       1.100601     0.000000    -0.213736
 ----------------------------------------------------
 Nuclear Repulsion Energy =     6.0299398126 hartrees
 There are        4 alpha and        4 beta electrons
FINAL TENSOR RESULT:
Order 2, Length 9
Order 1, Length 9
   0.3321423   0.0000002  -0.0574119  -0.0292278   0.0000003   0.0237218  -0.3029128   0.0000002   0.0336914
Order 1, Length 9
   0.0000002  -0.0001631   0.0000003  -0.0000008   0.0000760  -0.0000038   0.0000016   0.0000893  -0.0000041
Order 1, Length 9
  -0.0574119   0.0000003   0.3530217  -0.0158347  -0.0000007  -0.3134925   0.0732438   0.0000001  -0.0395316
Order 1, Length 9
  -0.0292278  -0.0000008  -0.0158347   0.0339453  -0.0000008  -0.0194577  -0.0047122  -0.0000004   0.0352885
Order 1, Length 9
   0.0000003   0.0000760  -0.0000007  -0.0000008  -0.0000869  -0.0000007  -0.0000002   0.0000188   0.0000010
Order 1, Length 9
   0.0237218  -0.0000038  -0.3134925  -0.0194577  -0.0000007   0.3238280  -0.0042615   0.0000005  -0.0103351
Order 1, Length 9
  -0.3029128   0.0000016   0.0732438  -0.0047122  -0.0000002  -0.0042615   0.3076283   0.0000001  -0.0689817
Order 1, Length 9
   0.0000002   0.0000893   0.0000001  -0.0000004   0.0000188   0.0000005   0.0000001  -0.0001018   0.0000007
Order 1, Length 9
   0.0336914  -0.0000041  -0.0395316   0.0352885   0.0000010  -0.0103351  -0.0689817   0.0000007   0.0498659


 # Finishing finite difference calculation for IDERIV #
 ######################################################
 ######################################################
 Requested basis set is G3large
 There are 22 shells and 62 basis functions
 **********************************************************************
 **                                                                  **
 **                       VIBRATIONAL ANALYSIS                       **
 **                       --------------------                       **
 **                                                                  **
 **        VIBRATIONAL FREQUENCIES (CM**-1) AND NORMAL MODES         **
 **     FORCE CONSTANTS (mDYN/ANGSTROM) AND REDUCED MASSES (AMU)     **
 **                                                                  **
 **********************************************************************
 

 Mode:                 1                      2                      3
 Frequency:      1367.36                2993.32                3072.26
 Force Cnst:      1.2141                 5.5776                 6.1302
 Red. Mass:       1.1022                 1.0566                 1.1023
 IR Active:          YES                    YES                    YES
 Raman Active:       YES                    YES                    YES
               X      Y      Z        X      Y      Z        X      Y      Z
 C         -0.071  0.000 -0.059   -0.051  0.000 -0.042    0.059  0.000 -0.071
 H          0.704  0.000  0.018   -0.070  0.000  0.698   -0.019  0.000  0.708
 H          0.143  0.000  0.689    0.682  0.000 -0.195   -0.685  0.000  0.142
 TransDip   0.000  0.000  0.000    0.000  0.000  0.000    0.000  0.000  0.000

 STANDARD THERMODYNAMIC QUANTITIES AT   298.18 K  AND     1.00 ATM

   This Molecule has  0 Imaginary Frequencies
   Zero point vibrational energy:       10.626 kcal/mol

   Atom    1 Element C  Has Mass   12.00000
   Atom    2 Element H  Has Mass    1.00783
   Atom    3 Element H  Has Mass    1.00783
   Molecular Mass:    14.015660 amu
   Principal axes and moments of inertia in atomic units:
                             1           2           3
    Eigenvalues --        2.92131     5.44184     8.36315
          X              -0.64090     0.76762     0.00000
          Y               0.00000     0.00000     1.00000
          Z               0.76762     0.64090     0.00000
   Rotational Symmetry Number is   1
   The Molecule is an Asymmetric Top
   Translational Enthalpy:        0.889 kcal/mol
   Rotational Enthalpy:           0.889 kcal/mol
   Vibrational Enthalpy:         10.631 kcal/mol
   gas constant (RT):             0.593 kcal/mol
   Translational Entropy:        33.861  cal/mol.K
   Rotational Entropy:           12.662  cal/mol.K
   Vibrational Entropy:           0.021  cal/mol.K

   Total Enthalpy:               13.001 kcal/mol
   Total Entropy:                46.544  cal/mol.K
 Total job time:  1469.46s(wall), 1036.04s(cpu) 
 Sun Apr 17 20:19:18 2011

        *************************************************************
        *                                                           *
        *  Thank you very much for using Q-Chem.  Have a nice day.  *
        *                                                           *
        *************************************************************


0 sent ACK to 0 
now end server 0 ... 
