Process 0 of 1 is on cl149.stfx.acenet.ca - thread support 1
initial socket setup ...start
initial socket setup ...done 
now start server 0 ... 

cmd = /usr/bin/ssh clhead /usr/local/qchem/bin/get_hostid 7629612 > /scratch/tmp/6061830.1.medium.q/qchem29865/lic.dat
                  Welcome to Q-Chem
     A Quantum Leap Into The Future Of Chemistry

 Y. Shao, L. Fusti-Molnar, Y. Jung, J. Kussmann, C. Ochsenfeld,
 S. T. Brown, A. T. B. Gilbert, L. V. Slipchenko,S. V. Levchenko,
 D. P. O'Neill, R. A. DiStasio Jr., R. C. Lochan, T. Wang,
 G. J. O. Beran, N. A. Besley, J. M. Herbert, C. Y. Lin,
 T. Van Voorhis, S. H. Chien, A. Sodt, R. P. Steele, 
 V. A. Rassolov, P. E. Maslen, P. P. Korambath, R. D. Adamson,
 B. Austin, J. Baker, E. F. C. Byrd, H. Dachsel, R. J. Doerksen,
 A. Dreuw, B. D. Dunietz, A. D. Dutoi, T. R. Furlani,
 S. R. Gwaltney, A. Heyden, S. Hirata, C.-P. Hsu, G. Kedziora,
 R. Z. Khaliullin, P. Klunzinger, A. M. Lee, M. S. Lee, W. Liang,
 I. Lotan, N. Nair, B. Peters, E. I. Proynov, P. A. Pieniazek, 
 Y. M. Rhee, J. Ritchie, E. Rosta, C. D. Sherrill, 
 A. C. Simmonett, J. E. Subotnik, H. L. Woodcock III,
 W. Zhang, A. T. Bell, A. K. Chakraborty, D. M. Chipman,
 F. J. Keil, A. Warshel, W. J. Hehre, H. F. Schaefer III,
 J. Kong, A. I. Krylov, P. M. W. Gill, M. Head-Gordon,
 Q-Chem, Version 3.1, Q-Chem, Inc., Pittsburgh, PA (2007).

 Additional authors for Version 3.1: 
 Z. Gan, Y. Zhao, N. E. Schultz, D. Truhlar, E. Epifanovsky and M. Oana.

 Additional authors for Version 3.2: 
 R. Baer, B. R. Brooks, D. Casanova, J.-D. Chai, C.-L. Cheng, 
 C. Cramer, D. Crittenden, A. Ghysels, G. Hawkins, E. G. Hohenstein, 
 C. Kelley, W. Kurlancheek, D. Liotard, E. Livshits, P. Manohar, 
 A. Marenich, D. Neuhauser, R. Olson, M. A. Rohrdanz, K. S. Thanthiriwatte, 
 A. J. W. Thom, V. Vanovschi, C. F. Williams, Q. Wu and Z.-Q. You. 


 Intel X86 Linux Version

 Q-chem begins on Thu Jul  4 19:20:19 2013  

 Parallel job on  1  processors
Processing $rem in /usr/local/qchem/config/preferences.

theFileMan(): MAXOPENFILES=974 MAX_SUB_FILE_NUM=16
Maximum size of a physical file is 2.0 GB, maximum size of a tmp-file is 32.0 GB


--------------------------------------------------------------
User input:
--------------------------------------------------------------

$molecule
-1,2
S          0.00000        0.00000        0.01958
C          0.00000        0.00000        1.56317
S          0.00000        0.00000        3.10675
$end

$comment
negative
$end

$xc_functional
C PBE   1.00
X wPBE  1.00
$end

$rem
SYMMETRY_DECOMPOSITION	0
exchange 		general
LRC_DFT                 true
BASIS                   g3large
omega			400
mem_static              760
max_scf_cycles          200
scf_final_print         1
sym_ignore              true
$end

--------------------------------------------------------------
 Writing REM_CC_EA            3
 ----------------------------------------------------
       Standard Nuclear Orientation (Angstroms)
    I     Atom         X            Y            Z
 ----------------------------------------------------
    1      S       0.000000     0.000000     0.019580
    2      C       0.000000     0.000000     1.563170
    3      S       0.000000     0.000000     3.106750
 ----------------------------------------------------
 Nuclear Repulsion Energy =   109.7035197006 hartrees
 There are       20 alpha and       19 beta electrons
 Requested basis set is G3large
 There are 48 shells and 174 basis functions

Total QAlloc Memory Limit   2000 MB
Mega-Array Size       743 MB
MEM_STATIC part       760 MB

                       Distance Matrix (Angstroms)
             S (  1)   C (  2)
   C (  2)  1.543590
   S (  3)  3.087170  1.543580
 
 A cutoff of  1.0D-08 yielded   1031 shell pairs
 There are  13994 function pairs ( 19618 Cartesian)
Evaluating contribution to one-electron hamiltonian from nuclear
 Smallest overlap matrix eigenvalue = 7.89E-05

 Q-Chem warning in module mkSTV.C, line 194:

 Overlap eigenvalue is smaller than square root of threshold

 Multipole matrices computed through 2nd order

  Scale SEOQF with 1.000000e-01/1.000000e-01/1.000000e-01

 Standard Electronic Orientation quadrupole field applied
 Nucleus-field energy     =    -0.0000000181 hartrees
 Guess from superposition of atomic densities
 Warning:  Energy on first SCF cycle will be non-variational
 Long-range K will be added via erf
 Coulomb attenuation parameter = 0.4 bohr**(-1)
 An unrestricted Kohn-Sham SCF calculation will be
 performed using Pulay DIIS extrapolation
 Exchange:  wPBE + LR-HF      Correlation:  PBE
 Using SG-1 standard quadrature grid
 SCF converges when DIIS error is below 1.0E-05
 Requested basis set is G3large
 There are 48 shells and 174 basis functions
 A cutoff of  1.0D-08 yielded   1031 shell pairs
 There are  13994 function pairs ( 19618 Cartesian)
 Warning!  Inaccurate integrated density:
   Number of electrons =    39
   Numerical integral  =    37.999950622129
   Relative error      =    -2.5642291740 %
 ---------------------------------------
  Cycle       Energy         DIIS Error
 ---------------------------------------
    1    -834.7775246391      2.98E-02
    2    -834.1648217755      2.31E-03
    3    -834.2081290018      1.37E-03
    4    -834.2146488557      3.70E-04
    5    -834.2167933838      2.12E-04
    6    -834.2174483149      1.19E-04
    7    -834.2176779736      2.70E-05
    8    -834.2177282983      7.54E-06 Convergence criterion met
 ---------------------------------------
 One-Electron    Energy = -1377.9502937115
 Total Coulomb   Energy =   490.7683885491
 Alpha Exchange  Energy =    -4.0745784370
 Beta  Exchange  Energy =    -3.8865076171
 DFT   Exchange  Energy =   -47.3196536989
 DFT Correlation Energy =    -1.4586030655
 Nuclear Repu.   Energy =   109.7035196825
 Nuclear Attr.   Energy = -2211.2599042090
 Kinetic         Energy =   833.3096104975
 <S^2> = 0.7618
 SCF time:  CPU 80.41 s  wall 80.70 s
 Final Alpha MO Eigenvalues
            1           2           3           4           5           6
    1 -88.0500490 -88.0500461  -9.9606395  -7.6884845  -7.6884771  -5.7027774
            7           8           9          10          11          12
    1  -5.7027660  -5.6995709  -5.6995689  -5.6972463  -5.6972376  -0.7804706
           13          14          15          16          17          18
    1  -0.6813563  -0.4150713  -0.3226469  -0.3121265  -0.2931905  -0.1794492
           19          20          21          22          23          24
    1  -0.1559005  -0.0227168   0.1991390   0.1995486   0.2052229   0.2220251
           25
    1   0.2365287
 Final Beta MO Eigenvalues
            1           2           3           4           5           6
    1 -88.0496672 -88.0496637  -9.9504644  -7.6880351  -7.6880297  -5.7028251
            7           8           9          10          11          12
    1  -5.7028109  -5.6993907  -5.6993893  -5.6955810  -5.6955800  -0.7668031
           13          14          15          16          17          18
    1  -0.6774749  -0.3901285  -0.3110058  -0.2873046  -0.2669077  -0.1568432
           19          20          21          22          23          24
    1  -0.1454358   0.2017708   0.2053593   0.2069072   0.2151941   0.2228880
 Analysis of SCF Wavefunction
 
 --------------------------------------------------------------
                    Orbital Energies (a.u.)
 --------------------------------------------------------------
 
 Alpha MOs
 -- Occupied --
-88.050 -88.050  -9.961  -7.688  -7.688  -5.703  -5.703  -5.700
 -5.700  -5.697  -5.697  -0.780  -0.681  -0.415  -0.323  -0.312
 -0.293  -0.179  -0.156  -0.023
 -- Virtual --
  0.199   0.200   0.205   0.222   0.237   0.253   0.256   0.257
  0.258   0.336   0.339   0.383   0.390   0.421   0.488   0.489
  0.491   0.537   0.537   0.558   0.559   0.570   0.647   0.647
  0.651   0.706   0.711   0.713   0.760   0.772   0.971   0.971
  0.972   0.973   1.008   1.021   1.093   1.098   1.100   1.170
  1.170   1.194   1.194   1.218   1.219   1.228   1.284   1.285
  1.331   1.332   1.361   1.372   1.372   1.391   1.396   1.397
  1.548   1.549   1.608   1.651   1.698   1.700   1.861   1.902
  1.906   2.160   2.164   2.221   2.256   2.258   2.519   2.727
  3.104   3.110   3.131   3.131   3.239   3.240   3.346   3.347
  3.438   3.551   3.602   3.603   3.613   3.616   3.796   3.796
  3.802   3.802   3.864   3.865   3.866   3.914   3.914   4.133
  4.136   4.492   4.493   4.559   4.833   4.835   4.882   4.884
  5.141   5.241   5.245   5.471   5.474   5.570   6.204   8.847
  8.985  17.329  17.332  17.345  17.347  17.677  18.289  23.561
 23.653  23.668  23.741  23.757  23.868  23.869  23.932  23.933
 24.018  24.426  27.546  27.549  29.003  31.119  31.119  31.119
 31.119  31.124  31.124  31.125  31.125  31.129  31.132  31.160
 31.184  31.186  31.316  41.025  41.179  41.292  41.336  41.338
189.445 189.474
 
 Beta MOs
 -- Occupied --
-88.050 -88.050  -9.950  -7.688  -7.688  -5.703  -5.703  -5.699
 -5.699  -5.696  -5.696  -0.767  -0.677  -0.390  -0.311  -0.287
 -0.267  -0.157  -0.145
 -- Virtual --
  0.202   0.205   0.207   0.215   0.223   0.254   0.258   0.261
  0.261   0.277   0.341   0.349   0.385   0.399   0.422   0.494
  0.494   0.496   0.544   0.544   0.564   0.571   0.581   0.648
  0.653   0.656   0.711   0.713   0.720   0.777   0.793   0.975
  0.989   0.993   0.993   1.021   1.028   1.094   1.101   1.112
  1.176   1.176   1.199   1.199   1.223   1.224   1.233   1.290
  1.290   1.337   1.337   1.365   1.373   1.384   1.396   1.398
  1.409   1.564   1.564   1.613   1.664   1.700   1.713   1.868
  1.904   1.915   2.161   2.172   2.228   2.258   2.271   2.521
  2.734   3.121   3.148   3.171   3.174   3.257   3.258   3.349
  3.364   3.448   3.565   3.607   3.624   3.653   3.654   3.802
  3.802   3.809   3.809   3.867   3.882   3.882   3.921   3.922
  4.141   4.160   4.493   4.504   4.571   4.835   4.837   4.884
  4.886   5.147   5.241   5.248   5.473   5.485   5.573   6.208
  8.849   8.987  17.330  17.334  17.346  17.350  17.677  18.289
 23.566  23.654  23.669  23.742  23.758  23.867  23.870  23.931
 23.934  24.018  24.432  27.557  27.573  29.010  31.119  31.119
 31.119  31.120  31.124  31.124  31.125  31.126  31.129  31.132
 31.160  31.184  31.186  31.316  41.046  41.188  41.312  41.341
 41.355 189.445 189.475
 --------------------------------------------------------------
 
          Ground-State Mulliken Net Atomic Charges

     Atom                 Charge (a.u.)    Spin (a.u.)
  --------------------------------------------------------
      1 S                    -0.644595       0.289366
      2 C                     0.289186       0.421265
      3 S                    -0.644590       0.289368
  --------------------------------------------------------
  Sum of atomic charges =    -1.000000
  Sum of spin   charges =     1.000000

 -----------------------------------------------------------------
                    Cartesian Multipole Moments
 -----------------------------------------------------------------
    Charge (ESU x 10^10)
                -4.8032
    Dipole Moment (Debye)
         X       0.0000      Y       0.0000      Z      -7.5082
       Tot       7.5082
    Quadrupole Moments (Debye-Ang)
        XX     -37.3843     XY      -1.6449     YY     -37.4317
        XZ      -0.0002     YZ      -0.0001     ZZ     -61.1090
    Octapole Moments (Debye-Ang^2)
       XXX       0.0000    XXY       0.0000    XYY       0.0000
       YYY       0.0000    XXZ     -58.4379    XYZ      -2.5713
       YYZ     -58.5120    XZZ      -0.0007    YZZ      -0.0002
       ZZZ    -249.8783
    Hexadecapole Moments (Debye-Ang^3)
      XXXX     -64.0210   XXXY      -4.3517   XXYY     -21.3821
      XYYY      -4.3517   YYYY     -64.2724   XXXZ      -0.0007
      XXYZ      -0.0002   XYYZ      -0.0002   YYYZ      -0.0006
      XXZZ    -195.0593   XYZZ     -12.8181   YYZZ    -195.4291
      XZZZ      -0.0044   YZZZ      -0.0013   ZZZZ   -1270.5777
 -----------------------------------------------------------------
 Total job time:  80.92s(wall), 80.62s(cpu) 
 Thu Jul  4 19:21:40 2013

        *************************************************************
        *                                                           *
        *  Thank you very much for using Q-Chem.  Have a nice day.  *
        *                                                           *
        *************************************************************


0 sent ACK to 0 
now end server 0 ... 
 
**********************************************************************
Job 2 of 3 
**********************************************************************
 
Process 0 of 1 is on cl149.stfx.acenet.ca - thread support 1
initial socket setup ...start
initial socket setup ...done 
now start server 0 ... 

cmd = /usr/bin/ssh clhead /usr/local/qchem/bin/get_hostid 532047251 > /scratch/tmp/6061830.1.medium.q/qchem29865/lic.dat
                  Welcome to Q-Chem
     A Quantum Leap Into The Future Of Chemistry

 Y. Shao, L. Fusti-Molnar, Y. Jung, J. Kussmann, C. Ochsenfeld,
 S. T. Brown, A. T. B. Gilbert, L. V. Slipchenko,S. V. Levchenko,
 D. P. O'Neill, R. A. DiStasio Jr., R. C. Lochan, T. Wang,
 G. J. O. Beran, N. A. Besley, J. M. Herbert, C. Y. Lin,
 T. Van Voorhis, S. H. Chien, A. Sodt, R. P. Steele, 
 V. A. Rassolov, P. E. Maslen, P. P. Korambath, R. D. Adamson,
 B. Austin, J. Baker, E. F. C. Byrd, H. Dachsel, R. J. Doerksen,
 A. Dreuw, B. D. Dunietz, A. D. Dutoi, T. R. Furlani,
 S. R. Gwaltney, A. Heyden, S. Hirata, C.-P. Hsu, G. Kedziora,
 R. Z. Khaliullin, P. Klunzinger, A. M. Lee, M. S. Lee, W. Liang,
 I. Lotan, N. Nair, B. Peters, E. I. Proynov, P. A. Pieniazek, 
 Y. M. Rhee, J. Ritchie, E. Rosta, C. D. Sherrill, 
 A. C. Simmonett, J. E. Subotnik, H. L. Woodcock III,
 W. Zhang, A. T. Bell, A. K. Chakraborty, D. M. Chipman,
 F. J. Keil, A. Warshel, W. J. Hehre, H. F. Schaefer III,
 J. Kong, A. I. Krylov, P. M. W. Gill, M. Head-Gordon,
 Q-Chem, Version 3.1, Q-Chem, Inc., Pittsburgh, PA (2007).

 Additional authors for Version 3.1: 
 Z. Gan, Y. Zhao, N. E. Schultz, D. Truhlar, E. Epifanovsky and M. Oana.

 Additional authors for Version 3.2: 
 R. Baer, B. R. Brooks, D. Casanova, J.-D. Chai, C.-L. Cheng, 
 C. Cramer, D. Crittenden, A. Ghysels, G. Hawkins, E. G. Hohenstein, 
 C. Kelley, W. Kurlancheek, D. Liotard, E. Livshits, P. Manohar, 
 A. Marenich, D. Neuhauser, R. Olson, M. A. Rohrdanz, K. S. Thanthiriwatte, 
 A. J. W. Thom, V. Vanovschi, C. F. Williams, Q. Wu and Z.-Q. You. 


 Intel X86 Linux Version

 Q-chem begins on Thu Jul  4 19:21:43 2013  

 Parallel job on  1  processors
Processing $rem in /usr/local/qchem/config/preferences.

theFileMan(): MAXOPENFILES=974 MAX_SUB_FILE_NUM=16
Maximum size of a physical file is 2.0 GB, maximum size of a tmp-file is 32.0 GB


--------------------------------------------------------------
User input:
--------------------------------------------------------------

$molecule
0,1
S          0.00000        0.00000        0.01958
C          0.00000        0.00000        1.56317
S          0.00000        0.00000        3.10675
$end

$comment
neutral
$end

$xc_functional
C PBE   1.00
X wPBE  1.00
$end


$rem
SYMMETRY_DECOMPOSITION	0
LRC_DFT                 true
exchange 		general
BASIS                   g3large
omega			400
mem_static              760
max_scf_cycles          200
scf_final_print         1
sym_ignore              true
$end

--------------------------------------------------------------
 Writing REM_CC_EA            3
 ----------------------------------------------------
       Standard Nuclear Orientation (Angstroms)
    I     Atom         X            Y            Z
 ----------------------------------------------------
    1      S       0.000000     0.000000     0.019580
    2      C       0.000000     0.000000     1.563170
    3      S       0.000000     0.000000     3.106750
 ----------------------------------------------------
 Nuclear Repulsion Energy =   109.7035197006 hartrees
 There are       19 alpha and       19 beta electrons
 Requested basis set is G3large
 There are 48 shells and 174 basis functions

Total QAlloc Memory Limit   2000 MB
Mega-Array Size       743 MB
MEM_STATIC part       760 MB

                       Distance Matrix (Angstroms)
             S (  1)   C (  2)
   C (  2)  1.543590
   S (  3)  3.087170  1.543580
 
 A cutoff of  1.0D-08 yielded   1031 shell pairs
 There are  13994 function pairs ( 19618 Cartesian)
Evaluating contribution to one-electron hamiltonian from nuclear
 Smallest overlap matrix eigenvalue = 7.89E-05

 Q-Chem warning in module mkSTV.C, line 194:

 Overlap eigenvalue is smaller than square root of threshold

 Multipole matrices computed through 2nd order

  Scale SEOQF with 1.000000e-01/1.000000e-01/1.000000e-01

 Standard Electronic Orientation quadrupole field applied
 Nucleus-field energy     =    -0.0000000181 hartrees
 Guess from superposition of atomic densities
 Warning:  Energy on first SCF cycle will be non-variational
 Long-range K will be added via erf
 Coulomb attenuation parameter = 0.4 bohr**(-1)
 A restricted Kohn-Sham SCF calculation will be
 performed using Pulay DIIS extrapolation
 Exchange:  wPBE + LR-HF      Correlation:  PBE
 Using SG-1 standard quadrature grid
 SCF converges when DIIS error is below 1.0E-05
 Requested basis set is G3large
 There are 48 shells and 174 basis functions
 A cutoff of  1.0D-08 yielded   1031 shell pairs
 There are  13994 function pairs ( 19618 Cartesian)
 ---------------------------------------
  Cycle       Energy         DIIS Error
 ---------------------------------------
    1    -834.7775246391      2.98E-02
    2    -834.1614929988      2.37E-03
    3    -834.1743808443      2.85E-03
    4    -834.2025047024      3.85E-04
    5    -834.2055148498      1.34E-04
    6    -834.2058116643      3.70E-05
    7    -834.2058270779      7.43E-06 Convergence criterion met
 ---------------------------------------
 One-Electron    Energy = -1368.8769318034
 Total Coulomb   Energy =   481.4056795253
 Alpha Exchange  Energy =    -3.8984874305
 Beta  Exchange  Energy =    -3.8984874305
 DFT   Exchange  Energy =   -47.2106527001
 DFT Correlation Energy =    -1.4304669212
 Nuclear Repu.   Energy =   109.7035196825
 Nuclear Attr.   Energy = -2201.8929333948
 Kinetic         Energy =   833.0160015913
 SCF time:  CPU 60.34 s  wall 60.44 s
 Final Alpha MO Eigenvalues
            1           2           3           4           5           6
    1 -88.2908676 -88.2908618 -10.2453430  -7.9295998  -7.9295944  -5.9438121
            7           8           9          10          11          12
    1  -5.9437974  -5.9394814  -5.9394795  -5.9394758  -5.9394740  -1.0182078
           13          14          15          16          17          18
    1  -0.9192907  -0.6369408  -0.5536405  -0.5258112  -0.5257882  -0.3781051
           19          20          21          22          23          24
    1  -0.3780961  -0.0005916  -0.0005751   0.0591547   0.0768857   0.0840287
 Analysis of SCF Wavefunction
 
 --------------------------------------------------------------
                    Orbital Energies (a.u.)
 --------------------------------------------------------------
 
 Alpha MOs
 -- Occupied --
-88.291 -88.291 -10.245  -7.930  -7.930  -5.944  -5.944  -5.939
 -5.939  -5.939  -5.939  -1.018  -0.919  -0.637  -0.554  -0.526
 -0.526  -0.378  -0.378
 -- Virtual --
 -0.001  -0.001   0.059   0.077   0.084   0.100   0.100   0.124
  0.124   0.126   0.184   0.190   0.190   0.221   0.231   0.286
  0.286   0.325   0.336   0.336   0.367   0.367   0.389   0.464
  0.464   0.471   0.509   0.523   0.523   0.563   0.563   0.764
  0.764   0.771   0.771   0.802   0.812   0.883   0.889   0.889
  0.964   0.964   0.987   0.987   1.008   1.008   1.015   1.060
  1.061   1.108   1.108   1.152   1.152   1.152   1.187   1.187
  1.190   1.338   1.338   1.379   1.438   1.492   1.492   1.645
  1.680   1.680   1.938   1.938   2.002   2.035   2.035   2.295
  2.496   2.867   2.867   2.899   2.899   3.005   3.005   3.110
  3.110   3.202   3.313   3.365   3.365   3.378   3.378   3.562
  3.562   3.568   3.568   3.623   3.630   3.630   3.677   3.677
  3.894   3.894   4.255   4.255   4.319   4.595   4.597   4.643
  4.646   4.899   5.005   5.005   5.233   5.233   5.329   5.963
  8.610   8.746  17.091  17.091  17.107  17.107  17.437  18.048
 23.301  23.412  23.427  23.500  23.516  23.627  23.627  23.692
 23.692  23.777  24.165  27.268  27.268  28.723  30.878  30.878
 30.878  30.878  30.883  30.883  30.884  30.884  30.890  30.890
 30.919  30.944  30.944  31.074  40.743  40.895  41.009  41.053
 41.053 189.204 189.234
 --------------------------------------------------------------
 
          Ground-State Mulliken Net Atomic Charges

     Atom                 Charge (a.u.)
  ----------------------------------------
      1 S                    -0.217892
      2 C                     0.435526
      3 S                    -0.217634
  ----------------------------------------
  Sum of atomic charges =     0.000000

 -----------------------------------------------------------------
                    Cartesian Multipole Moments
 -----------------------------------------------------------------
    Charge (ESU x 10^10)
                 0.0000
    Dipole Moment (Debye)
         X       0.0000      Y       0.0000      Z       0.0000
       Tot       0.0000
    Quadrupole Moments (Debye-Ang)
        XX     -31.2487     XY       0.0002     YY     -31.2487
        XZ       0.0000     YZ       0.0000     ZZ     -28.2273
    Octapole Moments (Debye-Ang^2)
       XXX       0.0000    XXY       0.0000    XYY       0.0000
       YYY       0.0000    XXZ     -48.8468    XYZ       0.0003
       YYZ     -48.8468    XZZ       0.0001    YZZ      -0.0001
       ZZZ    -132.3721
    Hexadecapole Moments (Debye-Ang^3)
      XXXX     -39.8902   XXXY       0.0003   XXYY     -13.2968
      XYYY       0.0003   YYYY     -39.8902   XXXZ       0.0000
      XXYZ       0.0000   XYYZ       0.0000   YYYZ      -0.0001
      XXZZ    -150.3794   XYZZ       0.0021   YYZZ    -150.3793
      XZZZ       0.0002   YZZZ       0.0000   ZZZZ    -776.2019
 -----------------------------------------------------------------
 Total job time:  60.66s(wall), 60.55s(cpu) 
 Thu Jul  4 19:22:43 2013

        *************************************************************
        *                                                           *
        *  Thank you very much for using Q-Chem.  Have a nice day.  *
        *                                                           *
        *************************************************************


0 sent ACK to 0 
now end server 0 ... 
 
**********************************************************************
Job 3 of 3 
**********************************************************************
 
Process 0 of 1 is on cl149.stfx.acenet.ca - thread support 1
initial socket setup ...start
initial socket setup ...done 
now start server 0 ... 

cmd = /usr/bin/ssh clhead /usr/local/qchem/bin/get_hostid 396075378 > /scratch/tmp/6061830.1.medium.q/qchem29865/lic.dat
                  Welcome to Q-Chem
     A Quantum Leap Into The Future Of Chemistry

 Y. Shao, L. Fusti-Molnar, Y. Jung, J. Kussmann, C. Ochsenfeld,
 S. T. Brown, A. T. B. Gilbert, L. V. Slipchenko,S. V. Levchenko,
 D. P. O'Neill, R. A. DiStasio Jr., R. C. Lochan, T. Wang,
 G. J. O. Beran, N. A. Besley, J. M. Herbert, C. Y. Lin,
 T. Van Voorhis, S. H. Chien, A. Sodt, R. P. Steele, 
 V. A. Rassolov, P. E. Maslen, P. P. Korambath, R. D. Adamson,
 B. Austin, J. Baker, E. F. C. Byrd, H. Dachsel, R. J. Doerksen,
 A. Dreuw, B. D. Dunietz, A. D. Dutoi, T. R. Furlani,
 S. R. Gwaltney, A. Heyden, S. Hirata, C.-P. Hsu, G. Kedziora,
 R. Z. Khaliullin, P. Klunzinger, A. M. Lee, M. S. Lee, W. Liang,
 I. Lotan, N. Nair, B. Peters, E. I. Proynov, P. A. Pieniazek, 
 Y. M. Rhee, J. Ritchie, E. Rosta, C. D. Sherrill, 
 A. C. Simmonett, J. E. Subotnik, H. L. Woodcock III,
 W. Zhang, A. T. Bell, A. K. Chakraborty, D. M. Chipman,
 F. J. Keil, A. Warshel, W. J. Hehre, H. F. Schaefer III,
 J. Kong, A. I. Krylov, P. M. W. Gill, M. Head-Gordon,
 Q-Chem, Version 3.1, Q-Chem, Inc., Pittsburgh, PA (2007).

 Additional authors for Version 3.1: 
 Z. Gan, Y. Zhao, N. E. Schultz, D. Truhlar, E. Epifanovsky and M. Oana.

 Additional authors for Version 3.2: 
 R. Baer, B. R. Brooks, D. Casanova, J.-D. Chai, C.-L. Cheng, 
 C. Cramer, D. Crittenden, A. Ghysels, G. Hawkins, E. G. Hohenstein, 
 C. Kelley, W. Kurlancheek, D. Liotard, E. Livshits, P. Manohar, 
 A. Marenich, D. Neuhauser, R. Olson, M. A. Rohrdanz, K. S. Thanthiriwatte, 
 A. J. W. Thom, V. Vanovschi, C. F. Williams, Q. Wu and Z.-Q. You. 


 Intel X86 Linux Version

 Q-chem begins on Thu Jul  4 19:22:46 2013  

 Parallel job on  1  processors
Processing $rem in /usr/local/qchem/config/preferences.

theFileMan(): MAXOPENFILES=974 MAX_SUB_FILE_NUM=16
Maximum size of a physical file is 2.0 GB, maximum size of a tmp-file is 32.0 GB


--------------------------------------------------------------
User input:
--------------------------------------------------------------

$molecule
1,2
S          0.00000        0.00000        0.01958
C          0.00000        0.00000        1.56317
S          0.00000        0.00000        3.10675
$end

$comment
positive
$end

$xc_functional
C PBE   1.00
X wPBE  1.00
$end

$rem
SYMMETRY_DECOMPOSITION	0
LRC_DFT                 true
exchange 		general
BASIS                   g3large
omega			400
mem_static              760
max_scf_cycles          200
scf_final_print         1
sym_ignore              true
$end

--------------------------------------------------------------
 Writing REM_CC_EA            3
 ----------------------------------------------------
       Standard Nuclear Orientation (Angstroms)
    I     Atom         X            Y            Z
 ----------------------------------------------------
    1      S       0.000000     0.000000     0.019580
    2      C       0.000000     0.000000     1.563170
    3      S       0.000000     0.000000     3.106750
 ----------------------------------------------------
 Nuclear Repulsion Energy =   109.7035197006 hartrees
 There are       19 alpha and       18 beta electrons
 Requested basis set is G3large
 There are 48 shells and 174 basis functions

Total QAlloc Memory Limit   2000 MB
Mega-Array Size       743 MB
MEM_STATIC part       760 MB

                       Distance Matrix (Angstroms)
             S (  1)   C (  2)
   C (  2)  1.543590
   S (  3)  3.087170  1.543580
 
 A cutoff of  1.0D-08 yielded   1031 shell pairs
 There are  13994 function pairs ( 19618 Cartesian)
Evaluating contribution to one-electron hamiltonian from nuclear
 Smallest overlap matrix eigenvalue = 7.89E-05

 Q-Chem warning in module mkSTV.C, line 194:

 Overlap eigenvalue is smaller than square root of threshold

 Multipole matrices computed through 2nd order

  Scale SEOQF with 1.000000e-01/1.000000e-01/1.000000e-01

 Standard Electronic Orientation quadrupole field applied
 Nucleus-field energy     =    -0.0000000181 hartrees
 Guess from superposition of atomic densities
 Warning:  Energy on first SCF cycle will be non-variational
 Long-range K will be added via erf
 Coulomb attenuation parameter = 0.4 bohr**(-1)
 An unrestricted Kohn-Sham SCF calculation will be
 performed using Pulay DIIS extrapolation
 Exchange:  wPBE + LR-HF      Correlation:  PBE
 Using SG-1 standard quadrature grid
 SCF converges when DIIS error is below 1.0E-05
 Requested basis set is G3large
 There are 48 shells and 174 basis functions
 A cutoff of  1.0D-08 yielded   1031 shell pairs
 There are  13994 function pairs ( 19618 Cartesian)
 Warning!  Inaccurate integrated density:
   Number of electrons =    37
   Numerical integral  =    37.999950622129
   Relative error      =     2.7025692490 %
 ---------------------------------------
  Cycle       Energy         DIIS Error
 ---------------------------------------
    1    -834.7775246391      2.98E-02
    2    -833.7589022113      3.07E-03
    3    -833.7959042141      3.12E-03
    4    -833.8298146210      5.92E-04
    5    -833.8332755933      2.40E-04
    6    -833.8346094739      7.58E-05
    7    -833.8351817571      2.12E-05
    8    -833.8353309201      5.76E-06 Convergence criterion met
 ---------------------------------------
 One-Electron    Energy = -1358.3779181063
 Total Coulomb   Energy =   470.9777783223
 Alpha Exchange  Energy =    -3.9177608469
 Beta  Exchange  Energy =    -3.7243367212
 DFT   Exchange  Energy =   -47.1074654006
 DFT Correlation Energy =    -1.3891478499
 Nuclear Repu.   Energy =   109.7035196825
 Nuclear Attr.   Energy = -2191.0670312729
 Kinetic         Energy =   832.6891131666
 <S^2> = 0.8352
 SCF time:  CPU 84.35 s  wall 84.78 s
 Final Alpha MO Eigenvalues
            1           2           3           4           5           6
    1 -88.5886371 -88.5886323 -10.4837013  -8.2227088  -8.2227059  -6.2416164
            7           8           9          10          11          12
    1  -6.2416102  -6.2345446  -6.2345319  -6.2293541  -6.2293519  -1.2831011
           13          14          15          16          17          18
    1  -1.1975639  -0.8998267  -0.8147337  -0.7921887  -0.7760220  -0.6777532
           19          20          21          22          23          24
    1  -0.6400833  -0.2439147  -0.2347997  -0.1041745  -0.1003129  -0.0623269
 Final Beta MO Eigenvalues
            1           2           3           4           5           6
    1 -88.5851286 -88.5851273 -10.4888225  -8.2194045  -8.2193888  -6.2326958
            7           8           9          10          11          12
    1  -6.2326852  -6.2322565  -6.2322555  -6.2267043  -6.2267036  -1.2739951
           13          14          15          16          17          18
    1  -1.1672525  -0.8850815  -0.8039816  -0.7755473  -0.7509318  -0.6264580
           19          20          21          22          23
    1  -0.3628561  -0.2371788  -0.2054672  -0.1026980  -0.0933086
 Analysis of SCF Wavefunction
 
 --------------------------------------------------------------
                    Orbital Energies (a.u.)
 --------------------------------------------------------------
 
 Alpha MOs
 -- Occupied --
-88.589 -88.589 -10.484  -8.223  -8.223  -6.242  -6.242  -6.235
 -6.235  -6.229  -6.229  -1.283  -1.198  -0.900  -0.815  -0.792
 -0.776  -0.678  -0.640
 -- Virtual --
 -0.244  -0.235  -0.104  -0.100  -0.062  -0.054  -0.049  -0.038
 -0.022  -0.017  -0.011   0.037   0.040   0.046   0.050   0.050
  0.057   0.098   0.100   0.128   0.143   0.151   0.210   0.253
  0.267   0.287   0.298   0.309   0.323   0.335   0.345   0.533
  0.533   0.556   0.562   0.585   0.586   0.648   0.651   0.661
  0.727   0.727   0.750   0.750   0.768   0.768   0.775   0.789
  0.794   0.843   0.844   0.893   0.910   0.919   0.947   0.961
  0.971   1.107   1.107   1.123   1.204   1.251   1.268   1.413
  1.413   1.431   1.667   1.688   1.768   1.771   1.790   2.047
  2.236   2.632   2.635   2.664   2.664   2.755   2.755   2.844
  2.856   2.942   3.067   3.103   3.113   3.133   3.133   3.267
  3.267   3.273   3.273   3.347   3.361   3.361   3.394   3.398
  3.625   3.636   3.971   3.986   4.056   4.304   4.307   4.354
  4.356   4.629   4.714   4.730   4.948   4.964   5.051   5.688
  8.325   8.463  16.789  16.803  16.805  16.819  17.147  17.760
 23.034  23.115  23.131  23.204  23.219  23.330  23.340  23.394
 23.404  23.486  23.901  27.029  27.034  28.481  30.582  30.582
 30.583  30.583  30.590  30.590  30.592  30.592  30.594  30.603
 30.629  30.649  30.657  30.785  40.508  40.656  40.774  40.813
 40.817 188.908 188.937
 
 Beta MOs
 -- Occupied --
-88.585 -88.585 -10.489  -8.219  -8.219  -6.233  -6.233  -6.232
 -6.232  -6.227  -6.227  -1.274  -1.167  -0.885  -0.804  -0.776
 -0.751  -0.626
 -- Virtual --
 -0.363  -0.237  -0.205  -0.103  -0.093  -0.061  -0.049  -0.049
 -0.030  -0.017  -0.017  -0.009   0.035   0.039   0.052   0.056
  0.071   0.072   0.126   0.128   0.146   0.153   0.155   0.213
  0.270   0.273   0.290   0.300   0.326   0.327   0.343   0.344
  0.532   0.532   0.553   0.560   0.585   0.594   0.660   0.661
  0.663   0.745   0.745   0.769   0.770   0.783   0.784   0.784
  0.814   0.816   0.864   0.866   0.912   0.912   0.932   0.962
  0.963   0.978   1.110   1.110   1.130   1.210   1.272   1.272
  1.420   1.434   1.435   1.694   1.695   1.767   1.794   1.794
  2.051   2.238   2.614   2.623   2.644   2.644   2.750   2.751
  2.854   2.856   2.947   3.063   3.109   3.112   3.120   3.121
  3.304   3.305   3.311   3.311   3.363   3.371   3.372   3.414
  3.415   3.633   3.635   3.983   3.986   4.056   4.315   4.318
  4.364   4.367   4.628   4.725   4.732   4.961   4.966   5.058
  5.699   8.331   8.469  16.804  16.807  16.820  16.824  17.150
 17.762  23.034  23.123  23.139  23.211  23.227  23.337  23.341
 23.401  23.405  23.489  23.900  27.021  27.024  28.477  30.586
 30.586  30.586  30.587  30.592  30.593  30.594  30.594  30.597
 30.603  30.630  30.652  30.657  30.787  40.498  40.651  40.764
 40.808  40.810 188.912 188.941
 --------------------------------------------------------------
 
          Ground-State Mulliken Net Atomic Charges

     Atom                 Charge (a.u.)    Spin (a.u.)
  --------------------------------------------------------
      1 S                     0.153077       0.672313
      2 C                     0.693803      -0.344599
      3 S                     0.153120       0.672285
  --------------------------------------------------------
  Sum of atomic charges =     1.000000
  Sum of spin   charges =     1.000000

 -----------------------------------------------------------------
                    Cartesian Multipole Moments
 -----------------------------------------------------------------
    Charge (ESU x 10^10)
                 4.8032
    Dipole Moment (Debye)
         X       0.0000      Y       0.0000      Z       7.5083
       Tot       7.5083
    Quadrupole Moments (Debye-Ang)
        XX     -26.7715     XY       1.1153     YY     -26.7891
        XZ      -0.0001     YZ       0.0000     ZZ      -0.2586
    Octapole Moments (Debye-Ang^2)
       XXX       0.0000    XXY       0.0000    XYY       0.0000
       YYY       0.0000    XXZ     -41.8482    XYZ       1.7435
       YYZ     -41.8757    XZZ      -0.0001    YZZ       0.0000
       ZZZ     -37.9058
    Hexadecapole Moments (Debye-Ang^3)
      XXXX     -29.2845   XXXY       1.1357   XXYY      -9.7709
      XYYY       1.1357   YYYY     -29.3203   XXXZ       0.0000
      XXYZ       0.0000   XYYZ       0.0000   YYYZ       0.0000
      XXZZ    -124.8834   XYZZ       5.9165   YYZZ    -124.9768
      XZZZ      -0.0007   YZZZ       0.0001   ZZZZ    -423.2178
 -----------------------------------------------------------------
 Total job time:  85.00s(wall), 84.56s(cpu) 
 Thu Jul  4 19:24:11 2013

        *************************************************************
        *                                                           *
        *  Thank you very much for using Q-Chem.  Have a nice day.  *
        *                                                           *
        *************************************************************


0 sent ACK to 0 
now end server 0 ... 
