Process 0 of 1 is on cl173.stfx.acenet.ca - thread support 1
initial socket setup ...start
initial socket setup ...done 
now start server 0 ... 

cmd = /usr/bin/ssh clhead /usr/local/qchem/bin/get_hostid 1284426608 > /scratch/tmp/5954976.1.medium.q/qchem5755/lic.dat
                  Welcome to Q-Chem
     A Quantum Leap Into The Future Of Chemistry

 Y. Shao, L. Fusti-Molnar, Y. Jung, J. Kussmann, C. Ochsenfeld,
 S. T. Brown, A. T. B. Gilbert, L. V. Slipchenko,S. V. Levchenko,
 D. P. O'Neill, R. A. DiStasio Jr., R. C. Lochan, T. Wang,
 G. J. O. Beran, N. A. Besley, J. M. Herbert, C. Y. Lin,
 T. Van Voorhis, S. H. Chien, A. Sodt, R. P. Steele, 
 V. A. Rassolov, P. E. Maslen, P. P. Korambath, R. D. Adamson,
 B. Austin, J. Baker, E. F. C. Byrd, H. Dachsel, R. J. Doerksen,
 A. Dreuw, B. D. Dunietz, A. D. Dutoi, T. R. Furlani,
 S. R. Gwaltney, A. Heyden, S. Hirata, C.-P. Hsu, G. Kedziora,
 R. Z. Khaliullin, P. Klunzinger, A. M. Lee, M. S. Lee, W. Liang,
 I. Lotan, N. Nair, B. Peters, E. I. Proynov, P. A. Pieniazek, 
 Y. M. Rhee, J. Ritchie, E. Rosta, C. D. Sherrill, 
 A. C. Simmonett, J. E. Subotnik, H. L. Woodcock III,
 W. Zhang, A. T. Bell, A. K. Chakraborty, D. M. Chipman,
 F. J. Keil, A. Warshel, W. J. Hehre, H. F. Schaefer III,
 J. Kong, A. I. Krylov, P. M. W. Gill, M. Head-Gordon,
 Q-Chem, Version 3.1, Q-Chem, Inc., Pittsburgh, PA (2007).

 Additional authors for Version 3.1: 
 Z. Gan, Y. Zhao, N. E. Schultz, D. Truhlar, E. Epifanovsky and M. Oana.

 Additional authors for Version 3.2: 
 R. Baer, B. R. Brooks, D. Casanova, J.-D. Chai, C.-L. Cheng, 
 C. Cramer, D. Crittenden, A. Ghysels, G. Hawkins, E. G. Hohenstein, 
 C. Kelley, W. Kurlancheek, D. Liotard, E. Livshits, P. Manohar, 
 A. Marenich, D. Neuhauser, R. Olson, M. A. Rohrdanz, K. S. Thanthiriwatte, 
 A. J. W. Thom, V. Vanovschi, C. F. Williams, Q. Wu and Z.-Q. You. 


 Intel X86 Linux Version

 Q-chem begins on Wed Apr 24 16:03:19 2013  

 Parallel job on  1  processors
Processing $rem in /usr/local/qchem/config/preferences.

theFileMan(): MAXOPENFILES=974 MAX_SUB_FILE_NUM=16
Maximum size of a physical file is 2.0 GB, maximum size of a tmp-file is 32.0 GB


--------------------------------------------------------------
User input:
--------------------------------------------------------------

$molecule
-1,2
N,0.,0.,1.8539909259
C,0.,0.,0.6902279316
C,0.,0.,-0.6902279316
N,0.,0.,-1.8539909259

$end

$comment
negative
$end

$xc_functional
C PBE   1.00
X wPBE  1.00
$end

$rem
SYMMETRY_DECOMPOSITION	0
exchange 		general
LRC_DFT                 true
BASIS                   g3large
omega			2000
mem_static              760
max_scf_cycles          200
scf_final_print         1
sym_ignore              true
$end

--------------------------------------------------------------
 Writing REM_CC_EA            4
 ----------------------------------------------------
       Standard Nuclear Orientation (Angstroms)
    I     Atom         X            Y            Z
 ----------------------------------------------------
    1      N       0.000000     0.000000     1.853991
    2      C       0.000000     0.000000     0.690228
    3      C       0.000000     0.000000    -0.690228
    4      N       0.000000     0.000000    -1.853991
 ----------------------------------------------------
 Nuclear Repulsion Energy =    76.4601538996 hartrees
 There are       14 alpha and       13 beta electrons
 Requested basis set is G3large
 There are 40 shells and 168 basis functions

Total QAlloc Memory Limit   2000 MB
Mega-Array Size       743 MB
MEM_STATIC part       760 MB

                       Distance Matrix (Angstroms)
             N (  1)   C (  2)   C (  3)
   C (  2)  1.163763
   C (  3)  2.544219  1.380456
   N (  4)  3.707982  2.544219  1.163763
 
 A cutoff of  1.0D-08 yielded    714 shell pairs
 There are  12965 function pairs ( 16965 Cartesian)
Evaluating contribution to one-electron hamiltonian from nuclear
 Smallest overlap matrix eigenvalue = 9.55E-06

 Q-Chem warning in module mkSTV.C, line 194:

 Overlap eigenvalue is smaller than square root of threshold

 Multipole matrices computed through 2nd order

  Scale SEOQF with 1.000000e-01/1.000000e-01/1.000000e-01

 Standard Electronic Orientation quadrupole field applied
 Nucleus-field energy     =    -0.0000000058 hartrees
 Guess from superposition of atomic densities
 Warning:  Energy on first SCF cycle will be non-variational
 Long-range K will be added via erf
 Coulomb attenuation parameter = 2 bohr**(-1)
 An unrestricted Kohn-Sham SCF calculation will be
 performed using Pulay DIIS extrapolation
 Exchange:  wPBE + LR-HF      Correlation:  PBE
 Using SG-1 standard quadrature grid
 SCF converges when DIIS error is below 1.0E-05
 Requested basis set is G3large
 There are 40 shells and 168 basis functions
 A cutoff of  1.0D-08 yielded    714 shell pairs
 There are  12965 function pairs ( 16965 Cartesian)
 Warning!  Inaccurate integrated density:
   Number of electrons =    27
   Numerical integral  =    26.000074817709
   Relative error      =    -3.7034266011 %
 ---------------------------------------
  Cycle       Energy         DIIS Error
 ---------------------------------------
    1    -186.3185040475      3.86E-02
    2    -185.3620312650      5.38E-03
    3    -185.4224531359      4.92E-03
    4    -185.4965150798      6.71E-04
    5    -185.5033023139      2.72E-04
    6    -185.5044836622      1.03E-04
    7    -185.5047505985      2.52E-05
    8    -185.5047857797      7.21E-06 Convergence criterion met
 ---------------------------------------
 One-Electron    Energy =  -407.6145727878
 Total Coulomb   Energy =   170.2608025278
 Alpha Exchange  Energy =    -7.6995109357
 Beta  Exchange  Energy =    -7.2082662345
 DFT   Exchange  Energy =    -8.8246116894
 DFT Correlation Energy =    -0.8787805540
 Nuclear Repu.   Energy =    76.4601538938
 Nuclear Attr.   Energy =  -592.2142465388
 Kinetic         Energy =   184.5996737510
 <S^2> = 0.7970
 SCF time:  CPU 53.90 s  wall 54.54 s
 Final Alpha MO Eigenvalues
            1           2           3           4           5           6
    1 -14.7416951 -14.7416608 -10.6581734 -10.6567726  -1.0640584  -1.0390145
            7           8           9          10          11          12
    1  -0.7481950  -0.4235760  -0.4192970  -0.3992139  -0.3689515  -0.3405730
           13          14          15          16          17          18
    1  -0.2711903  -0.0619682   0.1956646   0.2054495   0.2513316   0.2637062
           19
    1   0.2719794
 Final Beta MO Eigenvalues
            1           2           3           4           5           6
    1 -14.7304343 -14.7303985 -10.6583589 -10.6571290  -1.0412644  -1.0145386
            7           8           9          10          11          12
    1  -0.7105116  -0.3919560  -0.3753695  -0.3656508  -0.3474667  -0.2613319
           13          14          15          16          17          18
    1  -0.2381746   0.1962206   0.2059746   0.2568210   0.2635175   0.2767013
 Analysis of SCF Wavefunction
 
 --------------------------------------------------------------
                    Orbital Energies (a.u.)
 --------------------------------------------------------------
 
 Alpha MOs
 -- Occupied --
-14.742 -14.742 -10.658 -10.657  -1.064  -1.039  -0.748  -0.424
 -0.419  -0.399  -0.369  -0.341  -0.271  -0.062
 -- Virtual --
  0.196   0.205   0.251   0.264   0.272   0.277   0.278   0.315
  0.323   0.412   0.425   0.428   0.433   0.438   0.442   0.453
  0.504   0.521   0.577   0.608   0.813   0.835   0.840   0.873
  0.873   0.941   0.947   0.957   1.007   1.100   1.100   1.133
  1.133   1.163   1.168   1.173   1.232   1.248   1.302   1.325
  1.341   1.500   1.501   1.632   1.688   1.689   1.697   1.786
  1.793   1.964   2.126   2.127   2.447   2.457   2.458   2.459
  2.498   2.849   3.099   3.099   3.110   3.110   3.129   3.146
  3.146   3.287   3.294   3.355   3.355   3.387   3.394   3.610
  3.610   3.617   3.617   3.697   3.700   3.735   3.744   3.926
  3.926   3.992   3.994   4.153   4.153   4.189   4.189   4.398
  4.404   4.445   4.543   4.548   4.713   4.718   4.720   4.915
  5.108   5.113   5.193   5.193   5.197   5.368   5.368   5.419
  5.419   5.634   5.693   5.694   5.821   5.822   6.297   6.444
  6.450   7.061   7.419   7.426   7.511   8.764  25.300  25.602
 28.146  28.148  28.346  28.349  29.525  30.875  36.982  37.787
 38.332  38.336  38.674  38.677  39.152  39.281  41.349  41.357
 41.433  41.441  41.452  41.512  41.512  41.687  41.688  41.708
 41.722  41.900  41.914  42.003  42.067  42.069  42.135  42.136
 42.483  42.536
 
 Beta MOs
 -- Occupied --
-14.730 -14.730 -10.658 -10.657  -1.041  -1.015  -0.711  -0.392
 -0.375  -0.366  -0.347  -0.261  -0.238
 -- Virtual --
  0.196   0.206   0.257   0.264   0.277   0.277   0.279   0.296
  0.318   0.322   0.429   0.430   0.439   0.442   0.442   0.445
  0.454   0.503   0.583   0.601   0.615   0.821   0.839   0.848
  0.883   0.884   0.939   0.947   0.959   1.011   1.100   1.100
  1.136   1.141   1.176   1.176   1.191   1.253   1.269   1.331
  1.349   1.351   1.528   1.528   1.641   1.704   1.709   1.710
  1.795   1.812   1.966   2.129   2.145   2.451   2.461   2.462
  2.474   2.505   2.858   3.103   3.103   3.117   3.119   3.136
  3.145   3.162   3.286   3.297   3.356   3.356   3.386   3.397
  3.613   3.613   3.616   3.616   3.697   3.709   3.737   3.749
  3.932   3.933   3.994   4.009   4.170   4.170   4.206   4.206
  4.414   4.438   4.453   4.556   4.579   4.717   4.728   4.736
  4.921   5.111   5.130   5.201   5.201   5.205   5.404   5.404
  5.454   5.454   5.641   5.699   5.718   5.825   5.842   6.301
  6.447   6.464   7.065   7.423   7.440   7.516   8.768  25.299
 25.602  28.145  28.149  28.346  28.349  29.524  30.875  36.993
 37.798  38.337  38.349  38.678  38.691  39.156  39.285  41.366
 41.374  41.447  41.458  41.460  41.516  41.528  41.691  41.704
 41.709  41.723  41.900  41.914  42.005  42.067  42.070  42.134
 42.138  42.486  42.538
 --------------------------------------------------------------
 
          Ground-State Mulliken Net Atomic Charges

     Atom                 Charge (a.u.)    Spin (a.u.)
  --------------------------------------------------------
      1 N                    -0.639591       0.451293
      2 C                     0.139583       0.048714
      3 C                     0.139611       0.048700
      4 N                    -0.639603       0.451294
  --------------------------------------------------------
  Sum of atomic charges =    -1.000000
  Sum of spin   charges =     1.000000

 -----------------------------------------------------------------
                    Cartesian Multipole Moments
 -----------------------------------------------------------------
    Charge (ESU x 10^10)
                -4.8032
    Dipole Moment (Debye)
         X       0.0000      Y       0.0000      Z       0.0000
       Tot       0.0000
    Quadrupole Moments (Debye-Ang)
        XX     -24.7575     XY      -0.9139     YY     -24.7567
        XZ       0.0000     YZ      -0.0001     ZZ     -46.5655
    Octapole Moments (Debye-Ang^2)
       XXX       0.0000    XXY       0.0000    XYY       0.0000
       YYY       0.0000    XXZ       0.0000    XYZ       0.0000
       YYZ       0.0000    XZZ       0.0000    YZZ       0.0000
       ZZZ       0.0000
    Hexadecapole Moments (Debye-Ang^3)
      XXXX     -28.9755   XXXY      -1.1964   XXYY      -9.6585
      XYYY      -1.1964   YYYY     -28.9733   XXXZ       0.0000
      XXYZ       0.0000   XYYZ       0.0000   YYYZ      -0.0001
      XXZZ     -62.3875   XYZZ      -2.2246   YYZZ     -62.3854
      XZZZ      -0.0002   YZZZ      -0.0006   ZZZZ    -435.9874
 -----------------------------------------------------------------
 Total job time:  54.74s(wall), 54.09s(cpu) 
 Wed Apr 24 16:04:14 2013

        *************************************************************
        *                                                           *
        *  Thank you very much for using Q-Chem.  Have a nice day.  *
        *                                                           *
        *************************************************************


0 sent ACK to 0 
now end server 0 ... 
 
**********************************************************************
Job 2 of 3 
**********************************************************************
 
Process 0 of 1 is on cl173.stfx.acenet.ca - thread support 1
initial socket setup ...start
initial socket setup ...done 
now start server 0 ... 

cmd = /usr/bin/ssh clhead /usr/local/qchem/bin/get_hostid 1882688178 > /scratch/tmp/5954976.1.medium.q/qchem5755/lic.dat
                  Welcome to Q-Chem
     A Quantum Leap Into The Future Of Chemistry

 Y. Shao, L. Fusti-Molnar, Y. Jung, J. Kussmann, C. Ochsenfeld,
 S. T. Brown, A. T. B. Gilbert, L. V. Slipchenko,S. V. Levchenko,
 D. P. O'Neill, R. A. DiStasio Jr., R. C. Lochan, T. Wang,
 G. J. O. Beran, N. A. Besley, J. M. Herbert, C. Y. Lin,
 T. Van Voorhis, S. H. Chien, A. Sodt, R. P. Steele, 
 V. A. Rassolov, P. E. Maslen, P. P. Korambath, R. D. Adamson,
 B. Austin, J. Baker, E. F. C. Byrd, H. Dachsel, R. J. Doerksen,
 A. Dreuw, B. D. Dunietz, A. D. Dutoi, T. R. Furlani,
 S. R. Gwaltney, A. Heyden, S. Hirata, C.-P. Hsu, G. Kedziora,
 R. Z. Khaliullin, P. Klunzinger, A. M. Lee, M. S. Lee, W. Liang,
 I. Lotan, N. Nair, B. Peters, E. I. Proynov, P. A. Pieniazek, 
 Y. M. Rhee, J. Ritchie, E. Rosta, C. D. Sherrill, 
 A. C. Simmonett, J. E. Subotnik, H. L. Woodcock III,
 W. Zhang, A. T. Bell, A. K. Chakraborty, D. M. Chipman,
 F. J. Keil, A. Warshel, W. J. Hehre, H. F. Schaefer III,
 J. Kong, A. I. Krylov, P. M. W. Gill, M. Head-Gordon,
 Q-Chem, Version 3.1, Q-Chem, Inc., Pittsburgh, PA (2007).

 Additional authors for Version 3.1: 
 Z. Gan, Y. Zhao, N. E. Schultz, D. Truhlar, E. Epifanovsky and M. Oana.

 Additional authors for Version 3.2: 
 R. Baer, B. R. Brooks, D. Casanova, J.-D. Chai, C.-L. Cheng, 
 C. Cramer, D. Crittenden, A. Ghysels, G. Hawkins, E. G. Hohenstein, 
 C. Kelley, W. Kurlancheek, D. Liotard, E. Livshits, P. Manohar, 
 A. Marenich, D. Neuhauser, R. Olson, M. A. Rohrdanz, K. S. Thanthiriwatte, 
 A. J. W. Thom, V. Vanovschi, C. F. Williams, Q. Wu and Z.-Q. You. 


 Intel X86 Linux Version

 Q-chem begins on Wed Apr 24 16:04:16 2013  

 Parallel job on  1  processors
Processing $rem in /usr/local/qchem/config/preferences.

theFileMan(): MAXOPENFILES=974 MAX_SUB_FILE_NUM=16
Maximum size of a physical file is 2.0 GB, maximum size of a tmp-file is 32.0 GB


--------------------------------------------------------------
User input:
--------------------------------------------------------------

$molecule
0,1
N,0.,0.,1.8539909259
C,0.,0.,0.6902279316
C,0.,0.,-0.6902279316
N,0.,0.,-1.8539909259

$end

$comment
neutral
$end

$xc_functional
C PBE   1.00
X wPBE  1.00
$end


$rem
SYMMETRY_DECOMPOSITION	0
LRC_DFT                 true
exchange 		general
BASIS                   g3large
omega			2000
mem_static              760
max_scf_cycles          200
scf_final_print         1
sym_ignore              true
$end

--------------------------------------------------------------
 Writing REM_CC_EA            4
 ----------------------------------------------------
       Standard Nuclear Orientation (Angstroms)
    I     Atom         X            Y            Z
 ----------------------------------------------------
    1      N       0.000000     0.000000     1.853991
    2      C       0.000000     0.000000     0.690228
    3      C       0.000000     0.000000    -0.690228
    4      N       0.000000     0.000000    -1.853991
 ----------------------------------------------------
 Nuclear Repulsion Energy =    76.4601538996 hartrees
 There are       13 alpha and       13 beta electrons
 Requested basis set is G3large
 There are 40 shells and 168 basis functions

Total QAlloc Memory Limit   2000 MB
Mega-Array Size       743 MB
MEM_STATIC part       760 MB

                       Distance Matrix (Angstroms)
             N (  1)   C (  2)   C (  3)
   C (  2)  1.163763
   C (  3)  2.544219  1.380456
   N (  4)  3.707982  2.544219  1.163763
 
 A cutoff of  1.0D-08 yielded    714 shell pairs
 There are  12965 function pairs ( 16965 Cartesian)
Evaluating contribution to one-electron hamiltonian from nuclear
 Smallest overlap matrix eigenvalue = 9.55E-06

 Q-Chem warning in module mkSTV.C, line 194:

 Overlap eigenvalue is smaller than square root of threshold

 Multipole matrices computed through 2nd order

  Scale SEOQF with 1.000000e-01/1.000000e-01/1.000000e-01

 Standard Electronic Orientation quadrupole field applied
 Nucleus-field energy     =    -0.0000000058 hartrees
 Guess from superposition of atomic densities
 Warning:  Energy on first SCF cycle will be non-variational
 Long-range K will be added via erf
 Coulomb attenuation parameter = 2 bohr**(-1)
 A restricted Kohn-Sham SCF calculation will be
 performed using Pulay DIIS extrapolation
 Exchange:  wPBE + LR-HF      Correlation:  PBE
 Using SG-1 standard quadrature grid
 SCF converges when DIIS error is below 1.0E-05
 Requested basis set is G3large
 There are 40 shells and 168 basis functions
 A cutoff of  1.0D-08 yielded    714 shell pairs
 There are  12965 function pairs ( 16965 Cartesian)
 ---------------------------------------
  Cycle       Energy         DIIS Error
 ---------------------------------------
    1    -186.3185040475      3.86E-02
    2    -185.3514050972      5.26E-03
    3    -185.3870862037      5.44E-03
    4    -185.4728857278      6.83E-04
    5    -185.4781526273      3.11E-04
    6    -185.4796604136      1.45E-04
    7    -185.4801289590      4.25E-05
    8    -185.4801693506      1.09E-05
    9    -185.4801704252      1.83E-06 Convergence criterion met
 ---------------------------------------
 One-Electron    Energy =  -400.3942597344
 Total Coulomb   Energy =   162.7057555058
 Alpha Exchange  Energy =    -7.3002780500
 Beta  Exchange  Energy =    -7.3002780500
 DFT   Exchange  Energy =    -8.8062906437
 DFT Correlation Energy =    -0.8449733467
 Nuclear Repu.   Energy =    76.4601538938
 Nuclear Attr.   Energy =  -584.5979873888
 Kinetic         Energy =   184.2037276544
 SCF time:  CPU 50.00 s  wall 51.04 s
 Final Alpha MO Eigenvalues
            1           2           3           4           5           6
    1 -15.0439395 -15.0438535 -10.9441144 -10.9428574  -1.3325470  -1.3059633
            7           8           9          10          11          12
    1  -1.0194259  -0.6762149  -0.6595806  -0.6409044  -0.6409020  -0.5372532
           13          14          15          16          17          18
    1  -0.5372530   0.0108078   0.0108080   0.0489465   0.0765615   0.1031867
 Analysis of SCF Wavefunction
 
 --------------------------------------------------------------
                    Orbital Energies (a.u.)
 --------------------------------------------------------------
 
 Alpha MOs
 -- Occupied --
-15.044 -15.044 -10.944 -10.943  -1.333  -1.306  -1.019  -0.676
 -0.660  -0.641  -0.641  -0.537  -0.537
 -- Virtual --
  0.011   0.011   0.049   0.077   0.103   0.103   0.137   0.137
  0.151   0.174   0.252   0.252   0.254   0.261   0.261   0.266
  0.292   0.331   0.351   0.351   0.390   0.586   0.608   0.608
  0.623   0.623   0.715   0.715   0.741   0.788   0.844   0.845
  0.917   0.917   0.945   0.945   0.959   1.026   1.026   1.066
  1.066   1.085   1.262   1.262   1.362   1.447   1.447   1.463
  1.538   1.538   1.716   1.875   1.875   2.199   2.204   2.218
  2.218   2.253   2.580   2.821   2.821   2.832   2.832   2.855
  2.866   2.866   3.015   3.015   3.077   3.077   3.116   3.116
  3.330   3.330   3.344   3.344   3.425   3.425   3.458   3.476
  3.642   3.642   3.716   3.716   3.885   3.885   3.920   3.920
  4.132   4.132   4.168   4.276   4.276   4.443   4.446   4.446
  4.638   4.828   4.828   4.918   4.918   4.921   5.098   5.098
  5.148   5.148   5.364   5.425   5.425   5.555   5.555   6.024
  6.166   6.167   6.781   7.143   7.143   7.227   8.484  25.013
 25.318  27.862  27.862  28.062  28.062  29.238  30.590  36.682
 37.487  38.030  38.030  38.371  38.371  38.850  38.978  41.047
 41.056  41.131  41.140  41.156  41.212  41.212  41.387  41.387
 41.422  41.436  41.614  41.628  41.711  41.782  41.782  41.849
 41.849  42.189  42.246
 --------------------------------------------------------------
 
          Ground-State Mulliken Net Atomic Charges

     Atom                 Charge (a.u.)
  ----------------------------------------
      1 N                    -0.329640
      2 C                     0.329633
      3 C                     0.329577
      4 N                    -0.329570
  ----------------------------------------
  Sum of atomic charges =     0.000000

 -----------------------------------------------------------------
                    Cartesian Multipole Moments
 -----------------------------------------------------------------
    Charge (ESU x 10^10)
                 0.0000
    Dipole Moment (Debye)
         X       0.0000      Y       0.0000      Z      -0.0004
       Tot       0.0004
    Quadrupole Moments (Debye-Ang)
        XX     -21.0438     XY       0.0000     YY     -21.0438
        XZ       0.0000     YZ       0.0000     ZZ     -30.0860
    Octapole Moments (Debye-Ang^2)
       XXX       0.0000    XXY       0.0000    XYY       0.0000
       YYY       0.0000    XXZ       0.0000    XYZ       0.0000
       YYZ       0.0001    XZZ       0.0000    YZZ       0.0000
       ZZZ      -0.0018
    Hexadecapole Moments (Debye-Ang^3)
      XXXX     -20.0897   XXXY       0.0000   XXYY      -6.6966
      XYYY       0.0000   YYYY     -20.0897   XXXZ       0.0000
      XXYZ       0.0000   XYYZ       0.0000   YYYZ       0.0000
      XXZZ     -50.6246   XYZZ       0.0001   YYZZ     -50.6247
      XZZZ       0.0001   YZZZ      -0.0001   ZZZZ    -327.1623
 -----------------------------------------------------------------
 Total job time:  51.21s(wall), 50.17s(cpu) 
 Wed Apr 24 16:05:08 2013

        *************************************************************
        *                                                           *
        *  Thank you very much for using Q-Chem.  Have a nice day.  *
        *                                                           *
        *************************************************************


0 sent ACK to 0 
now end server 0 ... 
 
**********************************************************************
Job 3 of 3 
**********************************************************************
 
Process 0 of 1 is on cl173.stfx.acenet.ca - thread support 1
initial socket setup ...start
initial socket setup ...done 
now start server 0 ... 

cmd = /usr/bin/ssh clhead /usr/local/qchem/bin/get_hostid 1564039293 > /scratch/tmp/5954976.1.medium.q/qchem5755/lic.dat
                  Welcome to Q-Chem
     A Quantum Leap Into The Future Of Chemistry

 Y. Shao, L. Fusti-Molnar, Y. Jung, J. Kussmann, C. Ochsenfeld,
 S. T. Brown, A. T. B. Gilbert, L. V. Slipchenko,S. V. Levchenko,
 D. P. O'Neill, R. A. DiStasio Jr., R. C. Lochan, T. Wang,
 G. J. O. Beran, N. A. Besley, J. M. Herbert, C. Y. Lin,
 T. Van Voorhis, S. H. Chien, A. Sodt, R. P. Steele, 
 V. A. Rassolov, P. E. Maslen, P. P. Korambath, R. D. Adamson,
 B. Austin, J. Baker, E. F. C. Byrd, H. Dachsel, R. J. Doerksen,
 A. Dreuw, B. D. Dunietz, A. D. Dutoi, T. R. Furlani,
 S. R. Gwaltney, A. Heyden, S. Hirata, C.-P. Hsu, G. Kedziora,
 R. Z. Khaliullin, P. Klunzinger, A. M. Lee, M. S. Lee, W. Liang,
 I. Lotan, N. Nair, B. Peters, E. I. Proynov, P. A. Pieniazek, 
 Y. M. Rhee, J. Ritchie, E. Rosta, C. D. Sherrill, 
 A. C. Simmonett, J. E. Subotnik, H. L. Woodcock III,
 W. Zhang, A. T. Bell, A. K. Chakraborty, D. M. Chipman,
 F. J. Keil, A. Warshel, W. J. Hehre, H. F. Schaefer III,
 J. Kong, A. I. Krylov, P. M. W. Gill, M. Head-Gordon,
 Q-Chem, Version 3.1, Q-Chem, Inc., Pittsburgh, PA (2007).

 Additional authors for Version 3.1: 
 Z. Gan, Y. Zhao, N. E. Schultz, D. Truhlar, E. Epifanovsky and M. Oana.

 Additional authors for Version 3.2: 
 R. Baer, B. R. Brooks, D. Casanova, J.-D. Chai, C.-L. Cheng, 
 C. Cramer, D. Crittenden, A. Ghysels, G. Hawkins, E. G. Hohenstein, 
 C. Kelley, W. Kurlancheek, D. Liotard, E. Livshits, P. Manohar, 
 A. Marenich, D. Neuhauser, R. Olson, M. A. Rohrdanz, K. S. Thanthiriwatte, 
 A. J. W. Thom, V. Vanovschi, C. F. Williams, Q. Wu and Z.-Q. You. 


 Intel X86 Linux Version

 Q-chem begins on Wed Apr 24 16:05:10 2013  

 Parallel job on  1  processors
Processing $rem in /usr/local/qchem/config/preferences.

theFileMan(): MAXOPENFILES=974 MAX_SUB_FILE_NUM=16
Maximum size of a physical file is 2.0 GB, maximum size of a tmp-file is 32.0 GB


--------------------------------------------------------------
User input:
--------------------------------------------------------------

$molecule
1,2
N,0.,0.,1.8539909259
C,0.,0.,0.6902279316
C,0.,0.,-0.6902279316
N,0.,0.,-1.8539909259

$end

$comment
positive
$end

$xc_functional
C PBE   1.00
X wPBE  1.00
$end

$rem
SYMMETRY_DECOMPOSITION	0
LRC_DFT                 true
exchange 		general
BASIS                   g3large
omega			2000
mem_static              760
max_scf_cycles          200
scf_final_print         1
sym_ignore              true
$end

--------------------------------------------------------------
 Writing REM_CC_EA            4
 ----------------------------------------------------
       Standard Nuclear Orientation (Angstroms)
    I     Atom         X            Y            Z
 ----------------------------------------------------
    1      N       0.000000     0.000000     1.853991
    2      C       0.000000     0.000000     0.690228
    3      C       0.000000     0.000000    -0.690228
    4      N       0.000000     0.000000    -1.853991
 ----------------------------------------------------
 Nuclear Repulsion Energy =    76.4601538996 hartrees
 There are       13 alpha and       12 beta electrons
 Requested basis set is G3large
 There are 40 shells and 168 basis functions

Total QAlloc Memory Limit   2000 MB
Mega-Array Size       743 MB
MEM_STATIC part       760 MB

                       Distance Matrix (Angstroms)
             N (  1)   C (  2)   C (  3)
   C (  2)  1.163763
   C (  3)  2.544219  1.380456
   N (  4)  3.707982  2.544219  1.163763
 
 A cutoff of  1.0D-08 yielded    714 shell pairs
 There are  12965 function pairs ( 16965 Cartesian)
Evaluating contribution to one-electron hamiltonian from nuclear
 Smallest overlap matrix eigenvalue = 9.55E-06

 Q-Chem warning in module mkSTV.C, line 194:

 Overlap eigenvalue is smaller than square root of threshold

 Multipole matrices computed through 2nd order

  Scale SEOQF with 1.000000e-01/1.000000e-01/1.000000e-01

 Standard Electronic Orientation quadrupole field applied
 Nucleus-field energy     =    -0.0000000058 hartrees
 Guess from superposition of atomic densities
 Warning:  Energy on first SCF cycle will be non-variational
 Long-range K will be added via erf
 Coulomb attenuation parameter = 2 bohr**(-1)
 An unrestricted Kohn-Sham SCF calculation will be
 performed using Pulay DIIS extrapolation
 Exchange:  wPBE + LR-HF      Correlation:  PBE
 Using SG-1 standard quadrature grid
 SCF converges when DIIS error is below 1.0E-05
 Requested basis set is G3large
 There are 40 shells and 168 basis functions
 A cutoff of  1.0D-08 yielded    714 shell pairs
 There are  12965 function pairs ( 16965 Cartesian)
 Warning!  Inaccurate integrated density:
   Number of electrons =    25
   Numerical integral  =    26.000074817709
   Relative error      =     4.0002992708 %
 ---------------------------------------
  Cycle       Energy         DIIS Error
 ---------------------------------------
    1    -186.3185040475      3.86E-02
    2    -184.8056666148      5.26E-03
    3    -184.9253221051      4.01E-03
    4    -184.9786460318      9.47E-04
    5    -184.9887120685      3.89E-04
    6    -184.9928726013      1.38E-04
    7    -184.9939426210      4.18E-05
    8    -184.9941468751      1.89E-05
    9    -184.9942411601      1.12E-05
   10    -184.9943376623      4.98E-06 Convergence criterion met
 ---------------------------------------
 One-Electron    Energy =  -392.3490937029
 Total Coulomb   Energy =   154.8205902959
 Alpha Exchange  Energy =    -7.4261619812
 Beta  Exchange  Energy =    -6.8979022076
 DFT   Exchange  Energy =    -8.8024803527
 DFT Correlation Energy =    -0.7994436077
 Nuclear Repu.   Energy =    76.4601538938
 Nuclear Attr.   Energy =  -576.4134371073
 Kinetic         Energy =   184.0643434044
 <S^2> = 0.9510
 SCF time:  CPU 66.95 s  wall 67.77 s
 Final Alpha MO Eigenvalues
            1           2           3           4           5           6
    1 -15.3718885 -15.3716808 -11.2630438 -11.2618325  -1.6715574  -1.6545272
            7           8           9          10          11          12
    1  -1.3062076  -0.9788067  -0.9646179  -0.9629633  -0.9376157  -0.9002663
           13          14          15          16          17          18
    1  -0.8526384  -0.2879997  -0.2696412  -0.1195224  -0.0786812  -0.0640769
 Final Beta MO Eigenvalues
            1           2           3           4           5           6
    1 -15.3574368 -15.3572297 -11.2654872 -11.2640102  -1.6142250  -1.5804951
            7           8           9          10          11          12
    1  -1.3217121  -0.9493579  -0.9353182  -0.9348050  -0.8483409  -0.8247102
           13          14          15          16          17
    1  -0.4422856  -0.2589212  -0.1842003  -0.1201690  -0.0763256
 Analysis of SCF Wavefunction
 
 --------------------------------------------------------------
                    Orbital Energies (a.u.)
 --------------------------------------------------------------
 
 Alpha MOs
 -- Occupied --
-15.372 -15.372 -11.263 -11.262  -1.672  -1.655  -1.306  -0.979
 -0.965  -0.963  -0.938  -0.900  -0.853
 -- Virtual --
 -0.288  -0.270  -0.120  -0.079  -0.064  -0.061  -0.025  -0.019
 -0.010  -0.009  -0.007   0.005   0.058   0.091   0.093   0.096
  0.137   0.158   0.161   0.167   0.206   0.351   0.362   0.362
  0.374   0.377   0.475   0.482   0.520   0.554   0.568   0.568
  0.675   0.688   0.690   0.702   0.736   0.766   0.775   0.788
  0.791   0.816   0.976   0.976   1.065   1.168   1.168   1.213
  1.241   1.262   1.459   1.598   1.612   1.925   1.931   1.946
  1.962   1.989   2.294   2.529   2.529   2.536   2.538   2.563
  2.582   2.586   2.715   2.724   2.779   2.780   2.818   2.827
  3.031   3.031   3.032   3.032   3.106   3.125   3.162   3.181
  3.346   3.346   3.391   3.412   3.572   3.572   3.609   3.609
  3.798   3.829   3.858   3.950   3.977   4.129   4.137   4.152
  4.335   4.514   4.530   4.617   4.618   4.619   4.764   4.765
  4.813   4.813   5.074   5.110   5.133   5.247   5.268   5.723
  5.841   5.862   6.473   6.818   6.840   6.915   8.176  24.697
 25.001  27.541  27.545  27.741  27.746  28.920  30.272  36.354
 37.159  37.696  37.709  38.037  38.051  38.530  38.658  40.712
 40.721  40.796  40.805  40.834  40.878  40.891  41.053  41.067
 41.102  41.116  41.294  41.308  41.390  41.460  41.464  41.527
 41.531  41.868  41.926
 
 Beta MOs
 -- Occupied --
-15.357 -15.357 -11.265 -11.264  -1.614  -1.580  -1.322  -0.949
 -0.935  -0.935  -0.848  -0.825
 -- Virtual --
 -0.442  -0.259  -0.184  -0.120  -0.076  -0.062  -0.062  -0.023
 -0.016  -0.011  -0.009   0.009   0.041   0.057   0.096   0.098
  0.105   0.138   0.159   0.171   0.183   0.208   0.345   0.355
  0.359   0.366   0.371   0.479   0.482   0.523   0.562   0.589
  0.589   0.686   0.692   0.703   0.713   0.746   0.798   0.799
  0.811   0.816   0.822   1.009   1.009   1.075   1.190   1.190
  1.221   1.267   1.271   1.462   1.612   1.612   1.933   1.935
  1.966   1.966   1.997   2.299   2.526   2.526   2.538   2.539
  2.566   2.572   2.582   2.717   2.718   2.782   2.782   2.823
  2.823   3.027   3.027   3.045   3.045   3.124   3.126   3.164
  3.189   3.341   3.342   3.415   3.416   3.597   3.597   3.632
  3.632   3.844   3.848   3.868   3.990   3.992   4.148   4.151
  4.158   4.343   4.529   4.532   4.626   4.626   4.630   4.812
  4.812   4.860   4.860   5.081   5.139   5.141   5.270   5.274
  5.728   5.858   5.866   6.479   6.837   6.845   6.921   8.181
 24.695  25.000  27.540  27.543  27.740  27.744  28.920  30.272
 36.367  37.173  37.714  37.716  38.055  38.057  38.534  38.663
 40.735  40.743  40.819  40.827  40.839  40.896  40.897  41.072
 41.073  41.100  41.114  41.292  41.306  41.393  41.460  41.462
 41.527  41.530  41.872  41.928
 --------------------------------------------------------------
 
          Ground-State Mulliken Net Atomic Charges

     Atom                 Charge (a.u.)    Spin (a.u.)
  --------------------------------------------------------
      1 N                    -0.030741       0.631236
      2 C                     0.530714      -0.131221
      3 C                     0.530610      -0.131186
      4 N                    -0.030583       0.631170
  --------------------------------------------------------
  Sum of atomic charges =     1.000000
  Sum of spin   charges =     1.000000

 -----------------------------------------------------------------
                    Cartesian Multipole Moments
 -----------------------------------------------------------------
    Charge (ESU x 10^10)
                 4.8032
    Dipole Moment (Debye)
         X       0.0000      Y       0.0000      Z      -0.0009
       Tot       0.0009
    Quadrupole Moments (Debye-Ang)
        XX     -18.1526     XY      -0.6382     YY     -18.1526
        XZ       0.0061     YZ      -0.0061     ZZ     -15.0871
    Octapole Moments (Debye-Ang^2)
       XXX       0.0000    XXY       0.0000    XYY       0.0000
       YYY       0.0000    XXZ       0.0000    XYZ       0.0000
       YYZ       0.0000    XZZ       0.0000    YZZ       0.0000
       ZZZ      -0.0040
    Hexadecapole Moments (Debye-Ang^3)
      XXXX     -15.2541   XXXY      -0.3956   XXYY      -5.0854
      XYYY      -0.3956   YYYY     -15.2541   XXXZ       0.0046
      XXYZ      -0.0015   XYYZ       0.0015   YYYZ      -0.0046
      XXZZ     -41.8941   XYZZ      -1.8835   YYZZ     -41.8943
      XZZZ       0.0336   YZZZ      -0.0336   ZZZZ    -249.4066
 -----------------------------------------------------------------
 Total job time:  67.95s(wall), 67.12s(cpu) 
 Wed Apr 24 16:06:18 2013

        *************************************************************
        *                                                           *
        *  Thank you very much for using Q-Chem.  Have a nice day.  *
        *                                                           *
        *************************************************************


0 sent ACK to 0 
now end server 0 ... 
