Process 0 of 1 is on cl093.stfx.acenet.ca - thread support 1
initial socket setup ...start
initial socket setup ...done 
now start server 0 ... 

cmd = /usr/bin/ssh clhead /usr/local/qchem/bin/get_hostid 325056252 > /scratch/tmp/6064943.1.short.q/qchem24245/lic.dat
                  Welcome to Q-Chem
     A Quantum Leap Into The Future Of Chemistry

 Y. Shao, L. Fusti-Molnar, Y. Jung, J. Kussmann, C. Ochsenfeld,
 S. T. Brown, A. T. B. Gilbert, L. V. Slipchenko,S. V. Levchenko,
 D. P. O'Neill, R. A. DiStasio Jr., R. C. Lochan, T. Wang,
 G. J. O. Beran, N. A. Besley, J. M. Herbert, C. Y. Lin,
 T. Van Voorhis, S. H. Chien, A. Sodt, R. P. Steele, 
 V. A. Rassolov, P. E. Maslen, P. P. Korambath, R. D. Adamson,
 B. Austin, J. Baker, E. F. C. Byrd, H. Dachsel, R. J. Doerksen,
 A. Dreuw, B. D. Dunietz, A. D. Dutoi, T. R. Furlani,
 S. R. Gwaltney, A. Heyden, S. Hirata, C.-P. Hsu, G. Kedziora,
 R. Z. Khaliullin, P. Klunzinger, A. M. Lee, M. S. Lee, W. Liang,
 I. Lotan, N. Nair, B. Peters, E. I. Proynov, P. A. Pieniazek, 
 Y. M. Rhee, J. Ritchie, E. Rosta, C. D. Sherrill, 
 A. C. Simmonett, J. E. Subotnik, H. L. Woodcock III,
 W. Zhang, A. T. Bell, A. K. Chakraborty, D. M. Chipman,
 F. J. Keil, A. Warshel, W. J. Hehre, H. F. Schaefer III,
 J. Kong, A. I. Krylov, P. M. W. Gill, M. Head-Gordon,
 Q-Chem, Version 3.1, Q-Chem, Inc., Pittsburgh, PA (2007).

 Additional authors for Version 3.1: 
 Z. Gan, Y. Zhao, N. E. Schultz, D. Truhlar, E. Epifanovsky and M. Oana.

 Additional authors for Version 3.2: 
 R. Baer, B. R. Brooks, D. Casanova, J.-D. Chai, C.-L. Cheng, 
 C. Cramer, D. Crittenden, A. Ghysels, G. Hawkins, E. G. Hohenstein, 
 C. Kelley, W. Kurlancheek, D. Liotard, E. Livshits, P. Manohar, 
 A. Marenich, D. Neuhauser, R. Olson, M. A. Rohrdanz, K. S. Thanthiriwatte, 
 A. J. W. Thom, V. Vanovschi, C. F. Williams, Q. Wu and Z.-Q. You. 


 Intel X86 Linux Version

 Q-chem begins on Mon Jul  8 12:29:04 2013  

 Parallel job on  1  processors
Processing $rem in /usr/local/qchem/config/preferences.

theFileMan(): MAXOPENFILES=974 MAX_SUB_FILE_NUM=16
Maximum size of a physical file is 2.0 GB, maximum size of a tmp-file is 32.0 GB


--------------------------------------------------------------
User input:
--------------------------------------------------------------

$molecule
-1,2
C         -0.00199        0.00000        0.00717
C          0.00183        0.00000        1.31937
F          1.13163        0.00000       -0.70826
H         -0.88054        0.00000       -0.62880
H          0.92723        0.00000        1.88041
H         -0.93959        0.00000        1.85049
$end

$comment
negative
$end

$xc_functional
C PBE   1.00
X wPBE  1.00
$end

$rem
SYMMETRY_DECOMPOSITION	0
exchange 		general
LRC_DFT                 true
BASIS                   g3large
omega			300
mem_static              760
max_scf_cycles          200
scf_final_print         1
sym_ignore              true
$end

--------------------------------------------------------------
 Writing REM_CC_EA            6
 ----------------------------------------------------
       Standard Nuclear Orientation (Angstroms)
    I     Atom         X            Y            Z
 ----------------------------------------------------
    1      C      -0.001990     0.000000     0.007170
    2      C       0.001830     0.000000     1.319370
    3      F       1.131630     0.000000    -0.708260
    4      H      -0.880540     0.000000    -0.628800
    5      H       0.927230     0.000000     1.880410
    6      H      -0.939590     0.000000     1.850490
 ----------------------------------------------------
 Nuclear Repulsion Energy =    67.7967727849 hartrees
 There are       13 alpha and       12 beta electrons
 Requested basis set is G3large
 There are 48 shells and 156 basis functions

Total QAlloc Memory Limit   2000 MB
Mega-Array Size       743 MB
MEM_STATIC part       760 MB

                       Distance Matrix (Angstroms)
             C (  1)   C (  2)   F (  3)   H (  4)   H (  5)
   C (  2)  1.312206
   F (  3)  1.340498  2.321149
   H (  4)  1.084577  2.138678  2.013738
   H (  5)  2.091047  1.082188  2.596727  3.092599
   H (  6)  2.068072  1.080907  3.291983  2.479993  1.867060
 
 A cutoff of  1.0D-08 yielded   1115 shell pairs
 There are  11879 function pairs ( 14831 Cartesian)
Evaluating contribution to one-electron hamiltonian from nuclear
 Smallest overlap matrix eigenvalue = 1.04E-04
 Multipole matrices computed through 2nd order

  Scale SEOQF with 1.000000e-01/1.000000e-01/1.000000e-01

 Standard Electronic Orientation quadrupole field applied
 Nucleus-field energy     =    -0.0000000019 hartrees
 Guess from superposition of atomic densities
 Warning:  Energy on first SCF cycle will be non-variational
 Long-range K will be added via erf
 Coulomb attenuation parameter = 0.3 bohr**(-1)
 An unrestricted Kohn-Sham SCF calculation will be
 performed using Pulay DIIS extrapolation
 Exchange:  wPBE + LR-HF      Correlation:  PBE
 Using SG-1 standard quadrature grid
 SCF converges when DIIS error is below 1.0E-05
 Requested basis set is G3large
 There are 48 shells and 156 basis functions
 A cutoff of  1.0D-08 yielded   1115 shell pairs
 There are  11879 function pairs ( 14831 Cartesian)
 Warning!  Inaccurate integrated density:
   Number of electrons =    25
   Numerical integral  =    23.999812481250
   Relative error      =    -4.0007500750 %
 ---------------------------------------
  Cycle       Energy         DIIS Error
 ---------------------------------------
    1    -178.2594977652      3.47E-02
    2    -177.5312073706      6.08E-03
    3    -177.5352394292      6.99E-03
    4    -177.6833215341      6.94E-04
    5    -177.6897937930      5.20E-04
    6    -177.6934455493      3.48E-04
    7    -177.6975675258      2.71E-04
    8    -177.7032435170      1.11E-04
    9    -177.7057111251      7.79E-05
   10    -177.7063948952      5.41E-05
   11    -177.7068365895      5.60E-05
   12    -177.7068952689      2.83E-05
   13    -177.7069274716      1.34E-05
   14    -177.7069672484      1.91E-05
   15    -177.7070194292      9.80E-06 Convergence criterion met
 ---------------------------------------
 One-Electron    Energy =  -380.9377665285
 Total Coulomb   Energy =   157.7890372425
 Alpha Exchange  Energy =    -1.9670431428
 Beta  Exchange  Energy =    -1.8939523712
 DFT   Exchange  Energy =   -17.6983659643
 DFT Correlation Energy =    -0.7957014478
 Nuclear Repu.   Energy =    67.7967727830
 Nuclear Attr.   Energy =  -558.2464575757
 Kinetic         Energy =   177.3086910472
 <S^2> = 0.7501
 SCF time:  CPU 99.65 s  wall 100.61 s
 Final Alpha MO Eigenvalues
            1           2           3           4           5           6
    1 -24.2971386  -9.9867495  -9.9036169  -1.1676958  -0.7314834  -0.5708109
            7           8           9          10          11          12
    1  -0.4915959  -0.4435168  -0.4287928  -0.3628306  -0.3295709  -0.2283430
           13          14          15          16          17          18
    1   0.0317530   0.1435381   0.1528621   0.2039499   0.2161228   0.2225019
 Final Beta MO Eigenvalues
            1           2           3           4           5           6
    1 -24.2971286  -9.9863214  -9.9032568  -1.1676208  -0.7307402  -0.5700135
            7           8           9          10          11          12
    1  -0.4903784  -0.4425743  -0.4286635  -0.3620136  -0.3286081  -0.2279679
           13          14          15          16          17
    1   0.1464050   0.1690850   0.1759673   0.2048454   0.2239493
 Analysis of SCF Wavefunction
 
 --------------------------------------------------------------
                    Orbital Energies (a.u.)
 --------------------------------------------------------------
 
 Alpha MOs
 -- Occupied --
-24.297  -9.987  -9.904  -1.168  -0.731  -0.571  -0.492  -0.444
 -0.429  -0.363  -0.330  -0.228   0.032
 -- Virtual --
  0.144   0.153   0.204   0.216   0.223   0.242   0.279   0.286
  0.288   0.306   0.322   0.356   0.360   0.406   0.449   0.463
  0.527   0.549   0.562   0.610   0.681   0.691   0.720   0.724
  0.759   0.795   0.809   0.842   0.853   0.878   0.895   0.942
  0.992   1.017   1.121   1.136   1.218   1.243   1.293   1.367
  1.382   1.417   1.484   1.527   1.565   1.584   1.590   1.610
  1.655   1.715   1.725   1.838   1.945   2.147   2.270   2.386
  2.419   2.646   2.662   2.719   2.836   2.859   2.896   2.936
  2.952   3.005   3.047   3.090   3.181   3.278   3.306   3.317
  3.343   3.345   3.395   3.442   3.458   3.573   3.645   3.654
  3.768   3.783   3.824   3.907   3.960   3.963   4.178   4.207
  4.322   4.347   4.416   4.585   4.590   4.648   4.865   4.870
  5.295   5.423   5.515   5.754   6.102   6.357   6.480   6.788
  6.799   6.877   6.907   6.966   7.239   7.499   7.743   9.242
  9.295   9.621   9.798  10.082  24.044  24.882  27.289  27.489
 28.118  28.283  28.322  28.438  40.886  40.983  41.066  41.166
 41.172  41.254  41.328  41.329  41.381  41.441  50.181  50.202
 50.343  50.376  50.512  55.671  55.736  56.178  66.686
 
 Beta MOs
 -- Occupied --
-24.297  -9.986  -9.903  -1.168  -0.731  -0.570  -0.490  -0.443
 -0.429  -0.362  -0.329  -0.228
 -- Virtual --
  0.146   0.169   0.176   0.205   0.224   0.229   0.245   0.280
  0.286   0.291   0.308   0.322   0.357   0.363   0.407   0.449
  0.463   0.527   0.548   0.562   0.610   0.680   0.690   0.720
  0.724   0.760   0.794   0.810   0.841   0.852   0.878   0.895
  0.942   0.992   1.017   1.122   1.137   1.218   1.244   1.294
  1.368   1.382   1.417   1.484   1.527   1.565   1.584   1.591
  1.610   1.655   1.715   1.726   1.838   1.945   2.147   2.270
  2.386   2.419   2.646   2.663   2.719   2.836   2.859   2.896
  2.936   2.953   3.006   3.048   3.091   3.182   3.279   3.307
  3.318   3.344   3.346   3.396   3.444   3.459   3.574   3.646
  3.654   3.769   3.783   3.825   3.907   3.961   3.964   4.179
  4.208   4.322   4.348   4.416   4.585   4.590   4.650   4.866
  4.871   5.296   5.424   5.516   5.754   6.103   6.357   6.480
  6.788   6.799   6.877   6.907   6.966   7.239   7.500   7.744
  9.242   9.295   9.621   9.799  10.082  24.045  24.883  27.290
 27.489  28.119  28.284  28.323  28.439  40.886  40.984  41.066
 41.167  41.173  41.254  41.328  41.329  41.382  41.442  50.181
 50.202  50.343  50.376  50.512  55.671  55.736  56.177  66.686
 --------------------------------------------------------------
 
          Ground-State Mulliken Net Atomic Charges

     Atom                 Charge (a.u.)    Spin (a.u.)
  --------------------------------------------------------
      1 C                     0.669325      -0.740533
      2 C                     1.231884      -1.368487
      3 F                    -0.151504       0.016628
      4 H                    -1.615547       1.770879
      5 H                     0.068960       0.009580
      6 H                    -1.203117       1.311932
  --------------------------------------------------------
  Sum of atomic charges =    -1.000000
  Sum of spin   charges =     1.000000

 -----------------------------------------------------------------
                    Cartesian Multipole Moments
 -----------------------------------------------------------------
    Charge (ESU x 10^10)
                -4.8032
    Dipole Moment (Debye)
         X       8.6208      Y       0.0037      Z      -1.7085
       Tot       8.7885
    Quadrupole Moments (Debye-Ang)
        XX     -54.1435     XY      -0.0034     YY     -34.8053
        XZ       6.1690     YZ       0.0053     ZZ     -43.0023
    Octapole Moments (Debye-Ang^2)
       XXX      98.4450    XXY       0.0133    XYY      23.0349
       YYY       0.0307    XXZ     -21.8079    XYZ      -0.0042
       YYZ     -15.3004    XZZ      43.6692    YZZ       0.0171
       ZZZ     -54.4050
    Hexadecapole Moments (Debye-Ang^3)
      XXXX    -542.9655   XXXY      -0.0230   XXYY    -109.7018
      XYYY      -0.0208   YYYY    -155.8919   XXXZ      68.8512
      XXYZ       0.0178   XYYZ      17.4607   YYYZ       0.0406
      XXZZ    -187.6481   XYZZ      -0.0143   YYZZ     -99.9591
      XZZZ      86.5279   YZZZ       0.0525   ZZZZ    -476.1665
 -----------------------------------------------------------------
 Total job time:  100.79s(wall), 99.82s(cpu) 
 Mon Jul  8 12:30:45 2013

        *************************************************************
        *                                                           *
        *  Thank you very much for using Q-Chem.  Have a nice day.  *
        *                                                           *
        *************************************************************


0 sent ACK to 0 
now end server 0 ... 
 
**********************************************************************
Job 2 of 3 
**********************************************************************
 
Process 0 of 1 is on cl093.stfx.acenet.ca - thread support 1
initial socket setup ...start
initial socket setup ...done 
now start server 0 ... 

cmd = /usr/bin/ssh clhead /usr/local/qchem/bin/get_hostid 1974692342 > /scratch/tmp/6064943.1.short.q/qchem24245/lic.dat
                  Welcome to Q-Chem
     A Quantum Leap Into The Future Of Chemistry

 Y. Shao, L. Fusti-Molnar, Y. Jung, J. Kussmann, C. Ochsenfeld,
 S. T. Brown, A. T. B. Gilbert, L. V. Slipchenko,S. V. Levchenko,
 D. P. O'Neill, R. A. DiStasio Jr., R. C. Lochan, T. Wang,
 G. J. O. Beran, N. A. Besley, J. M. Herbert, C. Y. Lin,
 T. Van Voorhis, S. H. Chien, A. Sodt, R. P. Steele, 
 V. A. Rassolov, P. E. Maslen, P. P. Korambath, R. D. Adamson,
 B. Austin, J. Baker, E. F. C. Byrd, H. Dachsel, R. J. Doerksen,
 A. Dreuw, B. D. Dunietz, A. D. Dutoi, T. R. Furlani,
 S. R. Gwaltney, A. Heyden, S. Hirata, C.-P. Hsu, G. Kedziora,
 R. Z. Khaliullin, P. Klunzinger, A. M. Lee, M. S. Lee, W. Liang,
 I. Lotan, N. Nair, B. Peters, E. I. Proynov, P. A. Pieniazek, 
 Y. M. Rhee, J. Ritchie, E. Rosta, C. D. Sherrill, 
 A. C. Simmonett, J. E. Subotnik, H. L. Woodcock III,
 W. Zhang, A. T. Bell, A. K. Chakraborty, D. M. Chipman,
 F. J. Keil, A. Warshel, W. J. Hehre, H. F. Schaefer III,
 J. Kong, A. I. Krylov, P. M. W. Gill, M. Head-Gordon,
 Q-Chem, Version 3.1, Q-Chem, Inc., Pittsburgh, PA (2007).

 Additional authors for Version 3.1: 
 Z. Gan, Y. Zhao, N. E. Schultz, D. Truhlar, E. Epifanovsky and M. Oana.

 Additional authors for Version 3.2: 
 R. Baer, B. R. Brooks, D. Casanova, J.-D. Chai, C.-L. Cheng, 
 C. Cramer, D. Crittenden, A. Ghysels, G. Hawkins, E. G. Hohenstein, 
 C. Kelley, W. Kurlancheek, D. Liotard, E. Livshits, P. Manohar, 
 A. Marenich, D. Neuhauser, R. Olson, M. A. Rohrdanz, K. S. Thanthiriwatte, 
 A. J. W. Thom, V. Vanovschi, C. F. Williams, Q. Wu and Z.-Q. You. 


 Intel X86 Linux Version

 Q-chem begins on Mon Jul  8 12:30:47 2013  

 Parallel job on  1  processors
Processing $rem in /usr/local/qchem/config/preferences.

theFileMan(): MAXOPENFILES=974 MAX_SUB_FILE_NUM=16
Maximum size of a physical file is 2.0 GB, maximum size of a tmp-file is 32.0 GB


--------------------------------------------------------------
User input:
--------------------------------------------------------------

$molecule
0,1
C         -0.00199        0.00000        0.00717
C          0.00183        0.00000        1.31937
F          1.13163        0.00000       -0.70826
H         -0.88054        0.00000       -0.62880
H          0.92723        0.00000        1.88041
H         -0.93959        0.00000        1.85049
$end

$comment
neutral
$end

$xc_functional
C PBE   1.00
X wPBE  1.00
$end


$rem
SYMMETRY_DECOMPOSITION	0
LRC_DFT                 true
exchange 		general
BASIS                   g3large
omega			300
mem_static              760
max_scf_cycles          200
scf_final_print         1
sym_ignore              true
$end

--------------------------------------------------------------
 Writing REM_CC_EA            6
 ----------------------------------------------------
       Standard Nuclear Orientation (Angstroms)
    I     Atom         X            Y            Z
 ----------------------------------------------------
    1      C      -0.001990     0.000000     0.007170
    2      C       0.001830     0.000000     1.319370
    3      F       1.131630     0.000000    -0.708260
    4      H      -0.880540     0.000000    -0.628800
    5      H       0.927230     0.000000     1.880410
    6      H      -0.939590     0.000000     1.850490
 ----------------------------------------------------
 Nuclear Repulsion Energy =    67.7967727849 hartrees
 There are       12 alpha and       12 beta electrons
 Requested basis set is G3large
 There are 48 shells and 156 basis functions

Total QAlloc Memory Limit   2000 MB
Mega-Array Size       743 MB
MEM_STATIC part       760 MB

                       Distance Matrix (Angstroms)
             C (  1)   C (  2)   F (  3)   H (  4)   H (  5)
   C (  2)  1.312206
   F (  3)  1.340498  2.321149
   H (  4)  1.084577  2.138678  2.013738
   H (  5)  2.091047  1.082188  2.596727  3.092599
   H (  6)  2.068072  1.080907  3.291983  2.479993  1.867060
 
 A cutoff of  1.0D-08 yielded   1115 shell pairs
 There are  11879 function pairs ( 14831 Cartesian)
Evaluating contribution to one-electron hamiltonian from nuclear
 Smallest overlap matrix eigenvalue = 1.04E-04
 Multipole matrices computed through 2nd order

  Scale SEOQF with 1.000000e-01/1.000000e-01/1.000000e-01

 Standard Electronic Orientation quadrupole field applied
 Nucleus-field energy     =    -0.0000000019 hartrees
 Guess from superposition of atomic densities
 Warning:  Energy on first SCF cycle will be non-variational
 Long-range K will be added via erf
 Coulomb attenuation parameter = 0.3 bohr**(-1)
 A restricted Kohn-Sham SCF calculation will be
 performed using Pulay DIIS extrapolation
 Exchange:  wPBE + LR-HF      Correlation:  PBE
 Using SG-1 standard quadrature grid
 SCF converges when DIIS error is below 1.0E-05
 Requested basis set is G3large
 There are 48 shells and 156 basis functions
 A cutoff of  1.0D-08 yielded   1115 shell pairs
 There are  11879 function pairs ( 14831 Cartesian)
 ---------------------------------------
  Cycle       Energy         DIIS Error
 ---------------------------------------
    1    -178.2594977652      3.47E-02
    2    -177.6944215576      4.42E-03
    3    -177.7104939790      3.92E-03
    4    -177.7415720817      5.85E-04
    5    -177.7423845154      2.21E-04
    6    -177.7425482050      9.29E-05
    7    -177.7425718587      2.45E-05
    8    -177.7425711209      7.51E-06 Convergence criterion met
 ---------------------------------------
 One-Electron    Energy =  -377.6222065226
 Total Coulomb   Energy =   154.3431178185
 Alpha Exchange  Energy =    -1.8945205552
 Beta  Exchange  Energy =    -1.8945205552
 DFT   Exchange  Energy =   -17.6835930848
 DFT Correlation Energy =    -0.7876210047
 Nuclear Repu.   Energy =    67.7967727830
 Nuclear Attr.   Energy =  -554.8542286045
 Kinetic         Energy =   177.2320220819
 SCF time:  CPU 42.11 s  wall 42.51 s
 Final Alpha MO Eigenvalues
            1           2           3           4           5           6
    1 -24.4301338 -10.1342935 -10.0496817  -1.3006001  -0.8759051  -0.7107399
            7           8           9          10          11          12
    1  -0.6328630  -0.5832184  -0.5615496  -0.5066028  -0.4688373  -0.3706801
           13          14          15          16          17
    1   0.0425313   0.0557733   0.0649957   0.0725088   0.1091486
 Analysis of SCF Wavefunction
 
 --------------------------------------------------------------
                    Orbital Energies (a.u.)
 --------------------------------------------------------------
 
 Alpha MOs
 -- Occupied --
-24.430 -10.134 -10.050  -1.301  -0.876  -0.711  -0.633  -0.583
 -0.562  -0.507  -0.469  -0.371
 -- Virtual --
  0.043   0.056   0.065   0.073   0.109   0.115   0.133   0.167
  0.167   0.172   0.193   0.203   0.224   0.234   0.268   0.330
  0.346   0.407   0.424   0.441   0.481   0.540   0.550   0.580
  0.585   0.625   0.658   0.667   0.702   0.718   0.735   0.757
  0.799   0.851   0.871   0.978   0.997   1.077   1.093   1.145
  1.227   1.241   1.271   1.351   1.386   1.436   1.446   1.446
  1.475   1.511   1.568   1.591   1.698   1.803   2.017   2.137
  2.247   2.282   2.502   2.518   2.577   2.691   2.719   2.751
  2.791   2.808   2.865   2.901   2.946   3.039   3.133   3.162
  3.171   3.197   3.199   3.253   3.299   3.314   3.426   3.501
  3.513   3.623   3.636   3.679   3.763   3.814   3.820   4.036
  4.065   4.168   4.196   4.276   4.435   4.446   4.505   4.717
  4.726   5.150   5.274   5.371   5.610   5.954   6.227   6.349
  6.657   6.669   6.745   6.776   6.834   7.106   7.365   7.608
  9.110   9.164   9.490   9.667   9.950  23.898  24.736  27.143
 27.343  27.971  28.137  28.175  28.292  40.739  40.836  40.920
 41.019  41.025  41.108  41.181  41.182  41.235  41.295  50.049
 50.069  50.210  50.243  50.379  55.538  55.603  56.044  66.553
 --------------------------------------------------------------
 
          Ground-State Mulliken Net Atomic Charges

     Atom                 Charge (a.u.)
  ----------------------------------------
      1 C                    -0.084249
      2 C                    -0.137054
      3 F                    -0.110653
      4 H                     0.129085
      5 H                     0.117963
      6 H                     0.084908
  ----------------------------------------
  Sum of atomic charges =     0.000000

 -----------------------------------------------------------------
                    Cartesian Multipole Moments
 -----------------------------------------------------------------
    Charge (ESU x 10^10)
                 0.0000
    Dipole Moment (Debye)
         X      -1.2184      Y      -0.0001      Z       0.6887
       Tot       1.3996
    Quadrupole Moments (Debye-Ang)
        XX     -17.5691     XY       0.0001     YY     -19.1695
        XZ       1.3483     YZ      -0.0003     ZZ     -16.3156
    Octapole Moments (Debye-Ang^2)
       XXX     -16.7851    XXY       0.0001    XYY      -4.6490
       YYY      -0.0011    XXZ      -3.3594    XYZ      -0.0001
       YYZ      -7.4818    XZZ      -5.6549    YZZ      -0.0002
       ZZZ     -13.7630
    Hexadecapole Moments (Debye-Ang^3)
      XXXX     -65.0634   XXXY       0.0006   XXYY     -14.6679
      XYYY       0.0004   YYYY     -20.4562   XXXZ      11.8623
      XXYZ      -0.0005   XYYZ       3.6855   YYYZ      -0.0010
      XXZZ     -26.5611   XYZZ       0.0004   YYZZ     -25.2590
      XZZZ      11.8540   YZZZ      -0.0009   ZZZZ    -113.1636
 -----------------------------------------------------------------
 Total job time:  42.68s(wall), 42.26s(cpu) 
 Mon Jul  8 12:31:30 2013

        *************************************************************
        *                                                           *
        *  Thank you very much for using Q-Chem.  Have a nice day.  *
        *                                                           *
        *************************************************************


0 sent ACK to 0 
now end server 0 ... 
 
**********************************************************************
Job 3 of 3 
**********************************************************************
 
Process 0 of 1 is on cl093.stfx.acenet.ca - thread support 1
initial socket setup ...start
initial socket setup ...done 
now start server 0 ... 

cmd = /usr/bin/ssh clhead /usr/local/qchem/bin/get_hostid 1175356629 > /scratch/tmp/6064943.1.short.q/qchem24245/lic.dat
                  Welcome to Q-Chem
     A Quantum Leap Into The Future Of Chemistry

 Y. Shao, L. Fusti-Molnar, Y. Jung, J. Kussmann, C. Ochsenfeld,
 S. T. Brown, A. T. B. Gilbert, L. V. Slipchenko,S. V. Levchenko,
 D. P. O'Neill, R. A. DiStasio Jr., R. C. Lochan, T. Wang,
 G. J. O. Beran, N. A. Besley, J. M. Herbert, C. Y. Lin,
 T. Van Voorhis, S. H. Chien, A. Sodt, R. P. Steele, 
 V. A. Rassolov, P. E. Maslen, P. P. Korambath, R. D. Adamson,
 B. Austin, J. Baker, E. F. C. Byrd, H. Dachsel, R. J. Doerksen,
 A. Dreuw, B. D. Dunietz, A. D. Dutoi, T. R. Furlani,
 S. R. Gwaltney, A. Heyden, S. Hirata, C.-P. Hsu, G. Kedziora,
 R. Z. Khaliullin, P. Klunzinger, A. M. Lee, M. S. Lee, W. Liang,
 I. Lotan, N. Nair, B. Peters, E. I. Proynov, P. A. Pieniazek, 
 Y. M. Rhee, J. Ritchie, E. Rosta, C. D. Sherrill, 
 A. C. Simmonett, J. E. Subotnik, H. L. Woodcock III,
 W. Zhang, A. T. Bell, A. K. Chakraborty, D. M. Chipman,
 F. J. Keil, A. Warshel, W. J. Hehre, H. F. Schaefer III,
 J. Kong, A. I. Krylov, P. M. W. Gill, M. Head-Gordon,
 Q-Chem, Version 3.1, Q-Chem, Inc., Pittsburgh, PA (2007).

 Additional authors for Version 3.1: 
 Z. Gan, Y. Zhao, N. E. Schultz, D. Truhlar, E. Epifanovsky and M. Oana.

 Additional authors for Version 3.2: 
 R. Baer, B. R. Brooks, D. Casanova, J.-D. Chai, C.-L. Cheng, 
 C. Cramer, D. Crittenden, A. Ghysels, G. Hawkins, E. G. Hohenstein, 
 C. Kelley, W. Kurlancheek, D. Liotard, E. Livshits, P. Manohar, 
 A. Marenich, D. Neuhauser, R. Olson, M. A. Rohrdanz, K. S. Thanthiriwatte, 
 A. J. W. Thom, V. Vanovschi, C. F. Williams, Q. Wu and Z.-Q. You. 


 Intel X86 Linux Version

 Q-chem begins on Mon Jul  8 12:31:33 2013  

 Parallel job on  1  processors
Processing $rem in /usr/local/qchem/config/preferences.

theFileMan(): MAXOPENFILES=974 MAX_SUB_FILE_NUM=16
Maximum size of a physical file is 2.0 GB, maximum size of a tmp-file is 32.0 GB


--------------------------------------------------------------
User input:
--------------------------------------------------------------

$molecule
1,2
C         -0.00199        0.00000        0.00717
C          0.00183        0.00000        1.31937
F          1.13163        0.00000       -0.70826
H         -0.88054        0.00000       -0.62880
H          0.92723        0.00000        1.88041
H         -0.93959        0.00000        1.85049
$end

$comment
positive
$end

$xc_functional
C PBE   1.00
X wPBE  1.00
$end

$rem
SYMMETRY_DECOMPOSITION	0
LRC_DFT                 true
exchange 		general
BASIS                   g3large
omega			300
mem_static              760
max_scf_cycles          200
scf_final_print         1
sym_ignore              true
$end

--------------------------------------------------------------
 Writing REM_CC_EA            6
 ----------------------------------------------------
       Standard Nuclear Orientation (Angstroms)
    I     Atom         X            Y            Z
 ----------------------------------------------------
    1      C      -0.001990     0.000000     0.007170
    2      C       0.001830     0.000000     1.319370
    3      F       1.131630     0.000000    -0.708260
    4      H      -0.880540     0.000000    -0.628800
    5      H       0.927230     0.000000     1.880410
    6      H      -0.939590     0.000000     1.850490
 ----------------------------------------------------
 Nuclear Repulsion Energy =    67.7967727849 hartrees
 There are       12 alpha and       11 beta electrons
 Requested basis set is G3large
 There are 48 shells and 156 basis functions

Total QAlloc Memory Limit   2000 MB
Mega-Array Size       743 MB
MEM_STATIC part       760 MB

                       Distance Matrix (Angstroms)
             C (  1)   C (  2)   F (  3)   H (  4)   H (  5)
   C (  2)  1.312206
   F (  3)  1.340498  2.321149
   H (  4)  1.084577  2.138678  2.013738
   H (  5)  2.091047  1.082188  2.596727  3.092599
   H (  6)  2.068072  1.080907  3.291983  2.479993  1.867060
 
 A cutoff of  1.0D-08 yielded   1115 shell pairs
 There are  11879 function pairs ( 14831 Cartesian)
Evaluating contribution to one-electron hamiltonian from nuclear
 Smallest overlap matrix eigenvalue = 1.04E-04
 Multipole matrices computed through 2nd order

  Scale SEOQF with 1.000000e-01/1.000000e-01/1.000000e-01

 Standard Electronic Orientation quadrupole field applied
 Nucleus-field energy     =    -0.0000000019 hartrees
 Guess from superposition of atomic densities
 Warning:  Energy on first SCF cycle will be non-variational
 Long-range K will be added via erf
 Coulomb attenuation parameter = 0.3 bohr**(-1)
 An unrestricted Kohn-Sham SCF calculation will be
 performed using Pulay DIIS extrapolation
 Exchange:  wPBE + LR-HF      Correlation:  PBE
 Using SG-1 standard quadrature grid
 SCF converges when DIIS error is below 1.0E-05
 Requested basis set is G3large
 There are 48 shells and 156 basis functions
 A cutoff of  1.0D-08 yielded   1115 shell pairs
 There are  11879 function pairs ( 14831 Cartesian)
 Warning!  Inaccurate integrated density:
   Number of electrons =    23
   Numerical integral  =    23.999812481250
   Relative error      =     4.3470107880 %
 ---------------------------------------
  Cycle       Energy         DIIS Error
 ---------------------------------------
    1    -178.2594977652      3.47E-02
    2    -177.2919883032      4.16E-03
    3    -177.3123913769      4.45E-03
    4    -177.3514861574      1.14E-03
    5    -177.3545874612      2.74E-04
    6    -177.3553933534      9.91E-05
    7    -177.3556793509      5.25E-05
    8    -177.3558195298      2.37E-05
    9    -177.3558587918      9.31E-06 Convergence criterion met
 ---------------------------------------
 One-Electron    Energy =  -370.1377902752
 Total Coulomb   Energy =   146.9205878852
 Alpha Exchange  Energy =    -1.9027444506
 Beta  Exchange  Energy =    -1.7490618393
 DFT   Exchange  Energy =   -17.5355060195
 DFT Correlation Energy =    -0.7481168754
 Nuclear Repu.   Energy =    67.7967727830
 Nuclear Attr.   Energy =  -547.1122191805
 Kinetic         Energy =   176.9744289052
 <S^2> = 0.7529
 SCF time:  CPU 58.99 s  wall 59.52 s
 Final Alpha MO Eigenvalues
            1           2           3           4           5           6
    1 -24.7468327 -10.4794956 -10.4010105  -1.6046299  -1.2208369  -1.0108627
            7           8           9          10          11          12
    1  -0.9341556  -0.8935331  -0.8749446  -0.8049208  -0.7652807  -0.7182140
           13          14          15          16          17
    1  -0.2379252  -0.1228040  -0.1017142  -0.0938608  -0.0751988
 Final Beta MO Eigenvalues
            1           2           3           4           5           6
    1 -24.7419229 -10.4749008 -10.3925584  -1.5952524  -1.1870719  -0.9999002
            7           8           9          10          11          12
    1  -0.9280843  -0.8847685  -0.8372850  -0.7994361  -0.7598932  -0.4017481
           13          14          15          16
    1  -0.1764860  -0.1200726  -0.0985219  -0.0904394
 Analysis of SCF Wavefunction
 
 --------------------------------------------------------------
                    Orbital Energies (a.u.)
 --------------------------------------------------------------
 
 Alpha MOs
 -- Occupied --
-24.747 -10.479 -10.401  -1.605  -1.221  -1.011  -0.934  -0.894
 -0.875  -0.805  -0.765  -0.718
 -- Virtual --
 -0.238  -0.123  -0.102  -0.094  -0.075  -0.066  -0.038  -0.022
 -0.011  -0.002   0.013   0.024   0.032   0.049   0.056   0.127
  0.138   0.175   0.225   0.245   0.255   0.298   0.305   0.308
  0.336   0.348   0.399   0.420   0.448   0.458   0.472   0.500
  0.542   0.582   0.600   0.728   0.737   0.819   0.828   0.887
  0.961   0.970   1.004   1.103   1.107   1.173   1.178   1.186
  1.223   1.258   1.303   1.334   1.426   1.532   1.743   1.845
  1.961   1.981   2.211   2.228   2.275   2.348   2.400   2.405
  2.465   2.488   2.568   2.572   2.620   2.710   2.817   2.839
  2.842   2.879   2.888   2.943   2.988   2.992   3.109   3.185
  3.196   3.315   3.337   3.342   3.446   3.487   3.509   3.742
  3.769   3.875   3.900   3.983   4.138   4.143   4.185   4.372
  4.422   4.826   4.975   5.066   5.312   5.651   5.917   6.056
  6.358   6.369   6.450   6.478   6.534   6.801   7.068   7.306
  8.799   8.852   9.177   9.369   9.649  23.552  24.388  26.788
 26.985  27.630  27.791  27.831  27.948  40.389  40.488  40.563
 40.670  40.673  40.751  40.826  40.838  40.888  40.950  49.727
 49.749  49.889  49.932  50.066  55.216  55.291  55.730  66.238
 
 Beta MOs
 -- Occupied --
-24.742 -10.475 -10.393  -1.595  -1.187  -1.000  -0.928  -0.885
 -0.837  -0.799  -0.760
 -- Virtual --
 -0.402  -0.176  -0.120  -0.099  -0.090  -0.074  -0.060  -0.035
 -0.016  -0.005   0.000   0.015   0.030   0.033   0.051   0.060
  0.129   0.144   0.184   0.227   0.247   0.258   0.305   0.311
  0.329   0.352   0.373   0.421   0.426   0.464   0.470   0.479
  0.512   0.552   0.601   0.606   0.731   0.744   0.829   0.839
  0.893   0.975   0.978   1.011   1.108   1.124   1.184   1.190
  1.191   1.226   1.263   1.311   1.339   1.437   1.539   1.751
  1.859   1.971   1.995   2.223   2.237   2.284   2.386   2.423
  2.444   2.507   2.509   2.577   2.601   2.646   2.749   2.834
  2.869   2.873   2.901   2.904   2.952   3.009   3.018   3.134
  3.207   3.211   3.324   3.346   3.380   3.467   3.517   3.523
  3.748   3.774   3.884   3.903   3.993   4.148   4.149   4.194
  4.414   4.424   4.843   4.980   5.069   5.315   5.655   5.941
  6.061   6.372   6.383   6.455   6.487   6.545   6.813   7.071
  7.310   8.819   8.873   9.197   9.372   9.657  23.560  24.397
 26.807  27.007  27.633  27.797  27.835  27.952  40.399  40.497
 40.582  40.680  40.685  40.769  40.840  40.842  40.893  40.953
 49.743  49.763  49.903  49.933  50.070  55.231  55.294  55.733
 66.243
 --------------------------------------------------------------
 
          Ground-State Mulliken Net Atomic Charges

     Atom                 Charge (a.u.)    Spin (a.u.)
  --------------------------------------------------------
      1 C                     0.136735       0.315975
      2 C                     0.181577       0.575839
      3 F                     0.087146       0.149372
      4 H                     0.222453      -0.010586
      5 H                     0.200447      -0.016112
      6 H                     0.171642      -0.014488
  --------------------------------------------------------
  Sum of atomic charges =     1.000000
  Sum of spin   charges =     1.000000

 -----------------------------------------------------------------
                    Cartesian Multipole Moments
 -----------------------------------------------------------------
    Charge (ESU x 10^10)
                 4.8032
    Dipole Moment (Debye)
         X      -0.6570      Y      -0.0006      Z       3.4716
       Tot       3.5332
    Quadrupole Moments (Debye-Ang)
        XX     -12.7641     XY      -0.0002     YY     -15.0964
        XZ       0.5590     YZ       0.0000     ZZ      -7.4820
    Octapole Moments (Debye-Ang^2)
       XXX     -14.6515    XXY       0.0000    XYY      -4.5165
       YYY      -0.0006    XXZ      -1.9574    XYZ      -0.0027
       YYZ      -4.6298    XZZ      -4.8668    YZZ      -0.0009
       ZZZ      -0.8753
    Hexadecapole Moments (Debye-Ang^3)
      XXXX     -51.7593   XXXY       0.0005   XXYY     -11.4905
      XYYY      -0.0003   YYYY     -11.9515   XXXZ       9.7220
      XXYZ      -0.0006   XYYZ       3.2708   YYYZ       0.0000
      XXZZ     -16.7746   XYZZ      -0.0029   YYZZ     -18.5320
      XZZZ      10.4893   YZZZ      -0.0023   ZZZZ     -74.7433
 -----------------------------------------------------------------
 Total job time:  59.69s(wall), 59.15s(cpu) 
 Mon Jul  8 12:32:33 2013

        *************************************************************
        *                                                           *
        *  Thank you very much for using Q-Chem.  Have a nice day.  *
        *                                                           *
        *************************************************************


0 sent ACK to 0 
now end server 0 ... 
