Process 0 of 1 is on cl135 - thread support 1
initial socket setup ...start
initial socket setup ...done 
now start server 0 ... 

cmd = /usr/bin/ssh clhead /usr/local/qchem/bin/get_hostid 1426413426 > /tmp/1602189.1.medium.q/qchem26718/lic.dat

cmd = /usr/bin/ssh clhead /usr/local/qchem/bin/get_hostid 1426413426 > /tmp/1602189.1.medium.q/qchem26718/lic.dat

cmd = /usr/bin/ssh clhead /usr/local/qchem/bin/get_hostid 1426413426 > /tmp/1602189.1.medium.q/qchem26718/lic.dat

cmd = /usr/bin/ssh clhead /usr/local/qchem/bin/get_hostid 1426413426 > /tmp/1602189.1.medium.q/qchem26718/lic.dat

cmd = /usr/bin/ssh clhead /usr/local/qchem/bin/get_hostid 1426413426 > /tmp/1602189.1.medium.q/qchem26718/lic.dat
                  Welcome to Q-Chem
     A Quantum Leap Into The Future Of Chemistry

 Y. Shao, L. Fusti-Molnar, Y. Jung, J. Kussmann, C. Ochsenfeld,
 S. T. Brown, A. T. B. Gilbert, L. V. Slipchenko,S. V. Levchenko,
 D. P. O'Neill, R. A. DiStasio Jr., R. C. Lochan, T. Wang,
 G. J. O. Beran, N. A. Besley, J. M. Herbert, C. Y. Lin,
 T. Van Voorhis, S. H. Chien, A. Sodt, R. P. Steele, 
 V. A. Rassolov, P. E. Maslen, P. P. Korambath, R. D. Adamson,
 B. Austin, J. Baker, E. F. C. Byrd, H. Dachsel, R. J. Doerksen,
 A. Dreuw, B. D. Dunietz, A. D. Dutoi, T. R. Furlani,
 S. R. Gwaltney, A. Heyden, S. Hirata, C.-P. Hsu, G. Kedziora,
 R. Z. Khaliullin, P. Klunzinger, A. M. Lee, M. S. Lee, W. Liang,
 I. Lotan, N. Nair, B. Peters, E. I. Proynov, P. A. Pieniazek, 
 Y. M. Rhee, J. Ritchie, E. Rosta, C. D. Sherrill, 
 A. C. Simmonett, J. E. Subotnik, H. L. Woodcock III,
 W. Zhang, A. T. Bell, A. K. Chakraborty, D. M. Chipman,
 F. J. Keil, A. Warshel, W. J. Hehre, H. F. Schaefer III,
 J. Kong, A. I. Krylov, P. M. W. Gill, M. Head-Gordon,
 Q-Chem, Version 3.1, Q-Chem, Inc., Pittsburgh, PA (2007).

 Additional authors for Version 3.1: 
 Z. Gan, Y. Zhao, N. E. Schultz, D. Truhlar, E. Epifanovsky and M. Oana.

 Additional authors for Version 3.2: 
 R. Baer, B. R. Brooks, D. Casanova, J.-D. Chai, C.-L. Cheng, 
 C. Cramer, D. Crittenden, A. Ghysels, G. Hawkins, E. G. Hohenstein, 
 C. Kelley, W. Kurlancheek, D. Liotard, E. Livshits, P. Manohar, 
 A. Marenich, D. Neuhauser, R. Olson, M. A. Rohrdanz, K. S. Thanthiriwatte, 
 A. J. W. Thom, V. Vanovschi, C. F. Williams, Q. Wu and Z.-Q. You. 


 Intel X86 Linux Version

 Q-chem begins on Fri Mar 21 15:26:00 2014  

 Parallel job on  1  processors
Processing $rem in /usr/local/qchem/config/preferences.

theFileMan(): MAXOPENFILES=974 MAX_SUB_FILE_NUM=16
Maximum size of a physical file is 2.0 GB, maximum size of a tmp-file is 32.0 GB


--------------------------------------------------------------
User input:
--------------------------------------------------------------

$molecule
-1,2
Li         0.00000        0.00000        0.01317
H          0.00000        0.00000        1.60790
$end

$comment
negative
$end

$xc_functional
C PBE   1.00
X wPBE  1.00
$end

$rem
SYMMETRY_DECOMPOSITION	0
exchange 		general
LRC_DFT                 true
BASIS                   g3large
omega			500
mem_static              760
max_scf_cycles          200
scf_final_print         1
sym_ignore              true
$end

--------------------------------------------------------------
 Writing REM_CC_EA            2
 ----------------------------------------------------
       Standard Nuclear Orientation (Angstroms)
    I     Atom         X            Y            Z
 ----------------------------------------------------
    1      Li      0.000000     0.000000     0.013170
    2      H       0.000000     0.000000     1.607900
 ----------------------------------------------------
 Nuclear Repulsion Energy =     0.9954861528 hartrees
 There are        3 alpha and        2 beta electrons
 Requested basis set is G3large
 There are 16 shells and 52 basis functions

Total QAlloc Memory Limit   2000 MB
Mega-Array Size       743 MB
MEM_STATIC part       760 MB

                       Distance Matrix (Angstroms)
             Li(  1)
   H (  2)  1.594730
 
 A cutoff of  1.0D-08 yielded    136 shell pairs
 There are   1462 function pairs (  1834 Cartesian)
Evaluating contribution to one-electron hamiltonian from nuclear
 Smallest overlap matrix eigenvalue = 3.55E-03
 Multipole matrices computed through 2nd order

  Scale SEOQF with 1.000000e-02/1.000000e-02/1.000000e-02

 Standard Electronic Orientation quadrupole field applied
 Guess from superposition of atomic densities
 Warning:  Energy on first SCF cycle will be non-variational
 Long-range K will be added via erf
 Coulomb attenuation parameter = 0.5 bohr**(-1)
 An unrestricted Kohn-Sham SCF calculation will be
 performed using Pulay DIIS extrapolation
 Exchange:  wPBE + LR-HF      Correlation:  PBE
 Using SG-1 standard quadrature grid
 SCF converges when DIIS error is below 1.0E-05
 Requested basis set is G3large
 There are 16 shells and 52 basis functions
 A cutoff of  1.0D-08 yielded    136 shell pairs
 There are   1462 function pairs (  1834 Cartesian)
 Warning!  Inaccurate integrated density:
   Number of electrons =     5
   Numerical integral  =     4.012701451678
   Relative error      =   -19.7459709664 %
 ---------------------------------------
  Cycle       Energy         DIIS Error
 ---------------------------------------
    1      -7.7613598429      5.53E-03
    2      -7.9878446258      6.24E-03
    3      -8.0218267448      3.21E-03
    4      -8.0445630244      5.67E-04
 Warning!  Inaccurate integrated density:
   Number of electrons =     5
   Numerical integral  =     4.992050658753
   Relative error      =    -0.1589868249 %
    5      -8.0498870710      4.09E-04
 Warning!  Inaccurate integrated density:
   Number of electrons =     5
   Numerical integral  =     4.988719626952
   Relative error      =    -0.2256074610 %
    6      -8.0551503446      3.01E-04
 Warning!  Inaccurate integrated density:
   Number of electrons =     5
   Numerical integral  =     4.989385501840
   Relative error      =    -0.2122899632 %
    7      -8.0588027826      3.36E-04
 Warning!  Inaccurate integrated density:
   Number of electrons =     5
   Numerical integral  =     4.987069562251
   Relative error      =    -0.2586087550 %
    8      -8.0544369071      2.31E-04
 Warning!  Inaccurate integrated density:
   Number of electrons =     5
   Numerical integral  =     4.985236774730
   Relative error      =    -0.2952645054 %
    9      -8.0530210147      1.30E-04
 Warning!  Inaccurate integrated density:
   Number of electrons =     5
   Numerical integral  =     4.983660246089
   Relative error      =    -0.3267950782 %
   10      -8.0530529851      5.24E-05
 Warning!  Inaccurate integrated density:
   Number of electrons =     5
   Numerical integral  =     4.982984047237
   Relative error      =    -0.3403190553 %
   11      -8.0530937158      1.85E-05
 Warning!  Inaccurate integrated density:
   Number of electrons =     5
   Numerical integral  =     4.983128019946
   Relative error      =    -0.3374396011 %
   12      -8.0530942851      1.36E-05
 Warning!  Inaccurate integrated density:
   Number of electrons =     5
   Numerical integral  =     4.983017135106
   Relative error      =    -0.3396572979 %
   13      -8.0530982972      5.94E-06 Convergence criterion met
 ---------------------------------------
 One-Electron    Energy =   -12.8080961208
 Total Coulomb   Energy =     6.0222897653
 Alpha Exchange  Energy =    -0.4791956841
 Beta  Exchange  Energy =    -0.4416495903
 DFT   Exchange  Energy =    -1.2528487854
 DFT Correlation Energy =    -0.0890840346
 Nuclear Repu.   Energy =     0.9954861527
 Nuclear Attr.   Energy =   -20.7860729886
 Kinetic         Energy =     7.9779768678
 <S^2> = 0.7501
 SCF time:  CPU 7.44 s  wall 8.39 s
 Final Alpha MO Eigenvalues
            1           2           3           4           5           6
    1  -2.0359017  -0.2231579   0.0090511   0.0539501   0.0729839   0.0802921
            7           8
    1   0.0931050   0.1199721
 Final Beta MO Eigenvalues
            1           2           3           4           5           6
    1  -2.0358071  -0.2241399   0.0688659   0.0811900   0.0891016   0.0894054
            7
    1   0.1023899
 Analysis of SCF Wavefunction
 
 --------------------------------------------------------------
                    Orbital Energies (a.u.)
 --------------------------------------------------------------
 
 Alpha MOs
 -- Occupied --
 -2.036  -0.223   0.009
 -- Virtual --
  0.054   0.073   0.080   0.093   0.120   0.128   0.147   0.214
  0.238   0.239   0.241   0.331   0.366   0.367   0.372   0.373
  0.482   0.600   0.641   0.643   0.681   0.682   0.700   0.700
  0.701   0.702   0.735   0.931   1.183   1.185   1.300   1.378
  1.379   1.483   1.484   1.629   2.975   3.816   4.357   4.358
  4.479   7.038   7.038   7.320  20.192  20.220  21.372  21.377
 21.377
 
 Beta MOs
 -- Occupied --
 -2.036  -0.224
 -- Virtual --
  0.069   0.081   0.089   0.089   0.102   0.128   0.129   0.146
  0.214   0.237   0.238   0.242   0.330   0.366   0.366   0.371
  0.372   0.480   0.600   0.641   0.642   0.681   0.681   0.699
  0.699   0.701   0.701   0.734   0.930   1.183   1.184   1.300
  1.378   1.379   1.483   1.484   1.628   2.974   3.815   4.356
  4.357   4.478   7.038   7.038   7.320  20.192  20.220  21.372
 21.377  21.377
 --------------------------------------------------------------
 
          Ground-State Mulliken Net Atomic Charges

     Atom                 Charge (a.u.)    Spin (a.u.)
  --------------------------------------------------------
      1 Li                   -0.651655       1.012134
      2 H                    -0.348345      -0.012134
  --------------------------------------------------------
  Sum of atomic charges =    -1.000000
  Sum of spin   charges =     1.000000

 -----------------------------------------------------------------
                    Cartesian Multipole Moments
 -----------------------------------------------------------------
    Charge (ESU x 10^10)
                -4.8032
    Dipole Moment (Debye)
         X      -0.1352      Y      -0.1352      Z      -5.9927
       Tot       5.9957
    Quadrupole Moments (Debye-Ang)
        XX    -100.4093     XY     -47.5324     YY    -100.3779
        XZ       0.5876     YZ       0.5874     ZZ     -59.8638
    Octapole Moments (Debye-Ang^2)
       XXX      -5.7755    XXY      -1.9248    XYY      -1.9255
       YYY      -5.7735    XXZ      -7.5094    XYZ      -0.5293
       YYZ      -7.5090    XZZ      -1.8925    YZZ      -1.8918
       ZZZ     -28.8033
    Hexadecapole Moments (Debye-Ang^3)
      XXXX   -4206.6617   XXXY   -1397.6439   XXYY   -1401.9132
      XYYY   -1397.6439   YYYY   -4204.8241   XXXZ      19.8721
      XXYZ       6.6218   XYYZ       6.6240   YYYZ      19.8656
      XXZZ    -944.5007   XYZZ    -465.8834   YYZZ    -944.1944
      XZZZ      19.8897   YZZZ      19.8832   ZZZZ   -1469.4355
 -----------------------------------------------------------------
 Total job time:  9.98s(wall), 7.51s(cpu) 
 Fri Mar 21 15:26:10 2014

        *************************************************************
        *                                                           *
        *  Thank you very much for using Q-Chem.  Have a nice day.  *
        *                                                           *
        *************************************************************


0 sent ACK to 0 
now end server 0 ... 
 
**********************************************************************
Job 2 of 3 
**********************************************************************
 
Process 0 of 1 is on cl135 - thread support 1
initial socket setup ...start
initial socket setup ...done 
now start server 0 ... 

cmd = /usr/bin/ssh clhead /usr/local/qchem/bin/get_hostid 97936021 > /tmp/1602189.1.medium.q/qchem26718/lic.dat

cmd = /usr/bin/ssh clhead /usr/local/qchem/bin/get_hostid 97936021 > /tmp/1602189.1.medium.q/qchem26718/lic.dat

cmd = /usr/bin/ssh clhead /usr/local/qchem/bin/get_hostid 97936021 > /tmp/1602189.1.medium.q/qchem26718/lic.dat

cmd = /usr/bin/ssh clhead /usr/local/qchem/bin/get_hostid 97936021 > /tmp/1602189.1.medium.q/qchem26718/lic.dat

cmd = /usr/bin/ssh clhead /usr/local/qchem/bin/get_hostid 97936021 > /tmp/1602189.1.medium.q/qchem26718/lic.dat
                  Welcome to Q-Chem
     A Quantum Leap Into The Future Of Chemistry

 Y. Shao, L. Fusti-Molnar, Y. Jung, J. Kussmann, C. Ochsenfeld,
 S. T. Brown, A. T. B. Gilbert, L. V. Slipchenko,S. V. Levchenko,
 D. P. O'Neill, R. A. DiStasio Jr., R. C. Lochan, T. Wang,
 G. J. O. Beran, N. A. Besley, J. M. Herbert, C. Y. Lin,
 T. Van Voorhis, S. H. Chien, A. Sodt, R. P. Steele, 
 V. A. Rassolov, P. E. Maslen, P. P. Korambath, R. D. Adamson,
 B. Austin, J. Baker, E. F. C. Byrd, H. Dachsel, R. J. Doerksen,
 A. Dreuw, B. D. Dunietz, A. D. Dutoi, T. R. Furlani,
 S. R. Gwaltney, A. Heyden, S. Hirata, C.-P. Hsu, G. Kedziora,
 R. Z. Khaliullin, P. Klunzinger, A. M. Lee, M. S. Lee, W. Liang,
 I. Lotan, N. Nair, B. Peters, E. I. Proynov, P. A. Pieniazek, 
 Y. M. Rhee, J. Ritchie, E. Rosta, C. D. Sherrill, 
 A. C. Simmonett, J. E. Subotnik, H. L. Woodcock III,
 W. Zhang, A. T. Bell, A. K. Chakraborty, D. M. Chipman,
 F. J. Keil, A. Warshel, W. J. Hehre, H. F. Schaefer III,
 J. Kong, A. I. Krylov, P. M. W. Gill, M. Head-Gordon,
 Q-Chem, Version 3.1, Q-Chem, Inc., Pittsburgh, PA (2007).

 Additional authors for Version 3.1: 
 Z. Gan, Y. Zhao, N. E. Schultz, D. Truhlar, E. Epifanovsky and M. Oana.

 Additional authors for Version 3.2: 
 R. Baer, B. R. Brooks, D. Casanova, J.-D. Chai, C.-L. Cheng, 
 C. Cramer, D. Crittenden, A. Ghysels, G. Hawkins, E. G. Hohenstein, 
 C. Kelley, W. Kurlancheek, D. Liotard, E. Livshits, P. Manohar, 
 A. Marenich, D. Neuhauser, R. Olson, M. A. Rohrdanz, K. S. Thanthiriwatte, 
 A. J. W. Thom, V. Vanovschi, C. F. Williams, Q. Wu and Z.-Q. You. 


 Intel X86 Linux Version

 Q-chem begins on Fri Mar 21 15:26:15 2014  

 Parallel job on  1  processors
Processing $rem in /usr/local/qchem/config/preferences.

theFileMan(): MAXOPENFILES=974 MAX_SUB_FILE_NUM=16
Maximum size of a physical file is 2.0 GB, maximum size of a tmp-file is 32.0 GB


--------------------------------------------------------------
User input:
--------------------------------------------------------------

$molecule
0,1
Li         0.00000        0.00000        0.01317
H          0.00000        0.00000        1.60790
$end

$comment
neutral
$end

$xc_functional
C PBE   1.00
X wPBE  1.00
$end


$rem
SYMMETRY_DECOMPOSITION	0
LRC_DFT                 true
exchange 		general
BASIS                   g3large
omega			500
mem_static              760
max_scf_cycles          200
scf_final_print         1
sym_ignore              true
$end

--------------------------------------------------------------
 Writing REM_CC_EA            2
 ----------------------------------------------------
       Standard Nuclear Orientation (Angstroms)
    I     Atom         X            Y            Z
 ----------------------------------------------------
    1      Li      0.000000     0.000000     0.013170
    2      H       0.000000     0.000000     1.607900
 ----------------------------------------------------
 Nuclear Repulsion Energy =     0.9954861528 hartrees
 There are        2 alpha and        2 beta electrons
 Requested basis set is G3large
 There are 16 shells and 52 basis functions

Total QAlloc Memory Limit   2000 MB
Mega-Array Size       743 MB
MEM_STATIC part       760 MB

                       Distance Matrix (Angstroms)
             Li(  1)
   H (  2)  1.594730
 
 A cutoff of  1.0D-08 yielded    136 shell pairs
 There are   1462 function pairs (  1834 Cartesian)
Evaluating contribution to one-electron hamiltonian from nuclear
 Smallest overlap matrix eigenvalue = 3.55E-03
 Multipole matrices computed through 2nd order

  Scale SEOQF with 1.000000e-02/1.000000e-02/1.000000e-02

 Standard Electronic Orientation quadrupole field applied
 Guess from superposition of atomic densities
 Warning:  Energy on first SCF cycle will be non-variational
 Long-range K will be added via erf
 Coulomb attenuation parameter = 0.5 bohr**(-1)
 A restricted Kohn-Sham SCF calculation will be
 performed using Pulay DIIS extrapolation
 Exchange:  wPBE + LR-HF      Correlation:  PBE
 Using SG-1 standard quadrature grid
 SCF converges when DIIS error is below 1.0E-05
 Requested basis set is G3large
 There are 16 shells and 52 basis functions
 A cutoff of  1.0D-08 yielded    136 shell pairs
 There are   1462 function pairs (  1834 Cartesian)
 Warning!  Inaccurate integrated density:
   Number of electrons =     4
   Numerical integral  =     4.012701451678
   Relative error      =     0.3175362920 %
 ---------------------------------------
  Cycle       Energy         DIIS Error
 ---------------------------------------
    1      -7.7613598429      5.53E-03
    2      -8.0379143940      5.67E-03
    3      -8.0559612109      2.79E-03
    4      -8.0635990090      3.26E-04
    5      -8.0638723308      1.17E-04
    6      -8.0639173398      1.71E-05
    7      -8.0639180485      2.94E-06 Convergence criterion met
 ---------------------------------------
 One-Electron    Energy =   -12.4702851247
 Total Coulomb   Energy =     5.6319011109
 Alpha Exchange  Energy =    -0.4415702680
 Beta  Exchange  Energy =    -0.4415702680
 DFT   Exchange  Energy =    -1.2529702360
 DFT Correlation Energy =    -0.0849094155
 Nuclear Repu.   Energy =     0.9954861527
 Nuclear Attr.   Energy =   -20.4339355499
 Kinetic         Energy =     7.9636504251
 SCF time:  CPU 4.17 s  wall 4.56 s
 Final Alpha MO Eigenvalues
            1           2           3           4           5           6
    1  -2.1251113  -0.3106289  -0.0082237   0.0148874   0.0148877   0.0224720
            7
    1   0.0275291
 Analysis of SCF Wavefunction
 
 --------------------------------------------------------------
                    Orbital Energies (a.u.)
 --------------------------------------------------------------
 
 Alpha MOs
 -- Occupied --
 -2.125  -0.311
 -- Virtual --
 -0.008   0.015   0.015   0.022   0.028   0.053   0.053   0.077
  0.136   0.158   0.158   0.163   0.247   0.281   0.281   0.286
  0.287   0.397   0.514   0.555   0.555   0.595   0.595   0.611
  0.611   0.615   0.615   0.650   0.843   1.097   1.097   1.214
  1.289   1.289   1.395   1.395   1.541   2.889   3.727   4.271
  4.271   4.392   6.949   6.949   7.231  20.102  20.131  21.283
 21.288  21.288
 --------------------------------------------------------------
 
          Ground-State Mulliken Net Atomic Charges

     Atom                 Charge (a.u.)
  ----------------------------------------
      1 Li                    0.342341
      2 H                    -0.342341
  ----------------------------------------
  Sum of atomic charges =     0.000000

 -----------------------------------------------------------------
                    Cartesian Multipole Moments
 -----------------------------------------------------------------
    Charge (ESU x 10^10)
                 0.0000
    Dipole Moment (Debye)
         X       0.0000      Y       0.0000      Z      -5.9433
       Tot       5.9433
    Quadrupole Moments (Debye-Ang)
        XX      -5.2026     XY       0.0000     YY      -5.2026
        XZ       0.0000     YZ       0.0000     ZZ     -12.0553
    Octapole Moments (Debye-Ang^2)
       XXX       0.0000    XXY       0.0000    XYY       0.0000
       YYY       0.0000    XXZ      -6.3022    XYZ       0.0000
       YYZ      -6.3022    XZZ       0.0000    YZZ       0.0000
       ZZZ     -26.5015
    Hexadecapole Moments (Debye-Ang^3)
      XXXX     -11.3609   XXXY       0.0001   XXYY      -3.7870
      XYYY       0.0001   YYYY     -11.3609   XXXZ       0.0000
      XXYZ       0.0000   XYYZ       0.0000   YYYZ       0.0000
      XXZZ     -11.8034   XYZZ       0.0000   YYZZ     -11.8034
      XZZZ       0.0000   YZZZ       0.0000   ZZZZ     -68.0501
 -----------------------------------------------------------------
 Total job time:  4.64s(wall), 4.24s(cpu) 
 Fri Mar 21 15:26:19 2014

        *************************************************************
        *                                                           *
        *  Thank you very much for using Q-Chem.  Have a nice day.  *
        *                                                           *
        *************************************************************


0 sent ACK to 0 
now end server 0 ... 
 
**********************************************************************
Job 3 of 3 
**********************************************************************
 
Process 0 of 1 is on cl135 - thread support 1
initial socket setup ...start
initial socket setup ...done 
now start server 0 ... 

cmd = /usr/bin/ssh clhead /usr/local/qchem/bin/get_hostid 1644693249 > /tmp/1602189.1.medium.q/qchem26718/lic.dat

cmd = /usr/bin/ssh clhead /usr/local/qchem/bin/get_hostid 1644693249 > /tmp/1602189.1.medium.q/qchem26718/lic.dat

cmd = /usr/bin/ssh clhead /usr/local/qchem/bin/get_hostid 1644693249 > /tmp/1602189.1.medium.q/qchem26718/lic.dat

cmd = /usr/bin/ssh clhead /usr/local/qchem/bin/get_hostid 1644693249 > /tmp/1602189.1.medium.q/qchem26718/lic.dat

cmd = /usr/bin/ssh clhead /usr/local/qchem/bin/get_hostid 1644693249 > /tmp/1602189.1.medium.q/qchem26718/lic.dat
                  Welcome to Q-Chem
     A Quantum Leap Into The Future Of Chemistry

 Y. Shao, L. Fusti-Molnar, Y. Jung, J. Kussmann, C. Ochsenfeld,
 S. T. Brown, A. T. B. Gilbert, L. V. Slipchenko,S. V. Levchenko,
 D. P. O'Neill, R. A. DiStasio Jr., R. C. Lochan, T. Wang,
 G. J. O. Beran, N. A. Besley, J. M. Herbert, C. Y. Lin,
 T. Van Voorhis, S. H. Chien, A. Sodt, R. P. Steele, 
 V. A. Rassolov, P. E. Maslen, P. P. Korambath, R. D. Adamson,
 B. Austin, J. Baker, E. F. C. Byrd, H. Dachsel, R. J. Doerksen,
 A. Dreuw, B. D. Dunietz, A. D. Dutoi, T. R. Furlani,
 S. R. Gwaltney, A. Heyden, S. Hirata, C.-P. Hsu, G. Kedziora,
 R. Z. Khaliullin, P. Klunzinger, A. M. Lee, M. S. Lee, W. Liang,
 I. Lotan, N. Nair, B. Peters, E. I. Proynov, P. A. Pieniazek, 
 Y. M. Rhee, J. Ritchie, E. Rosta, C. D. Sherrill, 
 A. C. Simmonett, J. E. Subotnik, H. L. Woodcock III,
 W. Zhang, A. T. Bell, A. K. Chakraborty, D. M. Chipman,
 F. J. Keil, A. Warshel, W. J. Hehre, H. F. Schaefer III,
 J. Kong, A. I. Krylov, P. M. W. Gill, M. Head-Gordon,
 Q-Chem, Version 3.1, Q-Chem, Inc., Pittsburgh, PA (2007).

 Additional authors for Version 3.1: 
 Z. Gan, Y. Zhao, N. E. Schultz, D. Truhlar, E. Epifanovsky and M. Oana.

 Additional authors for Version 3.2: 
 R. Baer, B. R. Brooks, D. Casanova, J.-D. Chai, C.-L. Cheng, 
 C. Cramer, D. Crittenden, A. Ghysels, G. Hawkins, E. G. Hohenstein, 
 C. Kelley, W. Kurlancheek, D. Liotard, E. Livshits, P. Manohar, 
 A. Marenich, D. Neuhauser, R. Olson, M. A. Rohrdanz, K. S. Thanthiriwatte, 
 A. J. W. Thom, V. Vanovschi, C. F. Williams, Q. Wu and Z.-Q. You. 


 Intel X86 Linux Version

 Q-chem begins on Fri Mar 21 15:26:24 2014  

 Parallel job on  1  processors
Processing $rem in /usr/local/qchem/config/preferences.

theFileMan(): MAXOPENFILES=974 MAX_SUB_FILE_NUM=16
Maximum size of a physical file is 2.0 GB, maximum size of a tmp-file is 32.0 GB


--------------------------------------------------------------
User input:
--------------------------------------------------------------

$molecule
1,2
Li         0.00000        0.00000        0.01317
H          0.00000        0.00000        1.60790
$end

$comment
positive
$end

$xc_functional
C PBE   1.00
X wPBE  1.00
$end

$rem
SYMMETRY_DECOMPOSITION	0
LRC_DFT                 true
exchange 		general
BASIS                   g3large
omega			500
mem_static              760
max_scf_cycles          200
scf_final_print         1
sym_ignore              true
$end

--------------------------------------------------------------
 Writing REM_CC_EA            2
 ----------------------------------------------------
       Standard Nuclear Orientation (Angstroms)
    I     Atom         X            Y            Z
 ----------------------------------------------------
    1      Li      0.000000     0.000000     0.013170
    2      H       0.000000     0.000000     1.607900
 ----------------------------------------------------
 Nuclear Repulsion Energy =     0.9954861528 hartrees
 There are        2 alpha and        1 beta electrons
 Requested basis set is G3large
 There are 16 shells and 52 basis functions

Total QAlloc Memory Limit   2000 MB
Mega-Array Size       743 MB
MEM_STATIC part       760 MB

                       Distance Matrix (Angstroms)
             Li(  1)
   H (  2)  1.594730
 
 A cutoff of  1.0D-08 yielded    136 shell pairs
 There are   1462 function pairs (  1834 Cartesian)
Evaluating contribution to one-electron hamiltonian from nuclear
 Smallest overlap matrix eigenvalue = 3.55E-03
 Multipole matrices computed through 2nd order

  Scale SEOQF with 1.000000e-02/1.000000e-02/1.000000e-02

 Standard Electronic Orientation quadrupole field applied
 Guess from superposition of atomic densities
 Warning:  Energy on first SCF cycle will be non-variational
 Long-range K will be added via erf
 Coulomb attenuation parameter = 0.5 bohr**(-1)
 An unrestricted Kohn-Sham SCF calculation will be
 performed using Pulay DIIS extrapolation
 Exchange:  wPBE + LR-HF      Correlation:  PBE
 Using SG-1 standard quadrature grid
 SCF converges when DIIS error is below 1.0E-05
 Requested basis set is G3large
 There are 16 shells and 52 basis functions
 A cutoff of  1.0D-08 yielded    136 shell pairs
 There are   1462 function pairs (  1834 Cartesian)
 Warning!  Inaccurate integrated density:
   Number of electrons =     3
   Numerical integral  =     4.012701451678
   Relative error      =    33.7567150559 %
 ---------------------------------------
  Cycle       Energy         DIIS Error
 ---------------------------------------
    1      -7.7613598429      5.53E-03
    2      -7.7565945029      2.39E-03
    3      -7.7667864678      8.24E-04
    4      -7.7681796635      6.08E-05
    5      -7.7681860890      1.13E-05
    6      -7.7681862982      2.14E-06 Convergence criterion met
 ---------------------------------------
 One-Electron    Energy =   -11.0690304433
 Total Coulomb   Energy =     4.3201986786
 Alpha Exchange  Energy =    -0.4721264091
 Beta  Exchange  Energy =    -0.2633138407
 DFT   Exchange  Energy =    -1.2275333077
 DFT Correlation Energy =    -0.0518671288
 Nuclear Repu.   Energy =     0.9954861527
 Nuclear Attr.   Energy =   -18.8444916754
 Kinetic         Energy =     7.7754612321
 <S^2> = 0.7500
 SCF time:  CPU 3.73 s  wall 4.11 s
 Final Alpha MO Eigenvalues
            1           2           3           4           5           6
    1  -2.4599441  -0.7875200  -0.1743165  -0.1368565  -0.1368550  -0.0865260
            7
    1  -0.0686844
 Final Beta MO Eigenvalues
            1           2           3           4           5           6
    1  -2.4565732  -0.2132340  -0.1472945  -0.1277757  -0.1277322  -0.0770532
 Analysis of SCF Wavefunction
 
 --------------------------------------------------------------
                    Orbital Energies (a.u.)
 --------------------------------------------------------------
 
 Alpha MOs
 -- Occupied --
 -2.460  -0.788
 -- Virtual --
 -0.174  -0.137  -0.137  -0.087  -0.069  -0.058  -0.058  -0.050
 -0.027  -0.005  -0.005  -0.005   0.040   0.057   0.057   0.081
  0.081   0.197   0.236   0.303   0.303   0.352   0.355   0.355
  0.386   0.386   0.396   0.396   0.584   0.755   0.755   0.870
  1.015   1.016   1.082   1.082   1.232   2.393   3.357   3.751
  3.751   3.907   6.618   6.618   6.897  19.768  19.794  20.948
 20.951  20.951
 
 Beta MOs
 -- Occupied --
 -2.457
 -- Virtual --
 -0.213  -0.147  -0.128  -0.128  -0.077  -0.062  -0.057  -0.057
 -0.037  -0.014  -0.004  -0.002  -0.002   0.079   0.080   0.084
  0.084   0.102   0.202   0.291   0.305   0.305   0.388   0.389
  0.395   0.395   0.397   0.397   0.476   0.661   0.876   0.878
  1.017   1.017   1.054   1.166   1.169   1.278   2.807   3.451
  4.192   4.193   4.378   6.620   6.620   6.903  19.772  19.798
 20.948  20.951  20.951
 --------------------------------------------------------------
 
          Ground-State Mulliken Net Atomic Charges

     Atom                 Charge (a.u.)    Spin (a.u.)
  --------------------------------------------------------
      1 Li                    0.823347       0.175107
      2 H                     0.176653       0.824893
  --------------------------------------------------------
  Sum of atomic charges =     1.000000
  Sum of spin   charges =     1.000000

 -----------------------------------------------------------------
                    Cartesian Multipole Moments
 -----------------------------------------------------------------
    Charge (ESU x 10^10)
                 4.8032
    Dipole Moment (Debye)
         X       0.0000      Y       0.0000      Z       0.6152
       Tot       0.6152
    Quadrupole Moments (Debye-Ang)
        XX      -1.6218     XY       0.0000     YY      -1.6218
        XZ       0.0000     YZ       0.0000     ZZ       0.0893
    Octapole Moments (Debye-Ang^2)
       XXX       0.0000    XXY       0.0000    XYY       0.0000
       YYY       0.0000    XXZ      -1.7712    XYZ       0.0000
       YYZ      -1.7712    XZZ       0.0000    YZZ       0.0000
       ZZZ      -1.3504
    Hexadecapole Moments (Debye-Ang^3)
      XXXX      -1.5886   XXXY       0.0000   XXYY      -0.5295
      XYYY       0.0000   YYYY      -1.5886   XXXZ       0.0000
      XXYZ       0.0000   XYYZ       0.0000   YYYZ       0.0000
      XXZZ      -3.0716   XYZZ       0.0000   YYZZ      -3.0716
      XZZZ       0.0000   YZZZ       0.0000   ZZZZ      -8.8249
 -----------------------------------------------------------------
 Total job time:  4.19s(wall), 3.79s(cpu) 
 Fri Mar 21 15:26:28 2014

        *************************************************************
        *                                                           *
        *  Thank you very much for using Q-Chem.  Have a nice day.  *
        *                                                           *
        *************************************************************


0 sent ACK to 0 
now end server 0 ... 
