Process 0 of 1 is on cl022.stfx.acenet.ca - thread support 1
initial socket setup ...start
initial socket setup ...done 
now start server 0 ... 

cmd = /usr/bin/ssh clhead /usr/local/qchem/bin/get_hostid 1606257541 > /scratch/tmp/6064754.1.short.q/qchem20868/lic.dat
                  Welcome to Q-Chem
     A Quantum Leap Into The Future Of Chemistry

 Y. Shao, L. Fusti-Molnar, Y. Jung, J. Kussmann, C. Ochsenfeld,
 S. T. Brown, A. T. B. Gilbert, L. V. Slipchenko,S. V. Levchenko,
 D. P. O'Neill, R. A. DiStasio Jr., R. C. Lochan, T. Wang,
 G. J. O. Beran, N. A. Besley, J. M. Herbert, C. Y. Lin,
 T. Van Voorhis, S. H. Chien, A. Sodt, R. P. Steele, 
 V. A. Rassolov, P. E. Maslen, P. P. Korambath, R. D. Adamson,
 B. Austin, J. Baker, E. F. C. Byrd, H. Dachsel, R. J. Doerksen,
 A. Dreuw, B. D. Dunietz, A. D. Dutoi, T. R. Furlani,
 S. R. Gwaltney, A. Heyden, S. Hirata, C.-P. Hsu, G. Kedziora,
 R. Z. Khaliullin, P. Klunzinger, A. M. Lee, M. S. Lee, W. Liang,
 I. Lotan, N. Nair, B. Peters, E. I. Proynov, P. A. Pieniazek, 
 Y. M. Rhee, J. Ritchie, E. Rosta, C. D. Sherrill, 
 A. C. Simmonett, J. E. Subotnik, H. L. Woodcock III,
 W. Zhang, A. T. Bell, A. K. Chakraborty, D. M. Chipman,
 F. J. Keil, A. Warshel, W. J. Hehre, H. F. Schaefer III,
 J. Kong, A. I. Krylov, P. M. W. Gill, M. Head-Gordon,
 Q-Chem, Version 3.1, Q-Chem, Inc., Pittsburgh, PA (2007).

 Additional authors for Version 3.1: 
 Z. Gan, Y. Zhao, N. E. Schultz, D. Truhlar, E. Epifanovsky and M. Oana.

 Additional authors for Version 3.2: 
 R. Baer, B. R. Brooks, D. Casanova, J.-D. Chai, C.-L. Cheng, 
 C. Cramer, D. Crittenden, A. Ghysels, G. Hawkins, E. G. Hohenstein, 
 C. Kelley, W. Kurlancheek, D. Liotard, E. Livshits, P. Manohar, 
 A. Marenich, D. Neuhauser, R. Olson, M. A. Rohrdanz, K. S. Thanthiriwatte, 
 A. J. W. Thom, V. Vanovschi, C. F. Williams, Q. Wu and Z.-Q. You. 


 Intel X86 Linux Version

 Q-chem begins on Mon Jul  8 12:24:35 2013  

 Parallel job on  1  processors
Processing $rem in /usr/local/qchem/config/preferences.

theFileMan(): MAXOPENFILES=974 MAX_SUB_FILE_NUM=16
Maximum size of a physical file is 2.0 GB, maximum size of a tmp-file is 32.0 GB


--------------------------------------------------------------
User input:
--------------------------------------------------------------

$molecule
-1,2
N         -0.00002        0.00000       -0.02016
F          1.20897        0.00000       -0.60646
F         -0.60449       -1.04702       -0.60646
F         -0.60449        1.04702       -0.60646
$end

$comment
negative
$end

$xc_functional
C PBE   1.00
X wPBE  1.00
$end

$rem
SYMMETRY_DECOMPOSITION	0
exchange 		general
LRC_DFT                 true
BASIS                   g3large
omega			100
mem_static              760
max_scf_cycles          200
scf_final_print         1
sym_ignore              true
$end

--------------------------------------------------------------
 Writing REM_CC_EA            4
 ----------------------------------------------------
       Standard Nuclear Orientation (Angstroms)
    I     Atom         X            Y            Z
 ----------------------------------------------------
    1      N      -0.000020     0.000000    -0.020160
    2      F       1.208970     0.000000    -0.606460
    3      F      -0.604490    -1.047020    -0.606460
    4      F      -0.604490     1.047020    -0.606460
 ----------------------------------------------------
 Nuclear Repulsion Energy =   135.8432244769 hartrees
 There are       18 alpha and       17 beta electrons
 Requested basis set is G3large
 There are 40 shells and 168 basis functions

Total QAlloc Memory Limit   2000 MB
Mega-Array Size       743 MB
MEM_STATIC part       760 MB

                       Distance Matrix (Angstroms)
             N (  1)   F (  2)   F (  3)
   F (  2)  1.343653
   F (  3)  1.343645  2.094012
   F (  4)  1.343645  2.094012  2.094040
 
 A cutoff of  1.0D-08 yielded    709 shell pairs
 There are  12942 function pairs ( 16926 Cartesian)
Evaluating contribution to one-electron hamiltonian from nuclear
 Smallest overlap matrix eigenvalue = 1.78E-03
 Multipole matrices computed through 2nd order

  Scale SEOQF with 1.000000e-01/1.000000e-01/1.000000e-01

 Standard Electronic Orientation quadrupole field applied
 Nucleus-field energy     =     0.0000000010 hartrees
 Guess from superposition of atomic densities
 Warning:  Energy on first SCF cycle will be non-variational
 Long-range K will be added via erf
 Coulomb attenuation parameter = 0.1 bohr**(-1)
 An unrestricted Kohn-Sham SCF calculation will be
 performed using Pulay DIIS extrapolation
 Exchange:  wPBE + LR-HF      Correlation:  PBE
 Using SG-1 standard quadrature grid
 SCF converges when DIIS error is below 1.0E-05
 Requested basis set is G3large
 There are 40 shells and 168 basis functions
 A cutoff of  1.0D-08 yielded    709 shell pairs
 There are  12942 function pairs ( 16926 Cartesian)
 Warning!  Inaccurate integrated density:
   Number of electrons =    35
   Numerical integral  =    34.000286405006
   Relative error      =    -2.8563245571 %
 ---------------------------------------
  Cycle       Energy         DIIS Error
 ---------------------------------------
    1    -354.4207213451      3.02E-02
    2    -353.6989207324      6.51E-03
    3    -353.6405929050      9.28E-03
    4    -353.8031881163      1.44E-03
    5    -353.8074786122      6.75E-04
    6    -353.8093008854      4.08E-04
    7    -353.8099534627      1.83E-04
    8    -353.8102125590      1.16E-04
    9    -353.8103603881      3.46E-05
   10    -353.8104404315      1.94E-05
   11    -353.8105103811      1.99E-05
   12    -353.8105383729      1.94E-05
   13    -353.8105368858      1.94E-05
   14    -353.8105986053      1.96E-05
   15    -353.8106261432      1.98E-05
   16    -353.8104289132      1.99E-05
   17    -353.8102676426      2.24E-05
   18    -353.8102559654      1.93E-05
   19    -353.8102040834      1.56E-05
   20    -353.8100374044      2.30E-05
   21    -353.8100417168      2.26E-05
   22    -353.8100646207      2.23E-05
   23    -353.8100554263      2.16E-05
   24    -353.8100743743      1.81E-05
   25    -353.8100842215      1.31E-05
   26    -353.8100924711      1.02E-05
   27    -353.8101152787      9.16E-06 Convergence criterion met
 ---------------------------------------
 One-Electron    Energy =  -768.8705493621
 Total Coulomb   Energy =   317.2862972087
 Alpha Exchange  Energy =    -1.0033293052
 Beta  Exchange  Energy =    -0.9528208818
 DFT   Exchange  Energy =   -34.9133674127
 DFT Correlation Energy =    -1.1995700035
 Nuclear Repu.   Energy =   135.8432244780
 Nuclear Attr.   Energy = -1122.9347458405
 Kinetic         Energy =   354.0641964784
 <S^2> = 0.7507
 SCF time:  CPU 177.51 s  wall 179.98 s
 Final Alpha MO Eigenvalues
            1           2           3           4           5           6
    1 -24.1549656 -24.1489131 -24.1435875 -14.0505056  -1.1244756  -0.9911968
            7           8           9          10          11          12
    1  -0.9863561  -0.5858198  -0.4222558  -0.4206422  -0.3597716  -0.2748874
           13          14          15          16          17          18
    1  -0.2733321  -0.2297905  -0.2254546  -0.2086370  -0.1233741   0.1336258
           19          20          21          22          23
    1   0.2261773   0.2433339   0.2628978   0.2905996   0.2964587
 Final Beta MO Eigenvalues
            1           2           3           4           5           6
    1 -24.1537477 -24.1471174 -24.1411062 -14.0443747  -1.1192007  -0.9884846
            7           8           9          10          11          12
    1  -0.9806499  -0.5791717  -0.4192272  -0.4094902  -0.3550612  -0.2710918
           13          14          15          16          17          18
    1  -0.2694921  -0.2280526  -0.2221256  -0.2047458  -0.1148900   0.2379478
           19          20          21          22
    1   0.2516688   0.2589650   0.2764613   0.2992457
 Analysis of SCF Wavefunction
 
 --------------------------------------------------------------
                    Orbital Energies (a.u.)
 --------------------------------------------------------------
 
 Alpha MOs
 -- Occupied --
-24.155 -24.149 -24.144 -14.051  -1.124  -0.991  -0.986  -0.586
 -0.422  -0.421  -0.360  -0.275  -0.273  -0.230  -0.225  -0.209
 -0.123   0.134
 -- Virtual --
  0.226   0.243   0.263   0.291   0.296   0.306   0.386   0.396
  0.433   0.433   0.444   0.507   0.508   0.527   0.528   0.580
  0.623   0.624   0.933   0.938   0.966   1.201   1.207   1.207
  1.389   1.390   1.441   1.460   1.462   1.525   1.568   1.572
  1.596   1.597   1.836   1.837   2.013   2.017   2.060   2.117
  2.160   2.164   2.243   2.274   2.275   2.372   2.373   2.381
  2.765   2.768   2.863   2.878   2.879   3.016   3.784   3.976
  3.978   3.992   4.173   4.174   4.195   4.560   4.643   4.644
  5.036   5.095   5.100   5.142   5.143   6.240   6.242   6.253
  6.316   6.349   6.351   6.670   6.671   6.713   6.714   6.717
  6.722   6.723   6.724   6.726   6.733   6.737   6.744   6.945
  6.945   6.976   7.098   7.235   7.237   7.396   7.401   7.404
  7.523   8.021   8.024   9.119   9.123   9.146   9.161   9.170
  9.173   9.449   9.475   9.478   9.639   9.701   9.704   9.870
 10.106  10.110  35.380  37.461  37.993  37.997  40.340  40.373
 40.463  40.576  40.603  50.058  50.072  50.080  50.107  50.110
 50.115  50.181  50.193  50.205  50.269  50.288  50.291  50.400
 50.430  50.436  55.569  55.571  55.575  55.640  55.643  55.646
 55.961  56.156  56.162  66.576  66.582  66.646
 
 Beta MOs
 -- Occupied --
-24.154 -24.147 -24.141 -14.044  -1.119  -0.988  -0.981  -0.579
 -0.419  -0.409  -0.355  -0.271  -0.269  -0.228  -0.222  -0.205
 -0.115
 -- Virtual --
  0.238   0.252   0.259   0.276   0.299   0.315   0.325   0.405
  0.409   0.439   0.440   0.450   0.516   0.519   0.535   0.539
  0.586   0.627   0.631   0.944   0.956   0.976   1.205   1.212
  1.216   1.394   1.402   1.447   1.465   1.467   1.532   1.577
  1.578   1.599   1.603   1.843   1.846   2.016   2.021   2.062
  2.119   2.162   2.166   2.247   2.278   2.281   2.373   2.377
  2.382   2.771   2.777   2.867   2.883   2.888   3.021   3.789
  3.983   3.988   3.999   4.178   4.187   4.207   4.570   4.649
  4.660   5.048   5.108   5.120   5.161   5.166   6.243   6.244
  6.256   6.320   6.351   6.356   6.673   6.675   6.715   6.716
  6.719   6.725   6.726   6.726   6.729   6.736   6.740   6.747
  6.948   6.950   6.978   7.101   7.240   7.241   7.401   7.404
  7.410   7.530   8.025   8.031   9.123   9.127   9.151   9.166
  9.174   9.178   9.454   9.477   9.484   9.642   9.706   9.709
  9.874  10.109  10.116  35.387  37.464  38.000  38.011  40.345
 40.387  40.477  40.580  40.617  50.061  50.075  50.083  50.109
 50.113  50.117  50.185  50.193  50.208  50.272  50.290  50.293
 50.401  50.432  50.439  55.570  55.573  55.577  55.642  55.646
 55.649  55.964  56.158  56.165  66.577  66.585  66.648
 --------------------------------------------------------------
 
          Ground-State Mulliken Net Atomic Charges

     Atom                 Charge (a.u.)    Spin (a.u.)
  --------------------------------------------------------
      1 N                    -1.598994       1.553490
      2 F                     0.129427      -0.129962
      3 F                     0.223778      -0.208910
      4 F                     0.245790      -0.214617
  --------------------------------------------------------
  Sum of atomic charges =    -1.000000
  Sum of spin   charges =     1.000000

 -----------------------------------------------------------------
                    Cartesian Multipole Moments
 -----------------------------------------------------------------
    Charge (ESU x 10^10)
                -4.8032
    Dipole Moment (Debye)
         X       0.0910      Y       0.3180      Z      -0.0019
       Tot       0.3308
    Quadrupole Moments (Debye-Ang)
        XX     -28.9563     XY       2.9615     YY     -36.7165
        XZ      -1.1198     YZ       0.7465     ZZ     -29.1483
    Octapole Moments (Debye-Ang^2)
       XXX      -0.2698    XXY       0.4350    XYY       2.2868
       YYY       1.2076    XXZ      10.4438    XYZ       0.5649
       YYZ       9.3228    XZZ       0.7880    YZZ       0.1885
       ZZZ      27.4170
    Hexadecapole Moments (Debye-Ang^3)
      XXXX    -117.6136   XXXY      12.4645   XXYY     -51.9015
      XYYY      14.1345   YYYY    -187.6532   XXXZ      -2.8018
      XXYZ       1.1640   XYYZ      -4.5605   YYYZ       3.5081
      XXZZ     -34.8942   XYZZ       5.1578   YYZZ     -48.7078
      XZZZ      -3.3812   YZZZ       1.5399   ZZZZ     -84.7835
 -----------------------------------------------------------------
 Total job time:  180.23s(wall), 177.73s(cpu) 
 Mon Jul  8 12:27:35 2013

        *************************************************************
        *                                                           *
        *  Thank you very much for using Q-Chem.  Have a nice day.  *
        *                                                           *
        *************************************************************


0 sent ACK to 0 
now end server 0 ... 
 
**********************************************************************
Job 2 of 3 
**********************************************************************
 
Process 0 of 1 is on cl022.stfx.acenet.ca - thread support 1
initial socket setup ...start
initial socket setup ...done 
now start server 0 ... 

cmd = /usr/bin/ssh clhead /usr/local/qchem/bin/get_hostid 715341309 > /scratch/tmp/6064754.1.short.q/qchem20868/lic.dat
                  Welcome to Q-Chem
     A Quantum Leap Into The Future Of Chemistry

 Y. Shao, L. Fusti-Molnar, Y. Jung, J. Kussmann, C. Ochsenfeld,
 S. T. Brown, A. T. B. Gilbert, L. V. Slipchenko,S. V. Levchenko,
 D. P. O'Neill, R. A. DiStasio Jr., R. C. Lochan, T. Wang,
 G. J. O. Beran, N. A. Besley, J. M. Herbert, C. Y. Lin,
 T. Van Voorhis, S. H. Chien, A. Sodt, R. P. Steele, 
 V. A. Rassolov, P. E. Maslen, P. P. Korambath, R. D. Adamson,
 B. Austin, J. Baker, E. F. C. Byrd, H. Dachsel, R. J. Doerksen,
 A. Dreuw, B. D. Dunietz, A. D. Dutoi, T. R. Furlani,
 S. R. Gwaltney, A. Heyden, S. Hirata, C.-P. Hsu, G. Kedziora,
 R. Z. Khaliullin, P. Klunzinger, A. M. Lee, M. S. Lee, W. Liang,
 I. Lotan, N. Nair, B. Peters, E. I. Proynov, P. A. Pieniazek, 
 Y. M. Rhee, J. Ritchie, E. Rosta, C. D. Sherrill, 
 A. C. Simmonett, J. E. Subotnik, H. L. Woodcock III,
 W. Zhang, A. T. Bell, A. K. Chakraborty, D. M. Chipman,
 F. J. Keil, A. Warshel, W. J. Hehre, H. F. Schaefer III,
 J. Kong, A. I. Krylov, P. M. W. Gill, M. Head-Gordon,
 Q-Chem, Version 3.1, Q-Chem, Inc., Pittsburgh, PA (2007).

 Additional authors for Version 3.1: 
 Z. Gan, Y. Zhao, N. E. Schultz, D. Truhlar, E. Epifanovsky and M. Oana.

 Additional authors for Version 3.2: 
 R. Baer, B. R. Brooks, D. Casanova, J.-D. Chai, C.-L. Cheng, 
 C. Cramer, D. Crittenden, A. Ghysels, G. Hawkins, E. G. Hohenstein, 
 C. Kelley, W. Kurlancheek, D. Liotard, E. Livshits, P. Manohar, 
 A. Marenich, D. Neuhauser, R. Olson, M. A. Rohrdanz, K. S. Thanthiriwatte, 
 A. J. W. Thom, V. Vanovschi, C. F. Williams, Q. Wu and Z.-Q. You. 


 Intel X86 Linux Version

 Q-chem begins on Mon Jul  8 12:27:38 2013  

 Parallel job on  1  processors
Processing $rem in /usr/local/qchem/config/preferences.

theFileMan(): MAXOPENFILES=974 MAX_SUB_FILE_NUM=16
Maximum size of a physical file is 2.0 GB, maximum size of a tmp-file is 32.0 GB


--------------------------------------------------------------
User input:
--------------------------------------------------------------

$molecule
0,1
N         -0.00002        0.00000       -0.02016
F          1.20897        0.00000       -0.60646
F         -0.60449       -1.04702       -0.60646
F         -0.60449        1.04702       -0.60646
$end

$comment
neutral
$end

$xc_functional
C PBE   1.00
X wPBE  1.00
$end


$rem
SYMMETRY_DECOMPOSITION	0
LRC_DFT                 true
exchange 		general
BASIS                   g3large
omega			100
mem_static              760
max_scf_cycles          200
scf_final_print         1
sym_ignore              true
$end

--------------------------------------------------------------
 Writing REM_CC_EA            4
 ----------------------------------------------------
       Standard Nuclear Orientation (Angstroms)
    I     Atom         X            Y            Z
 ----------------------------------------------------
    1      N      -0.000020     0.000000    -0.020160
    2      F       1.208970     0.000000    -0.606460
    3      F      -0.604490    -1.047020    -0.606460
    4      F      -0.604490     1.047020    -0.606460
 ----------------------------------------------------
 Nuclear Repulsion Energy =   135.8432244769 hartrees
 There are       17 alpha and       17 beta electrons
 Requested basis set is G3large
 There are 40 shells and 168 basis functions

Total QAlloc Memory Limit   2000 MB
Mega-Array Size       743 MB
MEM_STATIC part       760 MB

                       Distance Matrix (Angstroms)
             N (  1)   F (  2)   F (  3)
   F (  2)  1.343653
   F (  3)  1.343645  2.094012
   F (  4)  1.343645  2.094012  2.094040
 
 A cutoff of  1.0D-08 yielded    709 shell pairs
 There are  12942 function pairs ( 16926 Cartesian)
Evaluating contribution to one-electron hamiltonian from nuclear
 Smallest overlap matrix eigenvalue = 1.78E-03
 Multipole matrices computed through 2nd order

  Scale SEOQF with 1.000000e-01/1.000000e-01/1.000000e-01

 Standard Electronic Orientation quadrupole field applied
 Nucleus-field energy     =     0.0000000010 hartrees
 Guess from superposition of atomic densities
 Warning:  Energy on first SCF cycle will be non-variational
 Long-range K will be added via erf
 Coulomb attenuation parameter = 0.1 bohr**(-1)
 A restricted Kohn-Sham SCF calculation will be
 performed using Pulay DIIS extrapolation
 Exchange:  wPBE + LR-HF      Correlation:  PBE
 Using SG-1 standard quadrature grid
 SCF converges when DIIS error is below 1.0E-05
 Requested basis set is G3large
 There are 40 shells and 168 basis functions
 A cutoff of  1.0D-08 yielded    709 shell pairs
 There are  12942 function pairs ( 16926 Cartesian)
 ---------------------------------------
  Cycle       Energy         DIIS Error
 ---------------------------------------
    1    -354.4207213451      3.02E-02
    2    -353.7764837844      7.65E-03
    3    -353.4932375735      1.41E-02
    4    -353.9045248225      9.61E-04
    5    -353.9061112723      3.16E-04
    6    -353.9062695693      6.82E-05
    7    -353.9062831658      8.41E-06 Convergence criterion met
 ---------------------------------------
 One-Electron    Energy =  -761.0015263765
 Total Coulomb   Energy =   309.0978917855
 Alpha Exchange  Energy =    -0.9530163922
 Beta  Exchange  Energy =    -0.9530163922
 DFT   Exchange  Energy =   -34.7573678947
 DFT Correlation Energy =    -1.1824723738
 Nuclear Repu.   Energy =   135.8432244780
 Nuclear Attr.   Energy = -1114.5798351562
 Kinetic         Energy =   353.5783087797
 SCF time:  CPU 38.62 s  wall 39.09 s
 Final Alpha MO Eigenvalues
            1           2           3           4           5           6
    1 -24.3870924 -24.3870576 -24.3867304 -14.3186518  -1.3606585  -1.2213223
            7           8           9          10          11          12
    1  -1.2212231  -0.8168014  -0.6524260  -0.6523667  -0.5926491  -0.5009165
           13          14          15          16          17          18
    1  -0.5008828  -0.4541991  -0.4541151  -0.4360803  -0.3594582   0.0333626
           19          20          21          22
    1   0.0333951   0.0378575   0.0820178   0.1233857
 Analysis of SCF Wavefunction
 
 --------------------------------------------------------------
                    Orbital Energies (a.u.)
 --------------------------------------------------------------
 
 Alpha MOs
 -- Occupied --
-24.387 -24.387 -24.387 -14.319  -1.361  -1.221  -1.221  -0.817
 -0.652  -0.652  -0.593  -0.501  -0.501  -0.454  -0.454  -0.436
 -0.359
 -- Virtual --
  0.033   0.033   0.038   0.082   0.123   0.130   0.130   0.239
  0.239   0.263   0.263   0.272   0.340   0.348   0.369   0.369
  0.409   0.442   0.442   0.729   0.729   0.753   0.973   0.975
  0.975   1.192   1.192   1.241   1.255   1.255   1.317   1.358
  1.368   1.392   1.393   1.610   1.610   1.802   1.802   1.834
  1.889   1.938   1.938   2.028   2.046   2.047   2.145   2.145
  2.153   2.539   2.539   2.637   2.649   2.649   2.788   3.542
  3.738   3.738   3.750   3.935   3.935   3.956   4.324   4.409
  4.409   4.792   4.854   4.854   4.902   4.902   6.013   6.013
  6.025   6.089   6.123   6.123   6.441   6.441   6.487   6.487
  6.489   6.493   6.494   6.495   6.497   6.507   6.507   6.516
  6.715   6.715   6.746   6.866   7.003   7.004   7.163   7.170
  7.170   7.288   7.786   7.786   8.891   8.891   8.916   8.932
  8.941   8.941   9.219   9.246   9.246   9.409   9.472   9.472
  9.640   9.877   9.878  35.114  37.194  37.730  37.730  40.073
 40.109  40.199  40.309  40.339  49.828  49.835  49.841  49.869
 49.875  49.879  49.943  49.959  49.968  50.030  50.054  50.054
 50.167  50.193  50.196  55.335  55.335  55.336  55.406  55.407
 55.407  55.724  55.921  55.921  66.342  66.342  66.408
 --------------------------------------------------------------
 
          Ground-State Mulliken Net Atomic Charges

     Atom                 Charge (a.u.)
  ----------------------------------------
      1 N                    -0.093924
      2 F                     0.031235
      3 F                     0.031187
      4 F                     0.031502
  ----------------------------------------
  Sum of atomic charges =     0.000000

 -----------------------------------------------------------------
                    Cartesian Multipole Moments
 -----------------------------------------------------------------
    Charge (ESU x 10^10)
                 0.0000
    Dipole Moment (Debye)
         X      -0.0006      Y       0.0017      Z       0.0423
       Tot       0.0423
    Quadrupole Moments (Debye-Ang)
        XX     -20.4057     XY      -0.0008     YY     -20.4041
        XZ       0.0003     YZ      -0.0009     ZZ     -20.6576
    Octapole Moments (Debye-Ang^2)
       XXX      -0.1815    XXY       0.0003    XYY       0.1837
       YYY       0.0008    XXZ       9.1219    XYZ       0.0006
       YYZ       9.1208    XZZ       0.0007    YZZ       0.0003
       ZZZ      26.8295
    Hexadecapole Moments (Debye-Ang^3)
      XXXX     -76.7041   XXXY       0.0009   XXYY     -25.5674
      XYYY      -0.0003   YYYY     -76.7067   XXXZ      -0.5390
      XXYZ      -0.0003   XYYZ       0.5380   YYYZ      -0.0008
      XXZZ     -20.6017   XYZZ      -0.0001   YYZZ     -20.6018
      XZZZ      -0.0015   YZZZ       0.0004   ZZZZ     -47.8750
 -----------------------------------------------------------------
 Total job time:  39.30s(wall), 38.82s(cpu) 
 Mon Jul  8 12:28:17 2013

        *************************************************************
        *                                                           *
        *  Thank you very much for using Q-Chem.  Have a nice day.  *
        *                                                           *
        *************************************************************


0 sent ACK to 0 
now end server 0 ... 
 
**********************************************************************
Job 3 of 3 
**********************************************************************
 
Process 0 of 1 is on cl022.stfx.acenet.ca - thread support 1
initial socket setup ...start
initial socket setup ...done 
now start server 0 ... 

cmd = /usr/bin/ssh clhead /usr/local/qchem/bin/get_hostid 1910894772 > /scratch/tmp/6064754.1.short.q/qchem20868/lic.dat
                  Welcome to Q-Chem
     A Quantum Leap Into The Future Of Chemistry

 Y. Shao, L. Fusti-Molnar, Y. Jung, J. Kussmann, C. Ochsenfeld,
 S. T. Brown, A. T. B. Gilbert, L. V. Slipchenko,S. V. Levchenko,
 D. P. O'Neill, R. A. DiStasio Jr., R. C. Lochan, T. Wang,
 G. J. O. Beran, N. A. Besley, J. M. Herbert, C. Y. Lin,
 T. Van Voorhis, S. H. Chien, A. Sodt, R. P. Steele, 
 V. A. Rassolov, P. E. Maslen, P. P. Korambath, R. D. Adamson,
 B. Austin, J. Baker, E. F. C. Byrd, H. Dachsel, R. J. Doerksen,
 A. Dreuw, B. D. Dunietz, A. D. Dutoi, T. R. Furlani,
 S. R. Gwaltney, A. Heyden, S. Hirata, C.-P. Hsu, G. Kedziora,
 R. Z. Khaliullin, P. Klunzinger, A. M. Lee, M. S. Lee, W. Liang,
 I. Lotan, N. Nair, B. Peters, E. I. Proynov, P. A. Pieniazek, 
 Y. M. Rhee, J. Ritchie, E. Rosta, C. D. Sherrill, 
 A. C. Simmonett, J. E. Subotnik, H. L. Woodcock III,
 W. Zhang, A. T. Bell, A. K. Chakraborty, D. M. Chipman,
 F. J. Keil, A. Warshel, W. J. Hehre, H. F. Schaefer III,
 J. Kong, A. I. Krylov, P. M. W. Gill, M. Head-Gordon,
 Q-Chem, Version 3.1, Q-Chem, Inc., Pittsburgh, PA (2007).

 Additional authors for Version 3.1: 
 Z. Gan, Y. Zhao, N. E. Schultz, D. Truhlar, E. Epifanovsky and M. Oana.

 Additional authors for Version 3.2: 
 R. Baer, B. R. Brooks, D. Casanova, J.-D. Chai, C.-L. Cheng, 
 C. Cramer, D. Crittenden, A. Ghysels, G. Hawkins, E. G. Hohenstein, 
 C. Kelley, W. Kurlancheek, D. Liotard, E. Livshits, P. Manohar, 
 A. Marenich, D. Neuhauser, R. Olson, M. A. Rohrdanz, K. S. Thanthiriwatte, 
 A. J. W. Thom, V. Vanovschi, C. F. Williams, Q. Wu and Z.-Q. You. 


 Intel X86 Linux Version

 Q-chem begins on Mon Jul  8 12:28:20 2013  

 Parallel job on  1  processors
Processing $rem in /usr/local/qchem/config/preferences.

theFileMan(): MAXOPENFILES=974 MAX_SUB_FILE_NUM=16
Maximum size of a physical file is 2.0 GB, maximum size of a tmp-file is 32.0 GB


--------------------------------------------------------------
User input:
--------------------------------------------------------------

$molecule
1,2
N         -0.00002        0.00000       -0.02016
F          1.20897        0.00000       -0.60646
F         -0.60449       -1.04702       -0.60646
F         -0.60449        1.04702       -0.60646
$end

$comment
positive
$end

$xc_functional
C PBE   1.00
X wPBE  1.00
$end

$rem
SYMMETRY_DECOMPOSITION	0
LRC_DFT                 true
exchange 		general
BASIS                   g3large
omega			100
mem_static              760
max_scf_cycles          200
scf_final_print         1
sym_ignore              true
$end

--------------------------------------------------------------
 Writing REM_CC_EA            4
 ----------------------------------------------------
       Standard Nuclear Orientation (Angstroms)
    I     Atom         X            Y            Z
 ----------------------------------------------------
    1      N      -0.000020     0.000000    -0.020160
    2      F       1.208970     0.000000    -0.606460
    3      F      -0.604490    -1.047020    -0.606460
    4      F      -0.604490     1.047020    -0.606460
 ----------------------------------------------------
 Nuclear Repulsion Energy =   135.8432244769 hartrees
 There are       17 alpha and       16 beta electrons
 Requested basis set is G3large
 There are 40 shells and 168 basis functions

Total QAlloc Memory Limit   2000 MB
Mega-Array Size       743 MB
MEM_STATIC part       760 MB

                       Distance Matrix (Angstroms)
             N (  1)   F (  2)   F (  3)
   F (  2)  1.343653
   F (  3)  1.343645  2.094012
   F (  4)  1.343645  2.094012  2.094040
 
 A cutoff of  1.0D-08 yielded    709 shell pairs
 There are  12942 function pairs ( 16926 Cartesian)
Evaluating contribution to one-electron hamiltonian from nuclear
 Smallest overlap matrix eigenvalue = 1.78E-03
 Multipole matrices computed through 2nd order

  Scale SEOQF with 1.000000e-01/1.000000e-01/1.000000e-01

 Standard Electronic Orientation quadrupole field applied
 Nucleus-field energy     =     0.0000000010 hartrees
 Guess from superposition of atomic densities
 Warning:  Energy on first SCF cycle will be non-variational
 Long-range K will be added via erf
 Coulomb attenuation parameter = 0.1 bohr**(-1)
 An unrestricted Kohn-Sham SCF calculation will be
 performed using Pulay DIIS extrapolation
 Exchange:  wPBE + LR-HF      Correlation:  PBE
 Using SG-1 standard quadrature grid
 SCF converges when DIIS error is below 1.0E-05
 Requested basis set is G3large
 There are 40 shells and 168 basis functions
 A cutoff of  1.0D-08 yielded    709 shell pairs
 There are  12942 function pairs ( 16926 Cartesian)
 Warning!  Inaccurate integrated density:
   Number of electrons =    33
   Numerical integral  =    34.000286405006
   Relative error      =     3.0311709243 %
 ---------------------------------------
  Cycle       Energy         DIIS Error
 ---------------------------------------
    1    -354.4207213451      3.02E-02
    2    -353.1590991594      9.67E-03
    3    -352.3753057465      2.17E-02
    4    -353.4264561170      1.97E-03
    5    -353.4330014363      7.44E-04
    6    -353.4339465683      2.42E-04
    7    -353.4340778154      5.69E-05
    8    -353.4340880411      6.96E-06 Convergence criterion met
 ---------------------------------------
 One-Electron    Energy =  -749.2769608723
 Total Coulomb   Energy =   297.3841177966
 Alpha Exchange  Energy =    -0.9533952028
 Beta  Exchange  Energy =    -0.8966709901
 DFT   Exchange  Energy =   -34.3910130585
 DFT Correlation Energy =    -1.1433901920
 Nuclear Repu.   Energy =   135.8432244780
 Nuclear Attr.   Energy = -1102.0818720836
 Kinetic         Energy =   352.8049112114
 <S^2> = 0.7524
 SCF time:  CPU 55.07 s  wall 55.43 s
 Final Alpha MO Eigenvalues
            1           2           3           4           5           6
    1 -24.7483666 -24.7483386 -24.7483072 -14.7373552  -1.7101305  -1.5661666
            7           8           9          10          11          12
    1  -1.5661459  -1.1668243  -0.9970605  -0.9970473  -0.9587286  -0.8337073
           13          14          15          16          17          18
    1  -0.8336864  -0.7864981  -0.7864776  -0.7646063  -0.7484044  -0.3296184
           19          20          21          22
    1  -0.3296060  -0.3021427  -0.1311541  -0.0813270
 Final Beta MO Eigenvalues
            1           2           3           4           5           6
    1 -24.7426007 -24.7425750 -24.7425389 -14.7259382  -1.6992812  -1.5538681
            7           8           9          10          11          12
    1  -1.5538454  -1.1471902  -0.9846169  -0.9846103  -0.9239299  -0.8214009
           13          14          15          16          17          18
    1  -0.8213904  -0.7753406  -0.7753296  -0.7590626  -0.5848811  -0.3076501
           19          20          21
    1  -0.3076400  -0.2893063  -0.1259205
 Analysis of SCF Wavefunction
 
 --------------------------------------------------------------
                    Orbital Energies (a.u.)
 --------------------------------------------------------------
 
 Alpha MOs
 -- Occupied --
-24.748 -24.748 -24.748 -14.737  -1.710  -1.566  -1.566  -1.167
 -0.997  -0.997  -0.959  -0.834  -0.834  -0.786  -0.786  -0.765
 -0.748
 -- Virtual --
 -0.330  -0.330  -0.302  -0.131  -0.081  -0.072  -0.072   0.037
  0.037   0.051   0.051   0.056   0.118   0.151   0.173   0.173
  0.201   0.212   0.212   0.442   0.445   0.445   0.630   0.637
  0.637   0.923   0.923   0.965   0.977   0.977   1.019   1.077
  1.094   1.112   1.112   1.282   1.282   1.508   1.508   1.511
  1.564   1.622   1.622   1.712   1.712   1.727   1.820   1.820
  1.837   2.201   2.201   2.308   2.314   2.314   2.457   3.156
  3.374   3.381   3.381   3.576   3.576   3.604   3.968   4.059
  4.059   4.385   4.456   4.456   4.519   4.519   5.676   5.676
  5.682   5.760   5.782   5.782   6.101   6.101   6.154   6.155
  6.156   6.156   6.162   6.162   6.168   6.172   6.172   6.180
  6.375   6.375   6.413   6.520   6.663   6.663   6.819   6.821
  6.822   6.933   7.434   7.434   8.544   8.544   8.563   8.583
  8.594   8.594   8.878   8.892   8.892   9.055   9.128   9.129
  9.297   9.531   9.531  34.699  36.766  37.319  37.319  39.648
 39.699  39.786  39.890  39.923  49.464  49.472  49.479  49.509
 49.514  49.518  49.582  49.594  49.606  49.669  49.690  49.695
 49.806  49.831  49.833  54.973  54.976  54.976  55.044  55.044
 55.050  55.361  55.561  55.561  65.982  65.982  66.049
 
 Beta MOs
 -- Occupied --
-24.743 -24.743 -24.743 -14.726  -1.699  -1.554  -1.554  -1.147
 -0.985  -0.985  -0.924  -0.821  -0.821  -0.775  -0.775  -0.759
 -- Virtual --
 -0.585  -0.308  -0.308  -0.289  -0.126  -0.074  -0.071  -0.070
  0.040   0.040   0.052   0.052   0.060   0.121   0.152   0.175
  0.175   0.204   0.214   0.214   0.452   0.452   0.473   0.645
  0.645   0.654   0.929   0.929   0.970   0.983   0.983   1.029
  1.088   1.097   1.121   1.121   1.294   1.294   1.515   1.515
  1.523   1.573   1.629   1.629   1.730   1.730   1.736   1.829
  1.829   1.838   2.219   2.219   2.324   2.326   2.326   2.469
  3.200   3.397   3.397   3.401   3.595   3.596   3.609   3.989
  4.070   4.070   4.441   4.497   4.497   4.548   4.548   5.686
  5.686   5.700   5.764   5.800   5.800   6.115   6.116   6.164
  6.164   6.168   6.168   6.173   6.173   6.173   6.185   6.185
  6.194   6.388   6.388   6.421   6.537   6.673   6.673   6.830
  6.839   6.839   6.951   7.447   7.447   8.560   8.560   8.586
  8.602   8.611   8.611   8.885   8.916   8.916   9.080   9.141
  9.141   9.307   9.547   9.547  34.711  36.795  37.327  37.327
 39.673  39.704  39.795  39.907  39.935  49.479  49.486  49.492
 49.520  49.526  49.530  49.591  49.609  49.617  49.679  49.702
 49.704  49.816  49.841  49.845  54.982  54.982  54.985  55.054
 55.056  55.056  55.371  55.567  55.567  65.988  65.988  66.055
 --------------------------------------------------------------
 
          Ground-State Mulliken Net Atomic Charges

     Atom                 Charge (a.u.)    Spin (a.u.)
  --------------------------------------------------------
      1 N                     0.224319       0.459021
      2 F                     0.258651       0.180388
      3 F                     0.258506       0.180271
      4 F                     0.258524       0.180320
  --------------------------------------------------------
  Sum of atomic charges =     1.000000
  Sum of spin   charges =     1.000000

 -----------------------------------------------------------------
                    Cartesian Multipole Moments
 -----------------------------------------------------------------
    Charge (ESU x 10^10)
                 4.8032
    Dipole Moment (Debye)
         X       0.0007      Y       0.0001      Z      -1.5384
       Tot       1.5384
    Quadrupole Moments (Debye-Ang)
        XX     -15.5244     XY       0.0000     YY     -15.5246
        XZ      -0.0004     YZ       0.0000     ZZ     -16.1469
    Octapole Moments (Debye-Ang^2)
       XXX       1.8657    XXY       0.0000    XYY      -1.8631
       YYY       0.0001    XXZ       6.1962    XYZ       0.0000
       YYZ       6.1963    XZZ       0.0007    YZZ       0.0001
       ZZZ      22.8129
    Hexadecapole Moments (Debye-Ang^3)
      XXXX     -63.5928   XXXY       0.0000   XXYY     -21.1977
      XYYY       0.0001   YYYY     -63.5959   XXXZ      -1.9047
      XXYZ       0.0000   XYYZ       1.9037   YYYZ       0.0000
      XXZZ     -15.9503   XYZZ      -0.0001   YYZZ     -15.9511
      XZZZ      -0.0010   YZZZ      -0.0002   ZZZZ     -37.8108
 -----------------------------------------------------------------
 Total job time:  55.65s(wall), 55.28s(cpu) 
 Mon Jul  8 12:29:15 2013

        *************************************************************
        *                                                           *
        *  Thank you very much for using Q-Chem.  Have a nice day.  *
        *                                                           *
        *************************************************************


0 sent ACK to 0 
now end server 0 ... 
