Process 0 of 1 is on cl243.stfx.acenet.ca - thread support 1
initial socket setup ...start
initial socket setup ...done 
now start server 0 ... 

cmd = /usr/bin/ssh clhead /usr/local/qchem/bin/get_hostid 1147339718 > /scratch/tmp/6027818.1.long.q/qchem2133/lic.dat
                  Welcome to Q-Chem
     A Quantum Leap Into The Future Of Chemistry

 Y. Shao, L. Fusti-Molnar, Y. Jung, J. Kussmann, C. Ochsenfeld,
 S. T. Brown, A. T. B. Gilbert, L. V. Slipchenko,S. V. Levchenko,
 D. P. O'Neill, R. A. DiStasio Jr., R. C. Lochan, T. Wang,
 G. J. O. Beran, N. A. Besley, J. M. Herbert, C. Y. Lin,
 T. Van Voorhis, S. H. Chien, A. Sodt, R. P. Steele, 
 V. A. Rassolov, P. E. Maslen, P. P. Korambath, R. D. Adamson,
 B. Austin, J. Baker, E. F. C. Byrd, H. Dachsel, R. J. Doerksen,
 A. Dreuw, B. D. Dunietz, A. D. Dutoi, T. R. Furlani,
 S. R. Gwaltney, A. Heyden, S. Hirata, C.-P. Hsu, G. Kedziora,
 R. Z. Khaliullin, P. Klunzinger, A. M. Lee, M. S. Lee, W. Liang,
 I. Lotan, N. Nair, B. Peters, E. I. Proynov, P. A. Pieniazek, 
 Y. M. Rhee, J. Ritchie, E. Rosta, C. D. Sherrill, 
 A. C. Simmonett, J. E. Subotnik, H. L. Woodcock III,
 W. Zhang, A. T. Bell, A. K. Chakraborty, D. M. Chipman,
 F. J. Keil, A. Warshel, W. J. Hehre, H. F. Schaefer III,
 J. Kong, A. I. Krylov, P. M. W. Gill, M. Head-Gordon,
 Q-Chem, Version 3.1, Q-Chem, Inc., Pittsburgh, PA (2007).

 Additional authors for Version 3.1: 
 Z. Gan, Y. Zhao, N. E. Schultz, D. Truhlar, E. Epifanovsky and M. Oana.

 Additional authors for Version 3.2: 
 R. Baer, B. R. Brooks, D. Casanova, J.-D. Chai, C.-L. Cheng, 
 C. Cramer, D. Crittenden, A. Ghysels, G. Hawkins, E. G. Hohenstein, 
 C. Kelley, W. Kurlancheek, D. Liotard, E. Livshits, P. Manohar, 
 A. Marenich, D. Neuhauser, R. Olson, M. A. Rohrdanz, K. S. Thanthiriwatte, 
 A. J. W. Thom, V. Vanovschi, C. F. Williams, Q. Wu and Z.-Q. You. 


 Intel X86 Linux Version

 Q-chem begins on Mon Jun  3 17:05:05 2013  

 Parallel job on  1  processors
Processing $rem in /usr/local/qchem/config/preferences.

theFileMan(): MAXOPENFILES=974 MAX_SUB_FILE_NUM=16
Maximum size of a physical file is 2.0 GB, maximum size of a tmp-file is 32.0 GB


--------------------------------------------------------------
User input:
--------------------------------------------------------------

$molecule
-1,1
C
S,1,R
H,1,ch1,2,hcs
X,1,1.,2,alpha,3,180.,0
H,1,ch,4,hch2,3,90.,0
H,1,ch,4,hch2,3,-90.,0

R=1.81256567
ch=1.09351119
hcs=106.82996657
ch1=1.09887196
hch2=55.32746965
alpha=130.50070297

$end

$comment
negative
$end

$xc_functional
C PBE   1.00
X wPBE  1.00
$end

$rem
SYMMETRY_DECOMPOSITION	0
exchange 		general
LRC_DFT                 true
BASIS                   g3large
omega			400
mem_static              760
max_scf_cycles          200
scf_final_print         1
sym_ignore              true
$end

--------------------------------------------------------------
 Writing REM_CC_EA            5
 ----------------------------------------------------
       Standard Nuclear Orientation (Angstroms)
    I     Atom         X            Y            Z
 ----------------------------------------------------
    1      C       0.000000     0.000000     0.000000
    2      S       0.000000     0.000000     1.812566
    3      H       1.051805     0.000000    -0.318159
    4      H      -0.473030     0.899322    -0.404016
    5      H      -0.473030    -0.899322    -0.404016
 ----------------------------------------------------
 Nuclear Repulsion Energy =    48.1227557371 hartrees
 There are       13 alpha and       13 beta electrons
 Requested basis set is G3large
 There are 47 shells and 138 basis functions

Total QAlloc Memory Limit   2000 MB
Mega-Array Size       743 MB
MEM_STATIC part       760 MB

                       Distance Matrix (Angstroms)
             C (  1)   S (  2)   H (  3)   H (  4)
   S (  2)  1.812566
   H (  3)  1.098872  2.376191
   H (  4)  1.093511  2.438395  1.772364
   H (  5)  1.093511  2.438395  1.772364  1.798644
 
 A cutoff of  1.0D-08 yielded   1081 shell pairs
 There are   9436 function pairs ( 12275 Cartesian)
Evaluating contribution to one-electron hamiltonian from nuclear
 Smallest overlap matrix eigenvalue = 4.38E-04
 Multipole matrices computed through 2nd order

  Scale SEOQF with 1.000000e-01/1.000000e-01/1.000000e-01

 Standard Electronic Orientation quadrupole field applied
 Nucleus-field energy     =    -0.0000000055 hartrees
 Guess from superposition of atomic densities
 Warning:  Energy on first SCF cycle will be non-variational
 Long-range K will be added via erf
 Coulomb attenuation parameter = 0.4 bohr**(-1)
 A restricted Kohn-Sham SCF calculation will be
 performed using Pulay DIIS extrapolation
 Exchange:  wPBE + LR-HF      Correlation:  PBE
 Using SG-1 standard quadrature grid
 SCF converges when DIIS error is below 1.0E-05
 Requested basis set is G3large
 There are 47 shells and 138 basis functions
 A cutoff of  1.0D-08 yielded   1081 shell pairs
 There are   9436 function pairs ( 12275 Cartesian)
 Warning!  Inaccurate integrated density:
   Number of electrons =    26
   Numerical integral  =    25.000026025866
   Relative error      =    -3.8460537467 %
 ---------------------------------------
  Cycle       Energy         DIIS Error
 ---------------------------------------
    1    -438.0401058971      2.83E-02
    2    -437.9131178415      4.46E-03
    3    -437.9680942093      3.14E-03
    4    -437.9861873489      3.52E-04
    5    -437.9865357434      9.34E-05
    6    -437.9865963611      2.58E-05
    7    -437.9866007239      8.38E-06 Convergence criterion met
 ---------------------------------------
 One-Electron    Energy =  -705.2471090688
 Total Coulomb   Energy =   251.4075648462
 Alpha Exchange  Energy =    -2.6076415883
 Beta  Exchange  Energy =    -2.6076415883
 DFT   Exchange  Energy =   -26.1331155059
 DFT Correlation Energy =    -0.9214135505
 Nuclear Repu.   Energy =    48.1227557316
 Nuclear Attr.   Energy = -1142.4673889018
 Kinetic         Energy =   437.2202798330
 SCF time:  CPU 32.99 s  wall 33.30 s
 Final Alpha MO Eigenvalues
            1           2           3           4           5           6
    1 -87.9615560  -9.9168466  -7.5975456  -5.6150840  -5.6060729  -5.6060136
            7           8           9          10          11          12
    1  -0.6785517  -0.5024066  -0.3446837  -0.3381265  -0.2219388  -0.0829343
           13          14          15          16          17          18
    1  -0.0812548   0.1635623   0.1893854   0.1921786   0.2351921   0.2739671
 Analysis of SCF Wavefunction
 
 --------------------------------------------------------------
                    Orbital Energies (a.u.)
 --------------------------------------------------------------
 
 Alpha MOs
 -- Occupied --
-87.962  -9.917  -7.598  -5.615  -5.606  -5.606  -0.679  -0.502
 -0.345  -0.338  -0.222  -0.083  -0.081
 -- Virtual --
  0.164   0.189   0.192   0.235   0.274   0.281   0.281   0.306
  0.313   0.324   0.344   0.419   0.420   0.429   0.510   0.581
  0.585   0.615   0.616   0.642   0.672   0.701   0.718   0.733
  0.735   0.837   0.838   0.892   0.910   1.020   1.020   1.039
  1.136   1.207   1.218   1.224   1.266   1.270   1.276   1.283
  1.387   1.405   1.408   1.412   1.420   1.486   1.565   1.565
  1.606   1.614   1.615   1.715   1.727   1.745   1.774   1.782
  1.884   2.229   2.238   2.401   2.759   2.761   2.863   3.234
  3.259   3.321   3.327   3.475   3.489   3.495   3.553   3.576
  3.821   3.843   3.884   3.897   3.908   3.927   3.935   3.996
  4.001   4.125   4.177   4.188   4.302   4.449   4.451   4.630
  4.639   4.640   4.720   4.955   4.955   5.141   5.159   5.323
  5.666   5.911   5.924   8.635  17.418  17.421  17.664  23.757
 23.844  23.894  23.895  23.936  24.306  28.051  28.246  28.270
 31.212  31.213  31.215  31.215  31.221  31.221  31.238  41.140
 41.165  41.380  41.406  41.457 189.177
 --------------------------------------------------------------
 
          Ground-State Mulliken Net Atomic Charges

     Atom                 Charge (a.u.)
  ----------------------------------------
      1 C                    -0.046572
      2 S                    -1.096332
      3 H                     0.056027
      4 H                     0.043387
      5 H                     0.043489
  ----------------------------------------
  Sum of atomic charges =    -1.000000

 -----------------------------------------------------------------
                    Cartesian Multipole Moments
 -----------------------------------------------------------------
    Charge (ESU x 10^10)
                -4.8032
    Dipole Moment (Debye)
         X       0.0439      Y       0.0007      Z      -8.8462
       Tot       8.8463
    Quadrupole Moments (Debye-Ang)
        XX     -27.2817     XY      -0.0004     YY     -27.1700
        XZ       0.1451     YZ       0.0017     ZZ     -42.9012
    Octapole Moments (Debye-Ang^2)
       XXX       0.5161    XXY       0.0016    XYY      -0.6902
       YYY       0.0047    XXZ     -35.6651    XYZ      -0.0020
       YYZ     -35.7109    XZZ       0.0999    YZZ       0.0005
       ZZZ    -119.0174
    Hexadecapole Moments (Debye-Ang^3)
      XXXX     -58.9151   XXXY      -0.0024   XXYY     -19.7367
      XYYY      -0.0024   YYYY     -58.9168   XXXZ       0.3888
      XXYZ       0.0039   XYYZ      -0.0735   YYYZ       0.0118
      XXZZ     -86.5147   XYZZ      -0.0041   YYZZ     -86.1967
      XZZZ       0.7881   YZZZ       0.0003   ZZZZ    -429.3846
 -----------------------------------------------------------------
 Total job time:  33.46s(wall), 33.14s(cpu) 
 Mon Jun  3 17:05:38 2013

        *************************************************************
        *                                                           *
        *  Thank you very much for using Q-Chem.  Have a nice day.  *
        *                                                           *
        *************************************************************


0 sent ACK to 0 
now end server 0 ... 
 
**********************************************************************
Job 2 of 3 
**********************************************************************
 
Process 0 of 1 is on cl243.stfx.acenet.ca - thread support 1
initial socket setup ...start
initial socket setup ...done 
now start server 0 ... 

cmd = /usr/bin/ssh clhead /usr/local/qchem/bin/get_hostid 628513932 > /scratch/tmp/6027818.1.long.q/qchem2133/lic.dat
                  Welcome to Q-Chem
     A Quantum Leap Into The Future Of Chemistry

 Y. Shao, L. Fusti-Molnar, Y. Jung, J. Kussmann, C. Ochsenfeld,
 S. T. Brown, A. T. B. Gilbert, L. V. Slipchenko,S. V. Levchenko,
 D. P. O'Neill, R. A. DiStasio Jr., R. C. Lochan, T. Wang,
 G. J. O. Beran, N. A. Besley, J. M. Herbert, C. Y. Lin,
 T. Van Voorhis, S. H. Chien, A. Sodt, R. P. Steele, 
 V. A. Rassolov, P. E. Maslen, P. P. Korambath, R. D. Adamson,
 B. Austin, J. Baker, E. F. C. Byrd, H. Dachsel, R. J. Doerksen,
 A. Dreuw, B. D. Dunietz, A. D. Dutoi, T. R. Furlani,
 S. R. Gwaltney, A. Heyden, S. Hirata, C.-P. Hsu, G. Kedziora,
 R. Z. Khaliullin, P. Klunzinger, A. M. Lee, M. S. Lee, W. Liang,
 I. Lotan, N. Nair, B. Peters, E. I. Proynov, P. A. Pieniazek, 
 Y. M. Rhee, J. Ritchie, E. Rosta, C. D. Sherrill, 
 A. C. Simmonett, J. E. Subotnik, H. L. Woodcock III,
 W. Zhang, A. T. Bell, A. K. Chakraborty, D. M. Chipman,
 F. J. Keil, A. Warshel, W. J. Hehre, H. F. Schaefer III,
 J. Kong, A. I. Krylov, P. M. W. Gill, M. Head-Gordon,
 Q-Chem, Version 3.1, Q-Chem, Inc., Pittsburgh, PA (2007).

 Additional authors for Version 3.1: 
 Z. Gan, Y. Zhao, N. E. Schultz, D. Truhlar, E. Epifanovsky and M. Oana.

 Additional authors for Version 3.2: 
 R. Baer, B. R. Brooks, D. Casanova, J.-D. Chai, C.-L. Cheng, 
 C. Cramer, D. Crittenden, A. Ghysels, G. Hawkins, E. G. Hohenstein, 
 C. Kelley, W. Kurlancheek, D. Liotard, E. Livshits, P. Manohar, 
 A. Marenich, D. Neuhauser, R. Olson, M. A. Rohrdanz, K. S. Thanthiriwatte, 
 A. J. W. Thom, V. Vanovschi, C. F. Williams, Q. Wu and Z.-Q. You. 


 Intel X86 Linux Version

 Q-chem begins on Mon Jun  3 17:05:41 2013  

 Parallel job on  1  processors
Processing $rem in /usr/local/qchem/config/preferences.

theFileMan(): MAXOPENFILES=974 MAX_SUB_FILE_NUM=16
Maximum size of a physical file is 2.0 GB, maximum size of a tmp-file is 32.0 GB


--------------------------------------------------------------
User input:
--------------------------------------------------------------

$molecule
0,2
C
S,1,R
H,1,ch1,2,hcs
X,1,1.,2,alpha,3,180.,0
H,1,ch,4,hch2,3,90.,0
H,1,ch,4,hch2,3,-90.,0

R=1.81256567
ch=1.09351119
hcs=106.82996657
ch1=1.09887196
hch2=55.32746965
alpha=130.50070297

$end

$comment
neutral
$end

$xc_functional
C PBE   1.00
X wPBE  1.00
$end


$rem
SYMMETRY_DECOMPOSITION	0
LRC_DFT                 true
exchange 		general
BASIS                   g3large
omega			400
mem_static              760
max_scf_cycles          200
scf_final_print         1
sym_ignore              true
$end

--------------------------------------------------------------
 Writing REM_CC_EA            5
 ----------------------------------------------------
       Standard Nuclear Orientation (Angstroms)
    I     Atom         X            Y            Z
 ----------------------------------------------------
    1      C       0.000000     0.000000     0.000000
    2      S       0.000000     0.000000     1.812566
    3      H       1.051805     0.000000    -0.318159
    4      H      -0.473030     0.899322    -0.404016
    5      H      -0.473030    -0.899322    -0.404016
 ----------------------------------------------------
 Nuclear Repulsion Energy =    48.1227557371 hartrees
 There are       13 alpha and       12 beta electrons
 Requested basis set is G3large
 There are 47 shells and 138 basis functions

Total QAlloc Memory Limit   2000 MB
Mega-Array Size       743 MB
MEM_STATIC part       760 MB

                       Distance Matrix (Angstroms)
             C (  1)   S (  2)   H (  3)   H (  4)
   S (  2)  1.812566
   H (  3)  1.098872  2.376191
   H (  4)  1.093511  2.438395  1.772364
   H (  5)  1.093511  2.438395  1.772364  1.798644
 
 A cutoff of  1.0D-08 yielded   1081 shell pairs
 There are   9436 function pairs ( 12275 Cartesian)
Evaluating contribution to one-electron hamiltonian from nuclear
 Smallest overlap matrix eigenvalue = 4.38E-04
 Multipole matrices computed through 2nd order

  Scale SEOQF with 1.000000e-01/1.000000e-01/1.000000e-01

 Standard Electronic Orientation quadrupole field applied
 Nucleus-field energy     =    -0.0000000055 hartrees
 Guess from superposition of atomic densities
 Warning:  Energy on first SCF cycle will be non-variational
 Long-range K will be added via erf
 Coulomb attenuation parameter = 0.4 bohr**(-1)
 An unrestricted Kohn-Sham SCF calculation will be
 performed using Pulay DIIS extrapolation
 Exchange:  wPBE + LR-HF      Correlation:  PBE
 Using SG-1 standard quadrature grid
 SCF converges when DIIS error is below 1.0E-05
 Requested basis set is G3large
 There are 47 shells and 138 basis functions
 A cutoff of  1.0D-08 yielded   1081 shell pairs
 There are   9436 function pairs ( 12275 Cartesian)
 ---------------------------------------
  Cycle       Energy         DIIS Error
 ---------------------------------------
    1    -438.0401058971      2.83E-02
    2    -437.9070842565      1.99E-03
    3    -437.9211393103      6.04E-04
    4    -437.9223522137      1.81E-04
    5    -437.9225887201      6.85E-05
    6    -437.9226275446      3.04E-05
    7    -437.9226401781      1.07E-05
    8    -437.9226458242      8.70E-06 Convergence criterion met
 ---------------------------------------
 One-Electron    Energy =  -698.3979501029
 Total Coulomb   Energy =   244.3882853678
 Alpha Exchange  Energy =    -2.6333600893
 Beta  Exchange  Energy =    -2.4423987012
 DFT   Exchange  Energy =   -26.0732129660
 DFT Correlation Energy =    -0.8867650642
 Nuclear Repu.   Energy =    48.1227557316
 Nuclear Attr.   Energy = -1135.5006975977
 Kinetic         Energy =   437.1027474948
 <S^2> = 0.7563
 SCF time:  CPU 44.47 s  wall 44.80 s
 Final Alpha MO Eigenvalues
            1           2           3           4           5           6
    1 -88.2773379 -10.1387166  -7.9116596  -5.9333601  -5.9246292  -5.9148184
            7           8           9          10          11          12
    1  -0.9342100  -0.7754338  -0.5723447  -0.5607249  -0.4871882  -0.4084831
           13          14          15          16          17          18
    1  -0.3608941   0.0374085   0.0675422   0.0700707   0.0789297   0.1247640
 Final Beta MO Eigenvalues
            1           2           3           4           5           6
    1 -88.2726434 -10.1389576  -7.9071913  -5.9221624  -5.9204808  -5.9114883
            7           8           9          10          11          12
    1  -0.9154001  -0.7413988  -0.5609557  -0.5532066  -0.4765597  -0.3482593
           13          14          15          16          17
    1  -0.0467091   0.0380803   0.0683453   0.0702885   0.0818609
 Analysis of SCF Wavefunction
 
 --------------------------------------------------------------
                    Orbital Energies (a.u.)
 --------------------------------------------------------------
 
 Alpha MOs
 -- Occupied --
-88.277 -10.139  -7.912  -5.933  -5.925  -5.915  -0.934  -0.775
 -0.572  -0.561  -0.487  -0.408  -0.361
 -- Virtual --
  0.037   0.068   0.070   0.079   0.125   0.125   0.131   0.149
  0.151   0.156   0.186   0.207   0.237   0.242   0.323   0.331
  0.344   0.365   0.379   0.435   0.457   0.489   0.508   0.512
  0.527   0.639   0.645   0.672   0.723   0.790   0.798   0.815
  0.919   0.958   0.963   0.973   1.003   1.011   1.022   1.029
  1.104   1.109   1.137   1.198   1.207   1.273   1.317   1.329
  1.361   1.373   1.389   1.492   1.502   1.515   1.558   1.568
  1.677   1.924   1.961   2.134   2.538   2.543   2.646   3.017
  3.021   3.085   3.094   3.238   3.257   3.276   3.321   3.346
  3.563   3.574   3.593   3.617   3.620   3.625   3.656   3.702
  3.729   3.884   3.950   3.957   4.046   4.225   4.227   4.406
  4.414   4.417   4.500   4.637   4.638   4.838   4.871   5.098
  5.382   5.693   5.706   8.327  17.091  17.112  17.356  23.437
 23.524  23.574  23.588  23.629  24.082  27.827  28.024  28.048
 30.894  30.896  30.900  30.902  30.904  30.917  30.930  40.917
 40.944  41.158  41.184  41.235 188.862
 
 Beta MOs
 -- Occupied --
-88.273 -10.139  -7.907  -5.922  -5.920  -5.911  -0.915  -0.741
 -0.561  -0.553  -0.477  -0.348
 -- Virtual --
 -0.047   0.038   0.068   0.070   0.082   0.127   0.132   0.134
  0.151   0.157   0.158   0.187   0.214   0.243   0.244   0.343
  0.355   0.361   0.393   0.399   0.443   0.462   0.512   0.515
  0.521   0.531   0.644   0.646   0.680   0.725   0.799   0.804
  0.821   0.929   0.973   0.983   0.986   1.024   1.029   1.035
  1.050   1.137   1.142   1.148   1.204   1.211   1.279   1.332
  1.337   1.373   1.385   1.397   1.498   1.506   1.522   1.563
  1.569   1.680   1.965   1.974   2.141   2.543   2.545   2.649
  3.018   3.023   3.089   3.095   3.244   3.260   3.277   3.326
  3.350   3.596   3.618   3.618   3.630   3.652   3.655   3.659
  3.731   3.735   3.889   3.952   3.960   4.053   4.230   4.231
  4.410   4.418   4.419   4.503   4.652   4.654   4.851   4.875
  5.101   5.390   5.697   5.709   8.337  17.112  17.119  17.360
 23.448  23.534  23.584  23.590  23.633  24.082  27.827  28.024
 28.048  30.899  30.901  30.904  30.905  30.908  30.917  30.931
 40.916  40.944  41.158  41.183  41.235 188.867
 --------------------------------------------------------------
 
          Ground-State Mulliken Net Atomic Charges

     Atom                 Charge (a.u.)    Spin (a.u.)
  --------------------------------------------------------
      1 C                    -0.036224      -0.037886
      2 S                    -0.225593       0.985972
      3 H                     0.090682       0.019101
      4 H                     0.084744       0.004188
      5 H                     0.086391       0.028626
  --------------------------------------------------------
  Sum of atomic charges =     0.000000
  Sum of spin   charges =     1.000000

 -----------------------------------------------------------------
                    Cartesian Multipole Moments
 -----------------------------------------------------------------
    Charge (ESU x 10^10)
                 0.0000
    Dipole Moment (Debye)
         X       0.0454      Y      -0.0408      Z      -1.7303
       Tot       1.7314
    Quadrupole Moments (Debye-Ang)
        XX     -20.3308     XY       1.2697     YY     -20.4008
        XZ       0.0569     YZ       0.0791     ZZ     -23.1626
    Octapole Moments (Debye-Ang^2)
       XXX       0.7081    XXY      -0.0104    XYY      -0.8819
       YYY      -0.0203    XXZ     -24.3466    XYZ       2.3080
       YYZ     -24.8225    XZZ      -0.1153    YZZ      -0.0607
       ZZZ     -71.8175
    Hexadecapole Moments (Debye-Ang^3)
      XXXX     -32.0746   XXXY       1.6737   XXYY     -10.9161
      XYYY       1.7025   YYYY     -32.6801   XXXZ      -0.3816
      XXYZ       0.0539   XYYZ       0.3369   YYYZ       0.1777
      XXZZ     -55.6840   XYZZ       5.0171   YYZZ     -56.2515
      XZZZ       0.0788   YZZZ      -0.0690   ZZZZ    -285.7290
 -----------------------------------------------------------------
 Total job time:  44.96s(wall), 44.61s(cpu) 
 Mon Jun  3 17:06:26 2013

        *************************************************************
        *                                                           *
        *  Thank you very much for using Q-Chem.  Have a nice day.  *
        *                                                           *
        *************************************************************


0 sent ACK to 0 
now end server 0 ... 
 
**********************************************************************
Job 3 of 3 
**********************************************************************
 
Process 0 of 1 is on cl243.stfx.acenet.ca - thread support 1
initial socket setup ...start
initial socket setup ...done 
now start server 0 ... 

cmd = /usr/bin/ssh clhead /usr/local/qchem/bin/get_hostid 289648688 > /scratch/tmp/6027818.1.long.q/qchem2133/lic.dat
                  Welcome to Q-Chem
     A Quantum Leap Into The Future Of Chemistry

 Y. Shao, L. Fusti-Molnar, Y. Jung, J. Kussmann, C. Ochsenfeld,
 S. T. Brown, A. T. B. Gilbert, L. V. Slipchenko,S. V. Levchenko,
 D. P. O'Neill, R. A. DiStasio Jr., R. C. Lochan, T. Wang,
 G. J. O. Beran, N. A. Besley, J. M. Herbert, C. Y. Lin,
 T. Van Voorhis, S. H. Chien, A. Sodt, R. P. Steele, 
 V. A. Rassolov, P. E. Maslen, P. P. Korambath, R. D. Adamson,
 B. Austin, J. Baker, E. F. C. Byrd, H. Dachsel, R. J. Doerksen,
 A. Dreuw, B. D. Dunietz, A. D. Dutoi, T. R. Furlani,
 S. R. Gwaltney, A. Heyden, S. Hirata, C.-P. Hsu, G. Kedziora,
 R. Z. Khaliullin, P. Klunzinger, A. M. Lee, M. S. Lee, W. Liang,
 I. Lotan, N. Nair, B. Peters, E. I. Proynov, P. A. Pieniazek, 
 Y. M. Rhee, J. Ritchie, E. Rosta, C. D. Sherrill, 
 A. C. Simmonett, J. E. Subotnik, H. L. Woodcock III,
 W. Zhang, A. T. Bell, A. K. Chakraborty, D. M. Chipman,
 F. J. Keil, A. Warshel, W. J. Hehre, H. F. Schaefer III,
 J. Kong, A. I. Krylov, P. M. W. Gill, M. Head-Gordon,
 Q-Chem, Version 3.1, Q-Chem, Inc., Pittsburgh, PA (2007).

 Additional authors for Version 3.1: 
 Z. Gan, Y. Zhao, N. E. Schultz, D. Truhlar, E. Epifanovsky and M. Oana.

 Additional authors for Version 3.2: 
 R. Baer, B. R. Brooks, D. Casanova, J.-D. Chai, C.-L. Cheng, 
 C. Cramer, D. Crittenden, A. Ghysels, G. Hawkins, E. G. Hohenstein, 
 C. Kelley, W. Kurlancheek, D. Liotard, E. Livshits, P. Manohar, 
 A. Marenich, D. Neuhauser, R. Olson, M. A. Rohrdanz, K. S. Thanthiriwatte, 
 A. J. W. Thom, V. Vanovschi, C. F. Williams, Q. Wu and Z.-Q. You. 


 Intel X86 Linux Version

 Q-chem begins on Mon Jun  3 17:06:29 2013  

 Parallel job on  1  processors
Processing $rem in /usr/local/qchem/config/preferences.

theFileMan(): MAXOPENFILES=974 MAX_SUB_FILE_NUM=16
Maximum size of a physical file is 2.0 GB, maximum size of a tmp-file is 32.0 GB


--------------------------------------------------------------
User input:
--------------------------------------------------------------

$molecule
1,3
C
S,1,R
H,1,ch1,2,hcs
X,1,1.,2,alpha,3,180.,0
H,1,ch,4,hch2,3,90.,0
H,1,ch,4,hch2,3,-90.,0

R=1.81256567
ch=1.09351119
hcs=106.82996657
ch1=1.09887196
hch2=55.32746965
alpha=130.50070297

$end

$comment
positive
$end

$xc_functional
C PBE   1.00
X wPBE  1.00
$end

$rem
SYMMETRY_DECOMPOSITION	0
LRC_DFT                 true
exchange 		general
BASIS                   g3large
omega			400
mem_static              760
max_scf_cycles          200
scf_final_print         1
sym_ignore              true
$end

--------------------------------------------------------------
 Writing REM_CC_EA            5
 ----------------------------------------------------
       Standard Nuclear Orientation (Angstroms)
    I     Atom         X            Y            Z
 ----------------------------------------------------
    1      C       0.000000     0.000000     0.000000
    2      S       0.000000     0.000000     1.812566
    3      H       1.051805     0.000000    -0.318159
    4      H      -0.473030     0.899322    -0.404016
    5      H      -0.473030    -0.899322    -0.404016
 ----------------------------------------------------
 Nuclear Repulsion Energy =    48.1227557371 hartrees
 There are       13 alpha and       11 beta electrons
 Requested basis set is G3large
 There are 47 shells and 138 basis functions

Total QAlloc Memory Limit   2000 MB
Mega-Array Size       743 MB
MEM_STATIC part       760 MB

                       Distance Matrix (Angstroms)
             C (  1)   S (  2)   H (  3)   H (  4)
   S (  2)  1.812566
   H (  3)  1.098872  2.376191
   H (  4)  1.093511  2.438395  1.772364
   H (  5)  1.093511  2.438395  1.772364  1.798644
 
 A cutoff of  1.0D-08 yielded   1081 shell pairs
 There are   9436 function pairs ( 12275 Cartesian)
Evaluating contribution to one-electron hamiltonian from nuclear
 Smallest overlap matrix eigenvalue = 4.38E-04
 Multipole matrices computed through 2nd order

  Scale SEOQF with 1.000000e-01/1.000000e-01/1.000000e-01

 Standard Electronic Orientation quadrupole field applied
 Nucleus-field energy     =    -0.0000000055 hartrees
 Guess from superposition of atomic densities
 Warning:  Energy on first SCF cycle will be non-variational
 Long-range K will be added via erf
 Coulomb attenuation parameter = 0.4 bohr**(-1)
 An unrestricted Kohn-Sham SCF calculation will be
 performed using Pulay DIIS extrapolation
 Exchange:  wPBE + LR-HF      Correlation:  PBE
 Using SG-1 standard quadrature grid
 SCF converges when DIIS error is below 1.0E-05
 Requested basis set is G3large
 There are 47 shells and 138 basis functions
 A cutoff of  1.0D-08 yielded   1081 shell pairs
 There are   9436 function pairs ( 12275 Cartesian)
 Warning!  Inaccurate integrated density:
   Number of electrons =    24
   Numerical integral  =    25.000026025866
   Relative error      =     4.1667751078 %
 ---------------------------------------
  Cycle       Energy         DIIS Error
 ---------------------------------------
    1    -438.0401058971      2.83E-02
    2    -437.5177562507      3.15E-03
    3    -437.5678846035      1.47E-03
    4    -437.5755770408      4.15E-04
    5    -437.5783962822      1.83E-04
    6    -437.5793408389      5.68E-05
    7    -437.5794436757      3.57E-05
    8    -437.5794580047      6.32E-06 Convergence criterion met
 ---------------------------------------
 One-Electron    Energy =  -690.5235506265
 Total Coulomb   Energy =   236.5531431591
 Alpha Exchange  Energy =    -2.6514483818
 Beta  Exchange  Energy =    -2.2597234767
 DFT   Exchange  Energy =   -25.9736181084
 DFT Correlation Energy =    -0.8470163020
 Nuclear Repu.   Energy =    48.1227557316
 Nuclear Attr.   Energy = -1127.2808744177
 Kinetic         Energy =   436.7573237912
 <S^2> = 2.0091
 SCF time:  CPU 45.23 s  wall 45.57 s
 Final Alpha MO Eigenvalues
            1           2           3           4           5           6
    1 -88.6547956 -10.3925822  -8.2830328  -6.3009857  -6.3008369  -6.2902897
            7           8           9          10          11          12
    1  -1.2473690  -1.0629892  -0.8323846  -0.8297749  -0.7840469  -0.7163759
           13          14          15          16          17          18
    1  -0.7126068  -0.1474638  -0.1110226  -0.0740845  -0.0740326  -0.0552825
 Final Beta MO Eigenvalues
            1           2           3           4           5           6
    1 -88.6444143 -10.3926282  -8.2732125  -6.2848392  -6.2831440  -6.2830501
            7           8           9          10          11          12
    1  -1.1901762  -1.0067983  -0.7989153  -0.7936687  -0.7634152  -0.3354090
           13          14          15          16
    1  -0.3341625  -0.1259718  -0.1053392  -0.0707821
 Analysis of SCF Wavefunction
 
 --------------------------------------------------------------
                    Orbital Energies (a.u.)
 --------------------------------------------------------------
 
 Alpha MOs
 -- Occupied --
-88.655 -10.393  -8.283  -6.301  -6.301  -6.290  -1.247  -1.063
 -0.832  -0.830  -0.784  -0.716  -0.713
 -- Virtual --
 -0.147  -0.111  -0.074  -0.074  -0.055  -0.038  -0.034  -0.032
 -0.024  -0.023   0.026   0.039   0.042   0.045   0.052   0.052
  0.115   0.122   0.164   0.216   0.232   0.260   0.261   0.308
  0.321   0.433   0.433   0.436   0.524   0.548   0.554   0.568
  0.661   0.682   0.690   0.696   0.715   0.716   0.742   0.773
  0.775   0.782   0.868   0.969   0.978   1.035   1.056   1.067
  1.099   1.125   1.137   1.254   1.256   1.263   1.332   1.335
  1.456   1.616   1.626   1.835   2.296   2.298   2.405   2.749
  2.773   2.822   2.828   2.960   3.012   3.029   3.054   3.081
  3.184   3.197   3.267   3.273   3.332   3.366   3.380   3.405
  3.406   3.602   3.697   3.699   3.770   3.974   3.974   4.159
  4.159   4.162   4.250   4.271   4.273   4.504   4.532   4.839
  5.062   5.449   5.460   7.967  16.725  16.728  16.994  23.058
 23.146  23.211  23.211  23.264  23.826  27.572  27.771  27.795
 30.520  30.520  30.532  30.532  30.543  30.543  30.563  40.662
 40.690  40.904  40.929  40.981 188.486
 
 Beta MOs
 -- Occupied --
-88.644 -10.393  -8.273  -6.285  -6.283  -6.283  -1.190  -1.007
 -0.799  -0.794  -0.763
 -- Virtual --
 -0.335  -0.334  -0.126  -0.105  -0.071  -0.071  -0.047  -0.030
 -0.024  -0.021  -0.017  -0.015   0.027   0.043   0.057   0.058
  0.106   0.109   0.158   0.162   0.170   0.231   0.240   0.291
  0.291   0.313   0.326   0.439   0.439   0.448   0.529   0.561
  0.567   0.582   0.697   0.715   0.723   0.728   0.754   0.757
  0.772   0.807   0.840   0.841   0.889   0.979   0.987   1.051
  1.079   1.089   1.117   1.144   1.157   1.263   1.267   1.276
  1.338   1.341   1.461   1.672   1.681   1.849   2.304   2.306
  2.413   2.757   2.778   2.829   2.835   2.972   3.017   3.035
  3.069   3.096   3.298   3.309   3.331   3.340   3.348   3.372
  3.397   3.433   3.435   3.615   3.702   3.706   3.781   3.985
  3.985   4.168   4.169   4.172   4.261   4.304   4.304   4.522
  4.550   4.850   5.080   5.458   5.469   7.988  16.755  16.758
 17.001  23.082  23.168  23.223  23.224  23.274  23.827  27.570
 27.772  27.795  30.529  30.530  30.539  30.539  30.548  30.548
 30.567  40.661  40.691  40.904  40.929  40.982 188.498
 --------------------------------------------------------------
 
          Ground-State Mulliken Net Atomic Charges

     Atom                 Charge (a.u.)    Spin (a.u.)
  --------------------------------------------------------
      1 C                     0.059492      -0.047788
      2 S                     0.506366       1.916156
      3 H                     0.145938       0.046596
      4 H                     0.144146       0.042898
      5 H                     0.144058       0.042138
  --------------------------------------------------------
  Sum of atomic charges =     1.000000
  Sum of spin   charges =     2.000000

 -----------------------------------------------------------------
                    Cartesian Multipole Moments
 -----------------------------------------------------------------
    Charge (ESU x 10^10)
                 4.8032
    Dipole Moment (Debye)
         X       0.0620      Y       0.0002      Z       4.6338
       Tot       4.6342
    Quadrupole Moments (Debye-Ang)
        XX     -15.7877     XY       0.0001     YY     -15.6436
        XZ       0.0223     YZ       0.0000     ZZ      -6.4245
    Octapole Moments (Debye-Ang^2)
       XXX       1.1111    XXY       0.0001    XYY      -1.1922
       YYY       0.0003    XXZ     -18.3614    XYZ       0.0008
       YYZ     -18.5240    XZZ      -0.2283    YZZ       0.0002
       ZZZ     -35.4920
    Hexadecapole Moments (Debye-Ang^3)
      XXXX     -21.0272   XXXY       0.0001   XXYY      -7.1764
      XYYY       0.0001   YYYY     -21.1079   XXXZ      -0.7302
      XXYZ       0.0000   XYYZ       0.6059   YYYZ       0.0000
      XXZZ     -39.8782   XYZZ       0.0009   YYZZ     -39.6587
      XZZZ      -0.2066   YZZZ       0.0002   ZZZZ    -187.6074
 -----------------------------------------------------------------
 Total job time:  45.73s(wall), 45.38s(cpu) 
 Mon Jun  3 17:07:15 2013

        *************************************************************
        *                                                           *
        *  Thank you very much for using Q-Chem.  Have a nice day.  *
        *                                                           *
        *************************************************************


0 sent ACK to 0 
now end server 0 ... 
