Process 0 of 1 is on cl240.stfx.acenet.ca - thread support 1
initial socket setup ...start
initial socket setup ...done 
now start server 0 ... 

cmd = /usr/bin/ssh clhead /usr/local/qchem/bin/get_hostid 1385976149 > /scratch/tmp/5954128.1.long.q/qchem827/lic.dat
                  Welcome to Q-Chem
     A Quantum Leap Into The Future Of Chemistry

 Y. Shao, L. Fusti-Molnar, Y. Jung, J. Kussmann, C. Ochsenfeld,
 S. T. Brown, A. T. B. Gilbert, L. V. Slipchenko,S. V. Levchenko,
 D. P. O'Neill, R. A. DiStasio Jr., R. C. Lochan, T. Wang,
 G. J. O. Beran, N. A. Besley, J. M. Herbert, C. Y. Lin,
 T. Van Voorhis, S. H. Chien, A. Sodt, R. P. Steele, 
 V. A. Rassolov, P. E. Maslen, P. P. Korambath, R. D. Adamson,
 B. Austin, J. Baker, E. F. C. Byrd, H. Dachsel, R. J. Doerksen,
 A. Dreuw, B. D. Dunietz, A. D. Dutoi, T. R. Furlani,
 S. R. Gwaltney, A. Heyden, S. Hirata, C.-P. Hsu, G. Kedziora,
 R. Z. Khaliullin, P. Klunzinger, A. M. Lee, M. S. Lee, W. Liang,
 I. Lotan, N. Nair, B. Peters, E. I. Proynov, P. A. Pieniazek, 
 Y. M. Rhee, J. Ritchie, E. Rosta, C. D. Sherrill, 
 A. C. Simmonett, J. E. Subotnik, H. L. Woodcock III,
 W. Zhang, A. T. Bell, A. K. Chakraborty, D. M. Chipman,
 F. J. Keil, A. Warshel, W. J. Hehre, H. F. Schaefer III,
 J. Kong, A. I. Krylov, P. M. W. Gill, M. Head-Gordon,
 Q-Chem, Version 3.1, Q-Chem, Inc., Pittsburgh, PA (2007).

 Additional authors for Version 3.1: 
 Z. Gan, Y. Zhao, N. E. Schultz, D. Truhlar, E. Epifanovsky and M. Oana.

 Additional authors for Version 3.2: 
 R. Baer, B. R. Brooks, D. Casanova, J.-D. Chai, C.-L. Cheng, 
 C. Cramer, D. Crittenden, A. Ghysels, G. Hawkins, E. G. Hohenstein, 
 C. Kelley, W. Kurlancheek, D. Liotard, E. Livshits, P. Manohar, 
 A. Marenich, D. Neuhauser, R. Olson, M. A. Rohrdanz, K. S. Thanthiriwatte, 
 A. J. W. Thom, V. Vanovschi, C. F. Williams, Q. Wu and Z.-Q. You. 


 Intel X86 Linux Version

 Q-chem begins on Wed Apr 24 14:57:35 2013  

 Parallel job on  1  processors
Processing $rem in /usr/local/qchem/config/preferences.

theFileMan(): MAXOPENFILES=974 MAX_SUB_FILE_NUM=16
Maximum size of a physical file is 2.0 GB, maximum size of a tmp-file is 32.0 GB


--------------------------------------------------------------
User input:
--------------------------------------------------------------

$molecule
-1,2
LI
F,1,LiF

LiF=1.55170308

$end

$comment
negative
$end

$xc_functional
C PBE   1.00
X wPBE  1.00
$end

$rem
SYMMETRY_DECOMPOSITION	0
exchange 		general
LRC_DFT                 true
BASIS                   g3large
omega			200
mem_static              760
max_scf_cycles          200
scf_final_print         1
sym_ignore              true
$end

--------------------------------------------------------------
 Writing REM_CC_EA            2
 ----------------------------------------------------
       Standard Nuclear Orientation (Angstroms)
    I     Atom         X            Y            Z
 ----------------------------------------------------
    1      Li      0.000000     0.000000     0.000000
    2      F       0.000000     0.000000     1.551703
 ----------------------------------------------------
 Nuclear Repulsion Energy =     9.2078084240 hartrees
 There are        7 alpha and        6 beta electrons
 Requested basis set is G3large
 There are 20 shells and 84 basis functions

Total QAlloc Memory Limit   2000 MB
Mega-Array Size       743 MB
MEM_STATIC part       760 MB

                       Distance Matrix (Angstroms)
             Li(  1)
   F (  2)  1.551703
 
 A cutoff of  1.0D-08 yielded    205 shell pairs
 There are   3657 function pairs (  4803 Cartesian)
Evaluating contribution to one-electron hamiltonian from nuclear
 Smallest overlap matrix eigenvalue = 2.12E-03
 Multipole matrices computed through 2nd order

  Scale SEOQF with 1.000000e-02/1.000000e-02/1.000000e-02

 Standard Electronic Orientation quadrupole field applied
 Nucleus-field energy     =    -0.0000000002 hartrees
 Guess from superposition of atomic densities
 Warning:  Energy on first SCF cycle will be non-variational
 Long-range K will be added via erf
 Coulomb attenuation parameter = 0.2 bohr**(-1)
 An unrestricted Kohn-Sham SCF calculation will be
 performed using Pulay DIIS extrapolation
 Exchange:  wPBE + LR-HF      Correlation:  PBE
 Using SG-1 standard quadrature grid
 SCF converges when DIIS error is below 1.0E-05
 Requested basis set is G3large
 There are 20 shells and 84 basis functions
 A cutoff of  1.0D-08 yielded    205 shell pairs
 There are   3657 function pairs (  4803 Cartesian)
 Warning!  Inaccurate integrated density:
   Number of electrons =    13
   Numerical integral  =    12.013127970302
   Relative error      =    -7.5913233054 %
 ---------------------------------------
  Cycle       Energy         DIIS Error
 ---------------------------------------
    1    -106.9903906877      1.08E-02
    2    -107.2353035469      1.40E-02
    3    -107.3583761137      2.50E-03
    4    -107.3674385129      1.88E-03
    5    -107.3700341072      2.11E-04
    6    -107.3706691646      8.87E-05
    7    -107.3709731171      4.23E-05
    8    -107.3710770318      2.00E-05
    9    -107.3710998702      1.10E-05
   10    -107.3711041409      2.48E-06 Convergence criterion met
 ---------------------------------------
 One-Electron    Energy =  -170.9915275705
 Total Coulomb   Energy =    66.8158566630
 Alpha Exchange  Energy =    -0.7235967481
 Beta  Exchange  Energy =    -0.6602073121
 DFT   Exchange  Energy =   -10.6374666925
 DFT Correlation Energy =    -0.3819709045
 Nuclear Repu.   Energy =     9.2078084238
 Nuclear Attr.   Energy =  -278.1574933868
 Kinetic         Energy =   107.1659658163
 <S^2> = 0.7501
 SCF time:  CPU 10.78 s  wall 14.95 s
 Final Alpha MO Eigenvalues
            1           2           3           4           5           6
    1 -24.0661497  -1.7811012  -0.8796149  -0.2077885  -0.1973690  -0.1973676
            7           8           9          10          11          12
    1  -0.0161463   0.0842603   0.0842617   0.0879722   0.1056122   0.1590580
 Final Beta MO Eigenvalues
            1           2           3           4           5           6
    1 -24.0661993  -1.7790943  -0.8796754  -0.2076368  -0.1973820  -0.1973801
            7           8           9          10          11
    1   0.0900728   0.0900784   0.0901881   0.0984668   0.1427095
 Analysis of SCF Wavefunction
 
 --------------------------------------------------------------
                    Orbital Energies (a.u.)
 --------------------------------------------------------------
 
 Alpha MOs
 -- Occupied --
-24.066  -1.781  -0.880  -0.208  -0.197  -0.197  -0.016
 -- Virtual --
  0.084   0.084   0.088   0.106   0.159   0.159   0.176   0.257
  0.286   0.286   0.321   0.411   0.411   0.452   0.456   0.456
  0.512   0.533   0.533   0.659   0.664   0.664   0.729   0.729
  0.738   0.738   0.812   0.884   0.884   0.963   1.386   1.386
  1.410   1.411   1.501   1.670   1.670   1.731   2.272   2.371
  2.371   2.457   2.621   2.621   4.221   6.431   6.431   6.460
  6.878   6.884   6.884   6.889   6.895   6.895   6.933   7.059
  7.059   7.412   9.318   9.318   9.458   9.458   9.532  20.031
 20.074  21.400  21.418  21.418  50.255  50.304  50.336  50.359
 50.359  55.779  55.779  55.828  66.767
 
 Beta MOs
 -- Occupied --
-24.066  -1.779  -0.880  -0.208  -0.197  -0.197
 -- Virtual --
  0.090   0.090   0.090   0.098   0.143   0.171   0.171   0.186
  0.269   0.291   0.291   0.328   0.413   0.413   0.456   0.460
  0.460   0.515   0.535   0.535   0.663   0.664   0.664   0.732
  0.732   0.739   0.739   0.817   0.888   0.888   0.966   1.387
  1.387   1.408   1.409   1.501   1.670   1.670   1.731   2.273
  2.371   2.371   2.458   2.622   2.622   4.223   6.431   6.431
  6.460   6.878   6.884   6.884   6.889   6.895   6.895   6.933
  7.059   7.059   7.414   9.318   9.318   9.457   9.457   9.532
 20.033  20.076  21.400  21.419  21.419  50.255  50.303  50.336
 50.359  50.359  55.779  55.779  55.828  66.767
 --------------------------------------------------------------
 
          Ground-State Mulliken Net Atomic Charges

     Atom                 Charge (a.u.)    Spin (a.u.)
  --------------------------------------------------------
      1 Li                   -0.387428       1.003098
      2 F                    -0.612572      -0.003098
  --------------------------------------------------------
  Sum of atomic charges =    -1.000000
  Sum of spin   charges =     1.000000

 -----------------------------------------------------------------
                    Cartesian Multipole Moments
 -----------------------------------------------------------------
    Charge (ESU x 10^10)
                -4.8032
    Dipole Moment (Debye)
         X       0.0003      Y       0.0008      Z       2.8108
       Tot       2.8108
    Quadrupole Moments (Debye-Ang)
        XX     -31.2428     XY      -0.0003     YY     -31.2428
        XZ      -0.0017     YZ      -0.0023     ZZ     -50.0823
    Octapole Moments (Debye-Ang^2)
       XXX       0.0452    XXY       0.0185    XYY       0.0151
       YYY       0.0555    XXZ      38.0132    XYZ       0.0001
       YYZ      38.0132    XZZ       0.0150    YZZ       0.0185
       ZZZ     101.9124
    Hexadecapole Moments (Debye-Ang^3)
      XXXX    -491.7080   XXXY      -0.0011   XXYY    -163.9027
      XYYY      -0.0011   YYYY    -491.7080   XXXZ      -0.0777
      XXYZ      -0.0302   XYYZ      -0.0259   YYYZ      -0.0907
      XXZZ    -236.1545   XYZZ      -0.0004   YYZZ    -236.1545
      XZZZ      -0.0777   YZZZ      -0.0906   ZZZZ    -943.6993
 -----------------------------------------------------------------
 Total job time:  15.18s(wall), 10.87s(cpu) 
 Wed Apr 24 14:57:50 2013

        *************************************************************
        *                                                           *
        *  Thank you very much for using Q-Chem.  Have a nice day.  *
        *                                                           *
        *************************************************************


0 sent ACK to 0 
now end server 0 ... 
 
**********************************************************************
Job 2 of 3 
**********************************************************************
 
Process 0 of 1 is on cl240.stfx.acenet.ca - thread support 1
initial socket setup ...start
initial socket setup ...done 
now start server 0 ... 

cmd = /usr/bin/ssh clhead /usr/local/qchem/bin/get_hostid 1276001394 > /scratch/tmp/5954128.1.long.q/qchem827/lic.dat
                  Welcome to Q-Chem
     A Quantum Leap Into The Future Of Chemistry

 Y. Shao, L. Fusti-Molnar, Y. Jung, J. Kussmann, C. Ochsenfeld,
 S. T. Brown, A. T. B. Gilbert, L. V. Slipchenko,S. V. Levchenko,
 D. P. O'Neill, R. A. DiStasio Jr., R. C. Lochan, T. Wang,
 G. J. O. Beran, N. A. Besley, J. M. Herbert, C. Y. Lin,
 T. Van Voorhis, S. H. Chien, A. Sodt, R. P. Steele, 
 V. A. Rassolov, P. E. Maslen, P. P. Korambath, R. D. Adamson,
 B. Austin, J. Baker, E. F. C. Byrd, H. Dachsel, R. J. Doerksen,
 A. Dreuw, B. D. Dunietz, A. D. Dutoi, T. R. Furlani,
 S. R. Gwaltney, A. Heyden, S. Hirata, C.-P. Hsu, G. Kedziora,
 R. Z. Khaliullin, P. Klunzinger, A. M. Lee, M. S. Lee, W. Liang,
 I. Lotan, N. Nair, B. Peters, E. I. Proynov, P. A. Pieniazek, 
 Y. M. Rhee, J. Ritchie, E. Rosta, C. D. Sherrill, 
 A. C. Simmonett, J. E. Subotnik, H. L. Woodcock III,
 W. Zhang, A. T. Bell, A. K. Chakraborty, D. M. Chipman,
 F. J. Keil, A. Warshel, W. J. Hehre, H. F. Schaefer III,
 J. Kong, A. I. Krylov, P. M. W. Gill, M. Head-Gordon,
 Q-Chem, Version 3.1, Q-Chem, Inc., Pittsburgh, PA (2007).

 Additional authors for Version 3.1: 
 Z. Gan, Y. Zhao, N. E. Schultz, D. Truhlar, E. Epifanovsky and M. Oana.

 Additional authors for Version 3.2: 
 R. Baer, B. R. Brooks, D. Casanova, J.-D. Chai, C.-L. Cheng, 
 C. Cramer, D. Crittenden, A. Ghysels, G. Hawkins, E. G. Hohenstein, 
 C. Kelley, W. Kurlancheek, D. Liotard, E. Livshits, P. Manohar, 
 A. Marenich, D. Neuhauser, R. Olson, M. A. Rohrdanz, K. S. Thanthiriwatte, 
 A. J. W. Thom, V. Vanovschi, C. F. Williams, Q. Wu and Z.-Q. You. 


 Intel X86 Linux Version

 Q-chem begins on Wed Apr 24 14:57:53 2013  

 Parallel job on  1  processors
Processing $rem in /usr/local/qchem/config/preferences.

theFileMan(): MAXOPENFILES=974 MAX_SUB_FILE_NUM=16
Maximum size of a physical file is 2.0 GB, maximum size of a tmp-file is 32.0 GB


--------------------------------------------------------------
User input:
--------------------------------------------------------------

$molecule
0,1
LI
F,1,LiF

LiF=1.55170308

$end

$comment
neutral
$end

$xc_functional
C PBE   1.00
X wPBE  1.00
$end


$rem
SYMMETRY_DECOMPOSITION	0
LRC_DFT                 true
exchange 		general
BASIS                   g3large
omega			200
mem_static              760
max_scf_cycles          200
scf_final_print         1
sym_ignore              true
$end

--------------------------------------------------------------
 Writing REM_CC_EA            2
 ----------------------------------------------------
       Standard Nuclear Orientation (Angstroms)
    I     Atom         X            Y            Z
 ----------------------------------------------------
    1      Li      0.000000     0.000000     0.000000
    2      F       0.000000     0.000000     1.551703
 ----------------------------------------------------
 Nuclear Repulsion Energy =     9.2078084240 hartrees
 There are        6 alpha and        6 beta electrons
 Requested basis set is G3large
 There are 20 shells and 84 basis functions

Total QAlloc Memory Limit   2000 MB
Mega-Array Size       743 MB
MEM_STATIC part       760 MB

                       Distance Matrix (Angstroms)
             Li(  1)
   F (  2)  1.551703
 
 A cutoff of  1.0D-08 yielded    205 shell pairs
 There are   3657 function pairs (  4803 Cartesian)
Evaluating contribution to one-electron hamiltonian from nuclear
 Smallest overlap matrix eigenvalue = 2.12E-03
 Multipole matrices computed through 2nd order

  Scale SEOQF with 1.000000e-02/1.000000e-02/1.000000e-02

 Standard Electronic Orientation quadrupole field applied
 Nucleus-field energy     =    -0.0000000002 hartrees
 Guess from superposition of atomic densities
 Warning:  Energy on first SCF cycle will be non-variational
 Long-range K will be added via erf
 Coulomb attenuation parameter = 0.2 bohr**(-1)
 A restricted Kohn-Sham SCF calculation will be
 performed using Pulay DIIS extrapolation
 Exchange:  wPBE + LR-HF      Correlation:  PBE
 Using SG-1 standard quadrature grid
 SCF converges when DIIS error is below 1.0E-05
 Requested basis set is G3large
 There are 20 shells and 84 basis functions
 A cutoff of  1.0D-08 yielded    205 shell pairs
 There are   3657 function pairs (  4803 Cartesian)
 Warning!  Inaccurate integrated density:
   Number of electrons =    12
   Numerical integral  =    12.013127970302
   Relative error      =     0.1093997525 %
 ---------------------------------------
  Cycle       Energy         DIIS Error
 ---------------------------------------
    1    -106.9903906877      1.08E-02
    2    -107.2308475820      1.40E-02
    3    -107.3463795127      2.50E-03
    4    -107.3517183544      2.01E-03
    5    -107.3537036164      1.11E-04
    6    -107.3537240819      2.88E-05
    7    -107.3537260906      5.31E-06 Convergence criterion met
 ---------------------------------------
 One-Electron    Energy =  -169.2645562595
 Total Coulomb   Energy =    65.0148470597
 Alpha Exchange  Energy =    -0.6601977576
 Beta  Exchange  Energy =    -0.6601977576
 DFT   Exchange  Energy =   -10.6151840510
 DFT Correlation Energy =    -0.3762457485
 Nuclear Repu.   Energy =     9.2078084238
 Nuclear Attr.   Energy =  -276.3719505303
 Kinetic         Energy =   107.1073942709
 SCF time:  CPU 6.56 s  wall 9.72 s
 Final Alpha MO Eigenvalues
            1           2           3           4           5           6
    1 -24.2014578  -1.9646789  -1.0148418  -0.3427051  -0.3317782  -0.3317752
            7           8           9          10          11
    1  -0.0137371   0.0154422   0.0154426   0.0182642   0.0270788
 Analysis of SCF Wavefunction
 
 --------------------------------------------------------------
                    Orbital Energies (a.u.)
 --------------------------------------------------------------
 
 Alpha MOs
 -- Occupied --
-24.201  -1.965  -1.015  -0.343  -0.332  -0.332
 -- Virtual --
 -0.014   0.015   0.015   0.018   0.027   0.059   0.059   0.081
  0.129   0.159   0.159   0.200   0.281   0.281   0.323   0.323
  0.335   0.390   0.418   0.418   0.504   0.504   0.521   0.592
  0.592   0.604   0.604   0.665   0.751   0.751   0.812   1.220
  1.220   1.237   1.237   1.361   1.538   1.538   1.575   2.138
  2.237   2.237   2.313   2.482   2.482   4.050   6.297   6.297
  6.324   6.743   6.744   6.744   6.751   6.751   6.755   6.795
  6.891   6.891   7.234   9.183   9.184   9.322   9.322   9.397
 19.848  19.891  21.215  21.233  21.233  50.120  50.168  50.201
 50.224  50.224  55.644  55.644  55.693  66.632
 --------------------------------------------------------------
 
          Ground-State Mulliken Net Atomic Charges

     Atom                 Charge (a.u.)
  ----------------------------------------
      1 Li                    0.554741
      2 F                    -0.554741
  ----------------------------------------
  Sum of atomic charges =     0.000000

 -----------------------------------------------------------------
                    Cartesian Multipole Moments
 -----------------------------------------------------------------
    Charge (ESU x 10^10)
                 0.0000
    Dipole Moment (Debye)
         X       0.0000      Y       0.0000      Z      -6.0950
       Tot       6.0950
    Quadrupole Moments (Debye-Ang)
        XX      -7.5926     XY      -0.0001     YY      -7.5926
        XZ       0.0000     YZ       0.0000     ZZ     -15.4972
    Octapole Moments (Debye-Ang^2)
       XXX       0.0000    XXY       0.0000    XYY       0.0000
       YYY       0.0000    XXZ     -10.2803    XYZ      -0.0001
       YYZ     -10.2803    XZZ       0.0000    YZZ       0.0000
       ZZZ     -41.6448
    Hexadecapole Moments (Debye-Ang^3)
      XXXX      -8.3409   XXXY      -0.0004   XXYY      -2.7803
      XYYY      -0.0004   YYYY      -8.3409   XXXZ       0.0000
      XXYZ       0.0000   XYYZ       0.0000   YYYZ       0.0000
      XXZZ     -17.7253   XYZZ      -0.0001   YYZZ     -17.7253
      XZZZ       0.0000   YZZZ       0.0000   ZZZZ    -114.0369
 -----------------------------------------------------------------
 Total job time:  9.85s(wall), 6.64s(cpu) 
 Wed Apr 24 14:58:02 2013

        *************************************************************
        *                                                           *
        *  Thank you very much for using Q-Chem.  Have a nice day.  *
        *                                                           *
        *************************************************************


0 sent ACK to 0 
now end server 0 ... 
 
**********************************************************************
Job 3 of 3 
**********************************************************************
 
Process 0 of 1 is on cl240.stfx.acenet.ca - thread support 1
initial socket setup ...start
initial socket setup ...done 
now start server 0 ... 

cmd = /usr/bin/ssh clhead /usr/local/qchem/bin/get_hostid 544775243 > /scratch/tmp/5954128.1.long.q/qchem827/lic.dat
                  Welcome to Q-Chem
     A Quantum Leap Into The Future Of Chemistry

 Y. Shao, L. Fusti-Molnar, Y. Jung, J. Kussmann, C. Ochsenfeld,
 S. T. Brown, A. T. B. Gilbert, L. V. Slipchenko,S. V. Levchenko,
 D. P. O'Neill, R. A. DiStasio Jr., R. C. Lochan, T. Wang,
 G. J. O. Beran, N. A. Besley, J. M. Herbert, C. Y. Lin,
 T. Van Voorhis, S. H. Chien, A. Sodt, R. P. Steele, 
 V. A. Rassolov, P. E. Maslen, P. P. Korambath, R. D. Adamson,
 B. Austin, J. Baker, E. F. C. Byrd, H. Dachsel, R. J. Doerksen,
 A. Dreuw, B. D. Dunietz, A. D. Dutoi, T. R. Furlani,
 S. R. Gwaltney, A. Heyden, S. Hirata, C.-P. Hsu, G. Kedziora,
 R. Z. Khaliullin, P. Klunzinger, A. M. Lee, M. S. Lee, W. Liang,
 I. Lotan, N. Nair, B. Peters, E. I. Proynov, P. A. Pieniazek, 
 Y. M. Rhee, J. Ritchie, E. Rosta, C. D. Sherrill, 
 A. C. Simmonett, J. E. Subotnik, H. L. Woodcock III,
 W. Zhang, A. T. Bell, A. K. Chakraborty, D. M. Chipman,
 F. J. Keil, A. Warshel, W. J. Hehre, H. F. Schaefer III,
 J. Kong, A. I. Krylov, P. M. W. Gill, M. Head-Gordon,
 Q-Chem, Version 3.1, Q-Chem, Inc., Pittsburgh, PA (2007).

 Additional authors for Version 3.1: 
 Z. Gan, Y. Zhao, N. E. Schultz, D. Truhlar, E. Epifanovsky and M. Oana.

 Additional authors for Version 3.2: 
 R. Baer, B. R. Brooks, D. Casanova, J.-D. Chai, C.-L. Cheng, 
 C. Cramer, D. Crittenden, A. Ghysels, G. Hawkins, E. G. Hohenstein, 
 C. Kelley, W. Kurlancheek, D. Liotard, E. Livshits, P. Manohar, 
 A. Marenich, D. Neuhauser, R. Olson, M. A. Rohrdanz, K. S. Thanthiriwatte, 
 A. J. W. Thom, V. Vanovschi, C. F. Williams, Q. Wu and Z.-Q. You. 


 Intel X86 Linux Version

 Q-chem begins on Wed Apr 24 14:58:06 2013  

 Parallel job on  1  processors
Processing $rem in /usr/local/qchem/config/preferences.

theFileMan(): MAXOPENFILES=974 MAX_SUB_FILE_NUM=16
Maximum size of a physical file is 2.0 GB, maximum size of a tmp-file is 32.0 GB


--------------------------------------------------------------
User input:
--------------------------------------------------------------

$molecule
1,2
LI
F,1,LiF

LiF=1.55170308

$end

$comment
positive
$end

$xc_functional
C PBE   1.00
X wPBE  1.00
$end

$rem
SYMMETRY_DECOMPOSITION	0
LRC_DFT                 true
exchange 		general
BASIS                   g3large
omega			200
mem_static              760
max_scf_cycles          200
scf_final_print         1
sym_ignore              true
$end

--------------------------------------------------------------
 Writing REM_CC_EA            2
 ----------------------------------------------------
       Standard Nuclear Orientation (Angstroms)
    I     Atom         X            Y            Z
 ----------------------------------------------------
    1      Li      0.000000     0.000000     0.000000
    2      F       0.000000     0.000000     1.551703
 ----------------------------------------------------
 Nuclear Repulsion Energy =     9.2078084240 hartrees
 There are        6 alpha and        5 beta electrons
 Requested basis set is G3large
 There are 20 shells and 84 basis functions

Total QAlloc Memory Limit   2000 MB
Mega-Array Size       743 MB
MEM_STATIC part       760 MB

                       Distance Matrix (Angstroms)
             Li(  1)
   F (  2)  1.551703
 
 A cutoff of  1.0D-08 yielded    205 shell pairs
 There are   3657 function pairs (  4803 Cartesian)
Evaluating contribution to one-electron hamiltonian from nuclear
 Smallest overlap matrix eigenvalue = 2.12E-03
 Multipole matrices computed through 2nd order

  Scale SEOQF with 1.000000e-02/1.000000e-02/1.000000e-02

 Standard Electronic Orientation quadrupole field applied
 Nucleus-field energy     =    -0.0000000002 hartrees
 Guess from superposition of atomic densities
 Warning:  Energy on first SCF cycle will be non-variational
 Long-range K will be added via erf
 Coulomb attenuation parameter = 0.2 bohr**(-1)
 An unrestricted Kohn-Sham SCF calculation will be
 performed using Pulay DIIS extrapolation
 Exchange:  wPBE + LR-HF      Correlation:  PBE
 Using SG-1 standard quadrature grid
 SCF converges when DIIS error is below 1.0E-05
 Requested basis set is G3large
 There are 20 shells and 84 basis functions
 A cutoff of  1.0D-08 yielded    205 shell pairs
 There are   3657 function pairs (  4803 Cartesian)
 Warning!  Inaccurate integrated density:
   Number of electrons =    11
   Numerical integral  =    12.013127970302
   Relative error      =     9.2102542755 %
 ---------------------------------------
  Cycle       Energy         DIIS Error
 ---------------------------------------
    1    -106.9903906877      1.08E-02
    2    -106.9098038833      1.86E-03
    3    -106.9144698392      1.34E-03
    4    -106.9153648874      2.14E-04
    5    -106.9154532150      4.00E-05
    6    -106.9154707391      2.60E-05
    7    -106.9154810552      2.37E-05
    8    -106.9155145674      1.95E-05
    9    -106.9155686311      1.08E-05
   10    -106.9155695447      4.65E-06 Convergence criterion met
 ---------------------------------------
 One-Electron    Energy =  -163.4847937786
 Total Coulomb   Energy =    59.3397710325
 Alpha Exchange  Energy =    -0.6649105318
 Beta  Exchange  Energy =    -0.5540362885
 DFT   Exchange  Energy =   -10.4214687177
 DFT Correlation Energy =    -0.3379396843
 Nuclear Repu.   Energy =     9.2078084238
 Nuclear Attr.   Energy =  -270.3861642029
 Kinetic         Energy =   106.9013704243
 <S^2> = 0.7513
 SCF time:  CPU 10.75 s  wall 14.84 s
 Final Alpha MO Eigenvalues
            1           2           3           4           5           6
    1 -24.7831775  -2.2947708  -1.5648169  -0.9222702  -0.8475966  -0.8324237
            7           8           9          10          11
    1  -0.1928715  -0.1334514  -0.1283958  -0.1070283  -0.0724595
 Final Beta MO Eigenvalues
            1           2           3           4           5           6
    1 -24.7544450  -2.2947863  -1.4897075  -0.8194004  -0.8040698  -0.5532331
            7           8           9          10
    1  -0.1913737  -0.1275936  -0.1272668  -0.1045062
 Analysis of SCF Wavefunction
 
 --------------------------------------------------------------
                    Orbital Energies (a.u.)
 --------------------------------------------------------------
 
 Alpha MOs
 -- Occupied --
-24.783  -2.295  -1.565  -0.922  -0.848  -0.832
 -- Virtual --
 -0.193  -0.133  -0.128  -0.107  -0.072  -0.059  -0.058  -0.050
 -0.011  -0.011  -0.009   0.016   0.070   0.070   0.070   0.081
  0.089   0.177   0.183   0.188   0.251   0.253   0.256   0.355
  0.355   0.387   0.387   0.428   0.514   0.521   0.573   0.891
  0.909   0.960   0.960   1.025   1.116   1.152   1.208   1.668
  1.730   1.743   1.914   1.994   2.040   3.693   5.695   5.777
  5.813   6.170   6.178   6.189   6.197   6.229   6.282   6.295
  6.523   6.529   6.892   8.570   8.577   8.716   8.794   8.855
 19.518  19.558  20.885  20.901  20.901  49.506  49.542  49.610
 49.637  49.667  55.025  55.078  55.125  66.053
 
 Beta MOs
 -- Occupied --
-24.754  -2.295  -1.490  -0.819  -0.804
 -- Virtual --
 -0.553  -0.191  -0.128  -0.127  -0.105  -0.072  -0.059  -0.058
 -0.049  -0.010  -0.009  -0.009   0.018   0.071   0.072   0.084
  0.086   0.095   0.179   0.188   0.189   0.255   0.256   0.258
  0.360   0.361   0.388   0.388   0.431   0.522   0.523   0.575
  0.912   0.917   0.961   0.962   1.036   1.163   1.177   1.219
  1.717   1.794   1.807   1.940   2.049   2.054   3.700   5.804
  5.837   5.843   6.256   6.274   6.275   6.276   6.291   6.306
  6.320   6.530   6.531   6.894   8.700   8.723   8.812   8.838
  8.911  19.518  19.558  20.885  20.901  20.901  49.590  49.635
 49.666  49.674  49.693  55.096  55.115  55.142  66.084
 --------------------------------------------------------------
 
          Ground-State Mulliken Net Atomic Charges

     Atom                 Charge (a.u.)    Spin (a.u.)
  --------------------------------------------------------
      1 Li                    0.760527       0.008671
      2 F                     0.239473       0.991329
  --------------------------------------------------------
  Sum of atomic charges =     1.000000
  Sum of spin   charges =     1.000000

 -----------------------------------------------------------------
                    Cartesian Multipole Moments
 -----------------------------------------------------------------
    Charge (ESU x 10^10)
                 4.8032
    Dipole Moment (Debye)
         X       0.0000      Y       0.0000      Z       0.6173
       Tot       0.6173
    Quadrupole Moments (Debye-Ang)
        XX      -4.9058     XY       0.4493     YY      -4.9060
        XZ       0.0000     YZ       0.0000     ZZ      -3.6652
    Octapole Moments (Debye-Ang^2)
       XXX       0.0000    XXY       0.0000    XYY       0.0000
       YYY       0.0000    XXZ      -6.7855    XYZ       0.6655
       YYZ      -6.7857    XZZ       0.0000    YZZ       0.0000
       ZZZ     -18.8222
    Hexadecapole Moments (Debye-Ang^3)
      XXXX      -3.0303   XXXY       0.2524   XXYY      -1.0099
      XYYY       0.2524   YYYY      -3.0305   XXXZ       0.0000
      XXYZ       0.0000   XYYZ       0.0000   YYYZ       0.0000
      XXZZ     -11.3737   XYZZ       1.0832   YYZZ     -11.3741
      XZZZ       0.0001   YZZZ       0.0001   ZZZZ     -64.8647
 -----------------------------------------------------------------
 Total job time:  14.94s(wall), 10.84s(cpu) 
 Wed Apr 24 14:58:21 2013

        *************************************************************
        *                                                           *
        *  Thank you very much for using Q-Chem.  Have a nice day.  *
        *                                                           *
        *************************************************************


0 sent ACK to 0 
now end server 0 ... 
