Process 0 of 1 is on cl247.stfx.acenet.ca - thread support 1
initial socket setup ...start
initial socket setup ...done 
now start server 0 ... 

cmd = /usr/bin/ssh clhead /usr/local/qchem/bin/get_hostid 439944776 > /scratch/tmp/5954006.1.long.q/qchem27465/lic.dat
                  Welcome to Q-Chem
     A Quantum Leap Into The Future Of Chemistry

 Y. Shao, L. Fusti-Molnar, Y. Jung, J. Kussmann, C. Ochsenfeld,
 S. T. Brown, A. T. B. Gilbert, L. V. Slipchenko,S. V. Levchenko,
 D. P. O'Neill, R. A. DiStasio Jr., R. C. Lochan, T. Wang,
 G. J. O. Beran, N. A. Besley, J. M. Herbert, C. Y. Lin,
 T. Van Voorhis, S. H. Chien, A. Sodt, R. P. Steele, 
 V. A. Rassolov, P. E. Maslen, P. P. Korambath, R. D. Adamson,
 B. Austin, J. Baker, E. F. C. Byrd, H. Dachsel, R. J. Doerksen,
 A. Dreuw, B. D. Dunietz, A. D. Dutoi, T. R. Furlani,
 S. R. Gwaltney, A. Heyden, S. Hirata, C.-P. Hsu, G. Kedziora,
 R. Z. Khaliullin, P. Klunzinger, A. M. Lee, M. S. Lee, W. Liang,
 I. Lotan, N. Nair, B. Peters, E. I. Proynov, P. A. Pieniazek, 
 Y. M. Rhee, J. Ritchie, E. Rosta, C. D. Sherrill, 
 A. C. Simmonett, J. E. Subotnik, H. L. Woodcock III,
 W. Zhang, A. T. Bell, A. K. Chakraborty, D. M. Chipman,
 F. J. Keil, A. Warshel, W. J. Hehre, H. F. Schaefer III,
 J. Kong, A. I. Krylov, P. M. W. Gill, M. Head-Gordon,
 Q-Chem, Version 3.1, Q-Chem, Inc., Pittsburgh, PA (2007).

 Additional authors for Version 3.1: 
 Z. Gan, Y. Zhao, N. E. Schultz, D. Truhlar, E. Epifanovsky and M. Oana.

 Additional authors for Version 3.2: 
 R. Baer, B. R. Brooks, D. Casanova, J.-D. Chai, C.-L. Cheng, 
 C. Cramer, D. Crittenden, A. Ghysels, G. Hawkins, E. G. Hohenstein, 
 C. Kelley, W. Kurlancheek, D. Liotard, E. Livshits, P. Manohar, 
 A. Marenich, D. Neuhauser, R. Olson, M. A. Rohrdanz, K. S. Thanthiriwatte, 
 A. J. W. Thom, V. Vanovschi, C. F. Williams, Q. Wu and Z.-Q. You. 


 Intel X86 Linux Version

 Q-chem begins on Wed Apr 24 14:55:31 2013  

 Parallel job on  1  processors
Processing $rem in /usr/local/qchem/config/preferences.

theFileMan(): MAXOPENFILES=974 MAX_SUB_FILE_NUM=16
Maximum size of a physical file is 2.0 GB, maximum size of a tmp-file is 32.0 GB


--------------------------------------------------------------
User input:
--------------------------------------------------------------

$molecule
-1,2
N
X,1,1.
H,1,RNH,2,XNH
H,1,RNH,2,XNH,3,120.,0
H,1,RNH,2,XNH,3,240.,0

RNH=1.01940056
XNH=112.97687284

$end

$comment
negative
$end

$xc_functional
C PBE   1.00
X wPBE  1.00
$end

$rem
SYMMETRY_DECOMPOSITION	0
exchange 		general
LRC_DFT                 true
BASIS                   g3large
omega			1000
mem_static              760
max_scf_cycles          200
scf_final_print         1
sym_ignore              true
$end

--------------------------------------------------------------
 Writing REM_CC_EA            4
 ----------------------------------------------------
       Standard Nuclear Orientation (Angstroms)
    I     Atom         X            Y            Z
 ----------------------------------------------------
    1      N       0.000000     0.000000     0.000000
    2      H       0.938524     0.000000    -0.397933
    3      H      -0.469262    -0.812786    -0.397933
    4      H      -0.469262     0.812786    -0.397933
 ----------------------------------------------------
 Nuclear Repulsion Energy =    11.8778308043 hartrees
 There are        6 alpha and        5 beta electrons
 Requested basis set is G3large
 There are 28 shells and 72 basis functions

Total QAlloc Memory Limit   2000 MB
Mega-Array Size       743 MB
MEM_STATIC part       760 MB

                       Distance Matrix (Angstroms)
             N (  1)   H (  2)   H (  3)
   H (  2)  1.019401
   H (  3)  1.019401  1.625571
   H (  4)  1.019401  1.625571  1.625571
 
 A cutoff of  1.0D-08 yielded    406 shell pairs
 There are   2724 function pairs (  3216 Cartesian)
Evaluating contribution to one-electron hamiltonian from nuclear
 Smallest overlap matrix eigenvalue = 1.65E-03
 Multipole matrices computed through 2nd order

  Scale SEOQF with 1.000000e-01/1.000000e-01/1.000000e-01

 Standard Electronic Orientation quadrupole field applied
 Guess from superposition of atomic densities
 Warning:  Energy on first SCF cycle will be non-variational
 Long-range K will be added via erf
 Coulomb attenuation parameter = 1 bohr**(-1)
 An unrestricted Kohn-Sham SCF calculation will be
 performed using Pulay DIIS extrapolation
 Exchange:  wPBE + LR-HF      Correlation:  PBE
 Using SG-1 standard quadrature grid
 SCF converges when DIIS error is below 1.0E-05
 Requested basis set is G3large
 There are 28 shells and 72 basis functions
 A cutoff of  1.0D-08 yielded    406 shell pairs
 There are   2724 function pairs (  3216 Cartesian)
 Warning!  Inaccurate integrated density:
   Number of electrons =    11
   Numerical integral  =     9.999983513912
   Relative error      =    -9.0910589644 %
 ---------------------------------------
  Cycle       Energy         DIIS Error
 ---------------------------------------
    1     -56.4918920384      5.09E-02
    2     -56.4575783762      7.70E-03
    3     -56.4931230066      5.38E-03
    4     -56.5092414986      5.70E-04
    5     -56.5108485772      1.82E-04
    6     -56.5110837699      5.00E-05
    7     -56.5111035796      1.11E-05
    8     -56.5111047886      3.33E-06 Convergence criterion met
 ---------------------------------------
 One-Electron    Energy =  -101.3611309030
 Total Coulomb   Energy =    41.0613877488
 Alpha Exchange  Energy =    -1.9220214874
 Beta  Exchange  Energy =    -1.8407933989
 DFT   Exchange  Energy =    -4.0013888843
 DFT Correlation Energy =    -0.3249886682
 Nuclear Repu.   Energy =    11.8778308044
 Nuclear Attr.   Energy =  -157.6977900070
 Kinetic         Energy =    56.3366591040
 <S^2> = 0.7503
 SCF time:  CPU 9.05 s  wall 12.80 s
 Final Alpha MO Eigenvalues
            1           2           3           4           5           6
    1 -14.3078651  -0.9642384  -0.4727274  -0.4727244  -0.2839048   0.0305851
            7           8           9          10          11
    1   0.1678757   0.1678807   0.2983958   0.3478733   0.3478809
 Final Beta MO Eigenvalues
            1           2           3           4           5           6
    1 -14.3071052  -0.9592916  -0.4720282  -0.4720258  -0.2831439   0.1623014
            7           8           9          10
    1   0.1880236   0.1880273   0.3053781   0.3439014
 Analysis of SCF Wavefunction
 
 --------------------------------------------------------------
                    Orbital Energies (a.u.)
 --------------------------------------------------------------
 
 Alpha MOs
 -- Occupied --
-14.308  -0.964  -0.473  -0.473  -0.284   0.031
 -- Virtual --
  0.168   0.168   0.298   0.348   0.348   0.370   0.441   0.441
  0.456   0.772   0.772   0.872   0.872   0.933   0.963   1.014
  1.014   1.181   1.246   1.338   1.338   1.418   1.636   1.636
  1.770   1.897   1.897   1.982   2.161   2.161   2.918   2.918
  3.016   3.729   3.815   3.815   3.970   3.985   3.985   4.146
  4.146   4.249   4.478   4.821   4.821   4.861   5.116   5.116
  5.159   5.459   5.551   5.551   5.863   5.863   6.014   6.891
  6.891  36.050  38.081  38.682  38.682  41.068  41.102  41.170
 41.246  41.277
 
 Beta MOs
 -- Occupied --
-14.307  -0.959  -0.472  -0.472  -0.283
 -- Virtual --
  0.162   0.188   0.188   0.305   0.344   0.344   0.380   0.444
  0.444   0.455   0.769   0.769   0.874   0.874   0.930   0.962
  1.011   1.011   1.180   1.247   1.339   1.339   1.418   1.636
  1.636   1.771   1.898   1.898   1.983   2.161   2.161   2.917
  2.917   3.016   3.729   3.816   3.816   3.970   3.985   3.985
  4.147   4.147   4.249   4.479   4.822   4.822   4.861   5.117
  5.117   5.159   5.460   5.552   5.552   5.863   5.863   6.015
  6.891   6.891  36.051  38.082  38.682  38.682  41.069  41.101
 41.169  41.246  41.277
 --------------------------------------------------------------
 
          Ground-State Mulliken Net Atomic Charges

     Atom                 Charge (a.u.)    Spin (a.u.)
  --------------------------------------------------------
      1 N                     0.706400      -1.171807
      2 H                    -0.568808       0.723954
      3 H                    -0.568744       0.723872
      4 H                    -0.568848       0.723981
  --------------------------------------------------------
  Sum of atomic charges =    -1.000000
  Sum of spin   charges =     1.000000

 -----------------------------------------------------------------
                    Cartesian Multipole Moments
 -----------------------------------------------------------------
    Charge (ESU x 10^10)
                -4.8032
    Dipole Moment (Debye)
         X       0.0010      Y      -0.0003      Z       1.6445
       Tot       1.6445
    Quadrupole Moments (Debye-Ang)
        XX     -25.6599     XY       0.0002     YY     -25.6594
        XZ      -0.0001     YZ       0.0002     ZZ     -25.7793
    Octapole Moments (Debye-Ang^2)
       XXX      -0.8711    XXY      -0.0011    XYY       0.8800
       YYY      -0.0034    XXZ      10.8598    XYZ      -0.0001
       YYZ      10.8596    XZZ       0.0020    YZZ      -0.0011
       ZZZ      29.0537
    Hexadecapole Moments (Debye-Ang^3)
      XXXX    -190.8641   XXXY       0.0014   XXYY     -63.6207
      XYYY       0.0015   YYYY    -190.8597   XXXZ       0.3273
      XXYZ       0.0006   XYYZ      -0.3278   YYYZ       0.0020
      XXZZ     -59.3256   XYZZ       0.0005   YYZZ     -59.3248
      XZZZ      -0.0004   YZZZ       0.0018   ZZZZ    -163.5268
 -----------------------------------------------------------------
 Total job time:  13.22s(wall), 9.13s(cpu) 
 Wed Apr 24 14:55:44 2013

        *************************************************************
        *                                                           *
        *  Thank you very much for using Q-Chem.  Have a nice day.  *
        *                                                           *
        *************************************************************


0 sent ACK to 0 
now end server 0 ... 
 
**********************************************************************
Job 2 of 3 
**********************************************************************
 
Process 0 of 1 is on cl247.stfx.acenet.ca - thread support 1
initial socket setup ...start
initial socket setup ...done 
now start server 0 ... 

cmd = /usr/bin/ssh clhead /usr/local/qchem/bin/get_hostid 2020207464 > /scratch/tmp/5954006.1.long.q/qchem27465/lic.dat
                  Welcome to Q-Chem
     A Quantum Leap Into The Future Of Chemistry

 Y. Shao, L. Fusti-Molnar, Y. Jung, J. Kussmann, C. Ochsenfeld,
 S. T. Brown, A. T. B. Gilbert, L. V. Slipchenko,S. V. Levchenko,
 D. P. O'Neill, R. A. DiStasio Jr., R. C. Lochan, T. Wang,
 G. J. O. Beran, N. A. Besley, J. M. Herbert, C. Y. Lin,
 T. Van Voorhis, S. H. Chien, A. Sodt, R. P. Steele, 
 V. A. Rassolov, P. E. Maslen, P. P. Korambath, R. D. Adamson,
 B. Austin, J. Baker, E. F. C. Byrd, H. Dachsel, R. J. Doerksen,
 A. Dreuw, B. D. Dunietz, A. D. Dutoi, T. R. Furlani,
 S. R. Gwaltney, A. Heyden, S. Hirata, C.-P. Hsu, G. Kedziora,
 R. Z. Khaliullin, P. Klunzinger, A. M. Lee, M. S. Lee, W. Liang,
 I. Lotan, N. Nair, B. Peters, E. I. Proynov, P. A. Pieniazek, 
 Y. M. Rhee, J. Ritchie, E. Rosta, C. D. Sherrill, 
 A. C. Simmonett, J. E. Subotnik, H. L. Woodcock III,
 W. Zhang, A. T. Bell, A. K. Chakraborty, D. M. Chipman,
 F. J. Keil, A. Warshel, W. J. Hehre, H. F. Schaefer III,
 J. Kong, A. I. Krylov, P. M. W. Gill, M. Head-Gordon,
 Q-Chem, Version 3.1, Q-Chem, Inc., Pittsburgh, PA (2007).

 Additional authors for Version 3.1: 
 Z. Gan, Y. Zhao, N. E. Schultz, D. Truhlar, E. Epifanovsky and M. Oana.

 Additional authors for Version 3.2: 
 R. Baer, B. R. Brooks, D. Casanova, J.-D. Chai, C.-L. Cheng, 
 C. Cramer, D. Crittenden, A. Ghysels, G. Hawkins, E. G. Hohenstein, 
 C. Kelley, W. Kurlancheek, D. Liotard, E. Livshits, P. Manohar, 
 A. Marenich, D. Neuhauser, R. Olson, M. A. Rohrdanz, K. S. Thanthiriwatte, 
 A. J. W. Thom, V. Vanovschi, C. F. Williams, Q. Wu and Z.-Q. You. 


 Intel X86 Linux Version

 Q-chem begins on Wed Apr 24 14:55:47 2013  

 Parallel job on  1  processors
Processing $rem in /usr/local/qchem/config/preferences.

theFileMan(): MAXOPENFILES=974 MAX_SUB_FILE_NUM=16
Maximum size of a physical file is 2.0 GB, maximum size of a tmp-file is 32.0 GB


--------------------------------------------------------------
User input:
--------------------------------------------------------------

$molecule
0,1
N
X,1,1.
H,1,RNH,2,XNH
H,1,RNH,2,XNH,3,120.,0
H,1,RNH,2,XNH,3,240.,0

RNH=1.01940056
XNH=112.97687284

$end

$comment
neutral
$end

$xc_functional
C PBE   1.00
X wPBE  1.00
$end


$rem
SYMMETRY_DECOMPOSITION	0
LRC_DFT                 true
exchange 		general
BASIS                   g3large
omega			1000
mem_static              760
max_scf_cycles          200
scf_final_print         1
sym_ignore              true
$end

--------------------------------------------------------------
 Writing REM_CC_EA            4
 ----------------------------------------------------
       Standard Nuclear Orientation (Angstroms)
    I     Atom         X            Y            Z
 ----------------------------------------------------
    1      N       0.000000     0.000000     0.000000
    2      H       0.938524     0.000000    -0.397933
    3      H      -0.469262    -0.812786    -0.397933
    4      H      -0.469262     0.812786    -0.397933
 ----------------------------------------------------
 Nuclear Repulsion Energy =    11.8778308043 hartrees
 There are        5 alpha and        5 beta electrons
 Requested basis set is G3large
 There are 28 shells and 72 basis functions

Total QAlloc Memory Limit   2000 MB
Mega-Array Size       743 MB
MEM_STATIC part       760 MB

                       Distance Matrix (Angstroms)
             N (  1)   H (  2)   H (  3)
   H (  2)  1.019401
   H (  3)  1.019401  1.625571
   H (  4)  1.019401  1.625571  1.625571
 
 A cutoff of  1.0D-08 yielded    406 shell pairs
 There are   2724 function pairs (  3216 Cartesian)
Evaluating contribution to one-electron hamiltonian from nuclear
 Smallest overlap matrix eigenvalue = 1.65E-03
 Multipole matrices computed through 2nd order

  Scale SEOQF with 1.000000e-01/1.000000e-01/1.000000e-01

 Standard Electronic Orientation quadrupole field applied
 Guess from superposition of atomic densities
 Warning:  Energy on first SCF cycle will be non-variational
 Long-range K will be added via erf
 Coulomb attenuation parameter = 1 bohr**(-1)
 A restricted Kohn-Sham SCF calculation will be
 performed using Pulay DIIS extrapolation
 Exchange:  wPBE + LR-HF      Correlation:  PBE
 Using SG-1 standard quadrature grid
 SCF converges when DIIS error is below 1.0E-05
 Requested basis set is G3large
 There are 28 shells and 72 basis functions
 A cutoff of  1.0D-08 yielded    406 shell pairs
 There are   2724 function pairs (  3216 Cartesian)
 ---------------------------------------
  Cycle       Energy         DIIS Error
 ---------------------------------------
    1     -56.4918920384      5.09E-02
    2     -56.5187908302      6.82E-03
    3     -56.5389653747      3.78E-03
    4     -56.5458308356      4.37E-04
    5     -56.5459929929      9.77E-05
    6     -56.5460078365      2.22E-05
    7     -56.5460089378      5.06E-06 Convergence criterion met
 ---------------------------------------
 One-Electron    Energy =   -99.6491385963
 Total Coulomb   Energy =    39.2310351745
 Alpha Exchange  Energy =    -1.8442958569
 Beta  Exchange  Energy =    -1.8442958569
 DFT   Exchange  Energy =    -3.9994933269
 DFT Correlation Energy =    -0.3176512797
 Nuclear Repu.   Energy =    11.8778308044
 Nuclear Attr.   Energy =  -155.9149731745
 Kinetic         Energy =    56.2658345782
 SCF time:  CPU 6.78 s  wall 9.60 s
 Final Alpha MO Eigenvalues
            1           2           3           4           5           6
    1 -14.4842354  -1.1370149  -0.6486029  -0.6486014  -0.4564820   0.0414331
            7           8           9          10
    1   0.0721759   0.0721761   0.1736177   0.2136755
 Analysis of SCF Wavefunction
 
 --------------------------------------------------------------
                    Orbital Energies (a.u.)
 --------------------------------------------------------------
 
 Alpha MOs
 -- Occupied --
-14.484  -1.137  -0.649  -0.649  -0.456
 -- Virtual --
  0.041   0.072   0.072   0.174   0.214   0.214   0.234   0.289
  0.289   0.309   0.606   0.606   0.700   0.700   0.766   0.793
  0.852   0.852   1.017   1.070   1.165   1.165   1.250   1.462
  1.462   1.597   1.723   1.723   1.808   1.992   1.992   2.743
  2.743   2.840   3.553   3.640   3.640   3.795   3.809   3.809
  3.970   3.970   4.075   4.302   4.645   4.645   4.686   4.940
  4.940   4.983   5.287   5.377   5.377   5.690   5.690   5.839
  6.714   6.714  35.873  37.905  38.506  38.506  40.892  40.925
 40.993  41.070  41.101
 --------------------------------------------------------------
 
          Ground-State Mulliken Net Atomic Charges

     Atom                 Charge (a.u.)
  ----------------------------------------
      1 N                    -0.462236
      2 H                     0.154090
      3 H                     0.154070
      4 H                     0.154076
  ----------------------------------------
  Sum of atomic charges =     0.000000

 -----------------------------------------------------------------
                    Cartesian Multipole Moments
 -----------------------------------------------------------------
    Charge (ESU x 10^10)
                 0.0000
    Dipole Moment (Debye)
         X       0.0000      Y       0.0000      Z      -1.7727
       Tot       1.7727
    Quadrupole Moments (Debye-Ang)
        XX      -6.0640     XY       0.0000     YY      -6.0640
        XZ       0.0000     YZ       0.0000     ZZ      -8.6422
    Octapole Moments (Debye-Ang^2)
       XXX       1.0286    XXY       0.0000    XYY      -1.0285
       YYY       0.0000    XXZ      -0.3097    XYZ       0.0000
       YYZ      -0.3097    XZZ       0.0000    YZZ       0.0000
       ZZZ       1.5420
    Hexadecapole Moments (Debye-Ang^3)
      XXXX      -9.4938   XXXY       0.0000   XXYY      -3.1646
      XYYY       0.0000   YYYY      -9.4938   XXXZ      -0.5388
      XXYZ       0.0000   XYYZ       0.5388   YYYZ       0.0000
      XXZZ      -3.4832   XYZZ       0.0000   YYZZ      -3.4832
      XZZZ       0.0000   YZZZ       0.0000   ZZZZ     -11.8481
 -----------------------------------------------------------------
 Total job time:  9.71s(wall), 6.85s(cpu) 
 Wed Apr 24 14:55:57 2013

        *************************************************************
        *                                                           *
        *  Thank you very much for using Q-Chem.  Have a nice day.  *
        *                                                           *
        *************************************************************


0 sent ACK to 0 
now end server 0 ... 
 
**********************************************************************
Job 3 of 3 
**********************************************************************
 
Process 0 of 1 is on cl247.stfx.acenet.ca - thread support 1
initial socket setup ...start
initial socket setup ...done 
now start server 0 ... 

cmd = /usr/bin/ssh clhead /usr/local/qchem/bin/get_hostid 214226659 > /scratch/tmp/5954006.1.long.q/qchem27465/lic.dat
                  Welcome to Q-Chem
     A Quantum Leap Into The Future Of Chemistry

 Y. Shao, L. Fusti-Molnar, Y. Jung, J. Kussmann, C. Ochsenfeld,
 S. T. Brown, A. T. B. Gilbert, L. V. Slipchenko,S. V. Levchenko,
 D. P. O'Neill, R. A. DiStasio Jr., R. C. Lochan, T. Wang,
 G. J. O. Beran, N. A. Besley, J. M. Herbert, C. Y. Lin,
 T. Van Voorhis, S. H. Chien, A. Sodt, R. P. Steele, 
 V. A. Rassolov, P. E. Maslen, P. P. Korambath, R. D. Adamson,
 B. Austin, J. Baker, E. F. C. Byrd, H. Dachsel, R. J. Doerksen,
 A. Dreuw, B. D. Dunietz, A. D. Dutoi, T. R. Furlani,
 S. R. Gwaltney, A. Heyden, S. Hirata, C.-P. Hsu, G. Kedziora,
 R. Z. Khaliullin, P. Klunzinger, A. M. Lee, M. S. Lee, W. Liang,
 I. Lotan, N. Nair, B. Peters, E. I. Proynov, P. A. Pieniazek, 
 Y. M. Rhee, J. Ritchie, E. Rosta, C. D. Sherrill, 
 A. C. Simmonett, J. E. Subotnik, H. L. Woodcock III,
 W. Zhang, A. T. Bell, A. K. Chakraborty, D. M. Chipman,
 F. J. Keil, A. Warshel, W. J. Hehre, H. F. Schaefer III,
 J. Kong, A. I. Krylov, P. M. W. Gill, M. Head-Gordon,
 Q-Chem, Version 3.1, Q-Chem, Inc., Pittsburgh, PA (2007).

 Additional authors for Version 3.1: 
 Z. Gan, Y. Zhao, N. E. Schultz, D. Truhlar, E. Epifanovsky and M. Oana.

 Additional authors for Version 3.2: 
 R. Baer, B. R. Brooks, D. Casanova, J.-D. Chai, C.-L. Cheng, 
 C. Cramer, D. Crittenden, A. Ghysels, G. Hawkins, E. G. Hohenstein, 
 C. Kelley, W. Kurlancheek, D. Liotard, E. Livshits, P. Manohar, 
 A. Marenich, D. Neuhauser, R. Olson, M. A. Rohrdanz, K. S. Thanthiriwatte, 
 A. J. W. Thom, V. Vanovschi, C. F. Williams, Q. Wu and Z.-Q. You. 


 Intel X86 Linux Version

 Q-chem begins on Wed Apr 24 14:56:00 2013  

 Parallel job on  1  processors
Processing $rem in /usr/local/qchem/config/preferences.

theFileMan(): MAXOPENFILES=974 MAX_SUB_FILE_NUM=16
Maximum size of a physical file is 2.0 GB, maximum size of a tmp-file is 32.0 GB


--------------------------------------------------------------
User input:
--------------------------------------------------------------

$molecule
1,2
N
X,1,1.
H,1,RNH,2,XNH
H,1,RNH,2,XNH,3,120.,0
H,1,RNH,2,XNH,3,240.,0

RNH=1.01940056
XNH=112.97687284

$end

$comment
positive
$end

$xc_functional
C PBE   1.00
X wPBE  1.00
$end

$rem
SYMMETRY_DECOMPOSITION	0
LRC_DFT                 true
exchange 		general
BASIS                   g3large
omega			1000
mem_static              760
max_scf_cycles          200
scf_final_print         1
sym_ignore              true
$end

--------------------------------------------------------------
 Writing REM_CC_EA            4
 ----------------------------------------------------
       Standard Nuclear Orientation (Angstroms)
    I     Atom         X            Y            Z
 ----------------------------------------------------
    1      N       0.000000     0.000000     0.000000
    2      H       0.938524     0.000000    -0.397933
    3      H      -0.469262    -0.812786    -0.397933
    4      H      -0.469262     0.812786    -0.397933
 ----------------------------------------------------
 Nuclear Repulsion Energy =    11.8778308043 hartrees
 There are        5 alpha and        4 beta electrons
 Requested basis set is G3large
 There are 28 shells and 72 basis functions

Total QAlloc Memory Limit   2000 MB
Mega-Array Size       743 MB
MEM_STATIC part       760 MB

                       Distance Matrix (Angstroms)
             N (  1)   H (  2)   H (  3)
   H (  2)  1.019401
   H (  3)  1.019401  1.625571
   H (  4)  1.019401  1.625571  1.625571
 
 A cutoff of  1.0D-08 yielded    406 shell pairs
 There are   2724 function pairs (  3216 Cartesian)
Evaluating contribution to one-electron hamiltonian from nuclear
 Smallest overlap matrix eigenvalue = 1.65E-03
 Multipole matrices computed through 2nd order

  Scale SEOQF with 1.000000e-01/1.000000e-01/1.000000e-01

 Standard Electronic Orientation quadrupole field applied
 Guess from superposition of atomic densities
 Warning:  Energy on first SCF cycle will be non-variational
 Long-range K will be added via erf
 Coulomb attenuation parameter = 1 bohr**(-1)
 An unrestricted Kohn-Sham SCF calculation will be
 performed using Pulay DIIS extrapolation
 Exchange:  wPBE + LR-HF      Correlation:  PBE
 Using SG-1 standard quadrature grid
 SCF converges when DIIS error is below 1.0E-05
 Requested basis set is G3large
 There are 28 shells and 72 basis functions
 A cutoff of  1.0D-08 yielded    406 shell pairs
 There are   2724 function pairs (  3216 Cartesian)
 Warning!  Inaccurate integrated density:
   Number of electrons =     9
   Numerical integral  =     9.999983513912
   Relative error      =    11.1109279324 %
 ---------------------------------------
  Cycle       Energy         DIIS Error
 ---------------------------------------
    1     -56.4918920384      5.09E-02
    2     -56.1002847642      7.10E-03
    3     -56.1445295095      3.48E-03
    4     -56.1504706497      4.90E-04
    5     -56.1509812966      1.17E-04
    6     -56.1510577532      4.35E-05
    7     -56.1510787730      1.18E-05
    8     -56.1510830895      2.85E-06 Convergence criterion met
 ---------------------------------------
 One-Electron    Energy =   -95.4529781879
 Total Coulomb   Energy =    35.1282512609
 Alpha Exchange  Energy =    -1.9161234147
 Beta  Exchange  Energy =    -1.5384890152
 DFT   Exchange  Energy =    -3.9721989905
 DFT Correlation Energy =    -0.2773755465
 Nuclear Repu.   Energy =    11.8778308044
 Nuclear Attr.   Energy =  -151.4542933887
 Kinetic         Energy =    56.0013152008
 <S^2> = 0.7545
 SCF time:  CPU 9.00 s  wall 11.30 s
 Final Alpha MO Eigenvalues
            1           2           3           4           5           6
    1 -14.9608956  -1.5844333  -1.0660107  -1.0660055  -0.9820404  -0.1560199
            7           8           9          10
    1  -0.0963289  -0.0963286  -0.0519896  -0.0187348
 Final Beta MO Eigenvalues
            1           2           3           4           5           6
    1 -14.9391482  -1.4983556  -1.0423479  -1.0423421  -0.3417255  -0.1511748
            7           8           9
    1  -0.0934839  -0.0934834  -0.0241648
 Analysis of SCF Wavefunction
 
 --------------------------------------------------------------
                    Orbital Energies (a.u.)
 --------------------------------------------------------------
 
 Alpha MOs
 -- Occupied --
-14.961  -1.584  -1.066  -1.066  -0.982
 -- Virtual --
 -0.156  -0.096  -0.096  -0.052  -0.019  -0.019   0.009   0.047
  0.047   0.068   0.309   0.309   0.368   0.368   0.448   0.472
  0.542   0.542   0.660   0.763   0.847   0.847   0.888   1.121
  1.121   1.239   1.340   1.340   1.443   1.625   1.625   2.367
  2.367   2.478   3.172   3.219   3.219   3.362   3.418   3.418
  3.568   3.568   3.614   3.882   4.231   4.231   4.277   4.530
  4.530   4.585   4.793   4.904   4.904   5.235   5.235   5.417
  6.298   6.299  35.399  37.410  38.040  38.040  40.394  40.459
 40.517  40.587  40.628
 
 Beta MOs
 -- Occupied --
-14.939  -1.498  -1.042  -1.042
 -- Virtual --
 -0.342  -0.151  -0.093  -0.093  -0.024  -0.013  -0.013   0.015
  0.053   0.053   0.078   0.312   0.312   0.393   0.393   0.479
  0.512   0.552   0.552   0.707   0.762   0.855   0.855   0.927
  1.134   1.134   1.272   1.372   1.372   1.471   1.644   1.644
  2.377   2.377   2.482   3.174   3.251   3.251   3.400   3.430
  3.430   3.586   3.586   3.676   3.922   4.254   4.254   4.301
  4.547   4.547   4.593   4.883   4.963   4.963   5.281   5.281
  5.446   6.317   6.317  35.422  37.456  38.053  38.053  40.444
 40.472  40.540  40.618  40.648
 --------------------------------------------------------------
 
          Ground-State Mulliken Net Atomic Charges

     Atom                 Charge (a.u.)    Spin (a.u.)
  --------------------------------------------------------
      1 N                     0.302350       1.054246
      2 H                     0.232560      -0.018085
      3 H                     0.232543      -0.018087
      4 H                     0.232547      -0.018074
  --------------------------------------------------------
  Sum of atomic charges =     1.000000
  Sum of spin   charges =     1.000000

 -----------------------------------------------------------------
                    Cartesian Multipole Moments
 -----------------------------------------------------------------
    Charge (ESU x 10^10)
                 4.8032
    Dipole Moment (Debye)
         X       0.0000      Y       0.0000      Z      -1.7623
       Tot       1.7623
    Quadrupole Moments (Debye-Ang)
        XX      -3.4823     XY       0.0000     YY      -3.4823
        XZ       0.0000     YZ       0.0000     ZZ      -4.7516
    Octapole Moments (Debye-Ang^2)
       XXX       1.4955    XXY       0.0000    XYY      -1.4955
       YYY       0.0000    XXZ      -0.7297    XYZ       0.0000
       YYZ      -0.7297    XZZ       0.0000    YZZ       0.0000
       ZZZ       1.1684
    Hexadecapole Moments (Debye-Ang^3)
      XXXX      -5.0020   XXXY       0.0000   XXYY      -1.6673
      XYYY       0.0000   YYYY      -5.0020   XXXZ      -0.7371
      XXYZ       0.0000   XYYZ       0.7371   YYYZ       0.0000
      XXZZ      -1.4676   XYZZ       0.0000   YYZZ      -1.4676
      XZZZ       0.0000   YZZZ       0.0000   ZZZZ      -4.7706
 -----------------------------------------------------------------
 Total job time:  11.42s(wall), 9.07s(cpu) 
 Wed Apr 24 14:56:11 2013

        *************************************************************
        *                                                           *
        *  Thank you very much for using Q-Chem.  Have a nice day.  *
        *                                                           *
        *************************************************************


0 sent ACK to 0 
now end server 0 ... 
