Process 0 of 1 is on cl217.stfx.acenet.ca - thread support 1
initial socket setup ...start
initial socket setup ...done 
now start server 0 ... 

cmd = /usr/bin/ssh clhead /usr/local/qchem/bin/get_hostid 1687458665 > /globalscratch/itamblyn/bnl/g297_b3lyp_neut_g03Large/g2g71016/omega100/qchem23058/lic.dat
                  Welcome to Q-Chem
     A Quantum Leap Into The Future Of Chemistry

 Y. Shao, L. Fusti-Molnar, Y. Jung, J. Kussmann, C. Ochsenfeld,
 S. T. Brown, A. T. B. Gilbert, L. V. Slipchenko,S. V. Levchenko,
 D. P. O'Neill, R. A. DiStasio Jr., R. C. Lochan, T. Wang,
 G. J. O. Beran, N. A. Besley, J. M. Herbert, C. Y. Lin,
 T. Van Voorhis, S. H. Chien, A. Sodt, R. P. Steele, 
 V. A. Rassolov, P. E. Maslen, P. P. Korambath, R. D. Adamson,
 B. Austin, J. Baker, E. F. C. Byrd, H. Dachsel, R. J. Doerksen,
 A. Dreuw, B. D. Dunietz, A. D. Dutoi, T. R. Furlani,
 S. R. Gwaltney, A. Heyden, S. Hirata, C.-P. Hsu, G. Kedziora,
 R. Z. Khaliullin, P. Klunzinger, A. M. Lee, M. S. Lee, W. Liang,
 I. Lotan, N. Nair, B. Peters, E. I. Proynov, P. A. Pieniazek, 
 Y. M. Rhee, J. Ritchie, E. Rosta, C. D. Sherrill, 
 A. C. Simmonett, J. E. Subotnik, H. L. Woodcock III,
 W. Zhang, A. T. Bell, A. K. Chakraborty, D. M. Chipman,
 F. J. Keil, A. Warshel, W. J. Hehre, H. F. Schaefer III,
 J. Kong, A. I. Krylov, P. M. W. Gill, M. Head-Gordon,
 Q-Chem, Version 3.1, Q-Chem, Inc., Pittsburgh, PA (2007).

 Additional authors for Version 3.1: 
 Z. Gan, Y. Zhao, N. E. Schultz, D. Truhlar, E. Epifanovsky and M. Oana.

 Additional authors for Version 3.2: 
 R. Baer, B. R. Brooks, D. Casanova, J.-D. Chai, C.-L. Cheng, 
 C. Cramer, D. Crittenden, A. Ghysels, G. Hawkins, E. G. Hohenstein, 
 C. Kelley, W. Kurlancheek, D. Liotard, E. Livshits, P. Manohar, 
 A. Marenich, D. Neuhauser, R. Olson, M. A. Rohrdanz, K. S. Thanthiriwatte, 
 A. J. W. Thom, V. Vanovschi, C. F. Williams, Q. Wu and Z.-Q. You. 


 Intel X86 Linux Version

 Q-chem begins on Mon Apr 11 17:39:59 2011  

 Parallel job on  1  processors
Processing $rem in /usr/local/qchem/config/preferences.

theFileMan(): MAXOPENFILES=974 MAX_SUB_FILE_NUM=16
Maximum size of a physical file is 2.0 GB, maximum size of a tmp-file is 32.0 GB


--------------------------------------------------------------
User input:
--------------------------------------------------------------

$molecule
-1,2
Si
H,1,R
H,1,R,2,109.471221
H,1,R,2,109.471221,3,120.,0
H,1,R,2,109.471221,3,-120.,0

 R=1.48598655

$end

$comment
negative
$end

$xc_functional
   X HF 1.0
   X BNL 1.0
   C LYP 1.0
$end

$rem
SYMMETRY_DECOMPOSITION	0
exchange 		general
BASIS                   g3large
omega			100
separate_jk		true
mem_static              760
max_scf_cycles          200
scf_final_print         1
sym_ignore              true
$end

--------------------------------------------------------------
 Writing REM_CC_EA            5
 ----------------------------------------------------
       Standard Nuclear Orientation (Angstroms)
    I     Atom         X            Y            Z
 ----------------------------------------------------
    1      Si      0.000000     0.000000     0.000000
    2      H       0.000000     0.000000     1.485987
    3      H       1.401002     0.000000    -0.495329
    4      H      -0.700501    -1.213303    -0.495329
    5      H      -0.700501     1.213303    -0.495329
 ----------------------------------------------------
 Nuclear Repulsion Energy =    21.2506937090 hartrees
 There are       10 alpha and        9 beta electrons
 Requested basis set is G3large
 There are 43 shells and 106 basis functions

Total QAlloc Memory Limit   2000 MB
Mega-Array Size       743 MB
MEM_STATIC part       760 MB

                       Distance Matrix (Angstroms)
             Si(  1)   H (  2)   H (  3)   H (  4)
   H (  2)  1.485987
   H (  3)  1.485987  2.426606
   H (  4)  1.485987  2.426606  2.426606
   H (  5)  1.485987  2.426606  2.426606  2.426606
 
 A cutoff of  1.0D-08 yielded    946 shell pairs
 There are   5819 function pairs (  7380 Cartesian)
Evaluating contribution to one-electron hamiltonian from nuclear
 Smallest overlap matrix eigenvalue = 8.07E-04
 Multipole matrices computed through 2nd order

  Scale SEOQF with 1.000000e-01/1.000000e-01/1.000000e-01

 Standard Electronic Orientation quadrupole field applied
 Guess from superposition of atomic densities
 Warning:  Energy on first SCF cycle will be non-variational
 An unrestricted hybrid HF-DFT SCF calculation will be
 performed using Pulay DIIS extrapolation
 Exchange:     1.0000 Hartree-Fock + 1.0000 BNL
 Correlation:  1.0000 LYP
 Using SG-1 standard quadrature grid
 SCF converges when DIIS error is below 1.0E-05
 Warning!  Inaccurate integrated density:
   Number of electrons =    19
   Numerical integral  =    17.999844606031
   Relative error      =    -5.2639757577 %
 ---------------------------------------
  Cycle       Energy         DIIS Error
 ---------------------------------------
    1    -289.9572635899      2.93E-02
    2    -290.0089312078      3.31E-03
    3    -290.0516256564      2.72E-03
    4    -290.0691262896      5.41E-04
    5    -290.0714597664      2.22E-04
    6    -290.0734573669      1.11E-04
    7    -290.0746643910      6.83E-05
    8    -290.0752008666      3.46E-05
    9    -290.0753548537      1.42E-05
   10    -290.0753661035      4.69E-06 Convergence criterion met
 ---------------------------------------
 One-Electron    Energy =  -448.3007598963
 Total Coulomb   Energy =   157.5627903546
 Alpha Exchange  Energy =    -0.5457707531
 Beta  Exchange  Energy =    -0.5020271042
 DFT   Exchange  Energy =   -18.8828712972
 DFT Correlation Energy =    -0.6574211163
 Nuclear Repu.   Energy =    21.2506937090
 Nuclear Attr.   Energy =  -738.0869533506
 Kinetic         Energy =   289.7861934543
 <S^2> = 0.7502
 SCF time:  CPU 29.90 s  wall 61.87 s
 Final Alpha MO Eigenvalues
            1           2           3           4           5           6
    1 -64.9537301  -4.8842041  -3.3238221  -3.3238013  -3.3237941  -0.3891644
            7           8           9          10          11          12
    1  -0.2032283  -0.2031803  -0.2031328   0.0448015   0.1579583   0.1579941
           13          14          15
    1   0.1580185   0.1709267   0.1709557
 Final Beta MO Eigenvalues
            1           2           3           4           5           6
    1 -64.9531041  -4.8835038  -3.3231090  -3.3230867  -3.3230804  -0.3876223
            7           8           9          10          11          12
    1  -0.2015366  -0.2014843  -0.2014346   0.1349103   0.1635738   0.1636265
           13          14
    1   0.1637005   0.1780907
 Analysis of SCF Wavefunction
 
 --------------------------------------------------------------
                    Orbital Energies (a.u.)
 --------------------------------------------------------------
 
 Alpha MOs
 -- Occupied --
-64.954  -4.884  -3.324  -3.324  -3.324  -0.389  -0.203  -0.203
 -0.203   0.045
 -- Virtual --
  0.158   0.158   0.158   0.171   0.171   0.171   0.251   0.251
  0.251   0.252   0.295   0.295   0.295   0.414   0.414   0.414
  0.476   0.476   0.476   0.543   0.608   0.608   0.608   0.621
  0.621   0.621   0.695   0.826   0.826   0.826   0.832   0.832
  0.951   0.951   0.951   0.960   1.178   1.178   1.178   1.276
  1.276   1.313   1.313   1.313   1.418   1.454   1.454   1.454
  1.643   1.643   1.644   2.247   2.247   2.247   2.311   2.311
  2.311   2.500   2.927   2.927   2.927   3.172   3.635   3.637
  3.896   3.897   3.899   4.129   4.129   4.202   4.202   4.202
  4.220   4.220   4.220   4.501   4.623   4.623   4.624   6.113
 11.435  11.436  11.436  17.593  17.684  17.762  17.853  17.942
 22.253  22.259  22.265  22.272  22.281  22.282  22.309 141.425
 
 Beta MOs
 -- Occupied --
-64.953  -4.884  -3.323  -3.323  -3.323  -0.388  -0.202  -0.201
 -0.201
 -- Virtual --
  0.135   0.164   0.164   0.164   0.178   0.178   0.178   0.252
  0.252   0.252   0.255   0.297   0.297   0.298   0.416   0.416
  0.416   0.480   0.481   0.481   0.546   0.610   0.610   0.610
  0.622   0.622   0.622   0.697   0.828   0.828   0.828   0.835
  0.835   0.954   0.954   0.954   0.961   1.179   1.179   1.179
  1.278   1.278   1.315   1.315   1.315   1.422   1.456   1.456
  1.456   1.647   1.647   1.647   2.249   2.249   2.249   2.313
  2.313   2.313   2.502   2.927   2.927   2.927   3.172   3.637
  3.638   3.897   3.898   3.900   4.129   4.129   4.202   4.202
  4.202   4.220   4.221   4.221   4.502   4.624   4.625   4.626
  6.114  11.436  11.436  11.436  17.594  17.685  17.763  17.854
 17.943  22.254  22.260  22.266  22.273  22.281  22.283  22.309
141.426
 --------------------------------------------------------------
 
          Ground-State Mulliken Net Atomic Charges

     Atom                 Charge (a.u.)    Spin (a.u.)
  --------------------------------------------------------
      1 Si                    4.534268      -4.434994
      2 H                    -1.384764       1.360422
      3 H                    -1.385216       1.360257
      4 H                    -1.380090       1.354590
      5 H                    -1.384198       1.359726
  --------------------------------------------------------
  Sum of atomic charges =    -1.000000
  Sum of spin   charges =     1.000000

 -----------------------------------------------------------------
                    Cartesian Multipole Moments
 -----------------------------------------------------------------
    Charge (ESU x 10^10)
                -4.8032
    Dipole Moment (Debye)
         X       0.0112      Y      -0.0361      Z      -0.0270
       Tot       0.0464
    Quadrupole Moments (Debye-Ang)
        XX     -40.8976     XY       0.0190     YY     -40.8504
        XZ       0.0171     YZ       0.0133     ZZ     -40.8905
    Octapole Moments (Debye-Ang^2)
       XXX     -12.8688    XXY      -0.1431    XYY      13.0248
       YYY      -0.4288    XXZ       9.0955    XYZ      -0.0084
       YYZ       9.0642    XZZ       0.0502    YZZ      -0.1370
       ZZZ     -18.6875
    Hexadecapole Moments (Debye-Ang^3)
      XXXX    -321.9983   XXXY       0.1295   XXYY    -107.2199
      XYYY       0.2312   YYYY    -321.2418   XXXZ       6.3844
      XXYZ       0.0542   XYYZ      -6.2128   YYYZ       0.1624
      XXZZ    -102.8567   XYZZ       0.0516   YYZZ    -102.7274
      XZZZ       0.1462   YZZZ       0.0725   ZZZZ    -326.4385
 -----------------------------------------------------------------
 Total job time:  64.56s(wall), 30.01s(cpu) 
 Mon Apr 11 17:41:04 2011

        *************************************************************
        *                                                           *
        *  Thank you very much for using Q-Chem.  Have a nice day.  *
        *                                                           *
        *************************************************************


0 sent ACK to 0 
now end server 0 ... 
 
**********************************************************************
Job 2 of 3 
**********************************************************************
 
Process 0 of 1 is on cl217.stfx.acenet.ca - thread support 1
initial socket setup ...start
initial socket setup ...done 
now start server 0 ... 

cmd = /usr/bin/ssh clhead /usr/local/qchem/bin/get_hostid 335176525 > /globalscratch/itamblyn/bnl/g297_b3lyp_neut_g03Large/g2g71016/omega100/qchem23058/lic.dat
                  Welcome to Q-Chem
     A Quantum Leap Into The Future Of Chemistry

 Y. Shao, L. Fusti-Molnar, Y. Jung, J. Kussmann, C. Ochsenfeld,
 S. T. Brown, A. T. B. Gilbert, L. V. Slipchenko,S. V. Levchenko,
 D. P. O'Neill, R. A. DiStasio Jr., R. C. Lochan, T. Wang,
 G. J. O. Beran, N. A. Besley, J. M. Herbert, C. Y. Lin,
 T. Van Voorhis, S. H. Chien, A. Sodt, R. P. Steele, 
 V. A. Rassolov, P. E. Maslen, P. P. Korambath, R. D. Adamson,
 B. Austin, J. Baker, E. F. C. Byrd, H. Dachsel, R. J. Doerksen,
 A. Dreuw, B. D. Dunietz, A. D. Dutoi, T. R. Furlani,
 S. R. Gwaltney, A. Heyden, S. Hirata, C.-P. Hsu, G. Kedziora,
 R. Z. Khaliullin, P. Klunzinger, A. M. Lee, M. S. Lee, W. Liang,
 I. Lotan, N. Nair, B. Peters, E. I. Proynov, P. A. Pieniazek, 
 Y. M. Rhee, J. Ritchie, E. Rosta, C. D. Sherrill, 
 A. C. Simmonett, J. E. Subotnik, H. L. Woodcock III,
 W. Zhang, A. T. Bell, A. K. Chakraborty, D. M. Chipman,
 F. J. Keil, A. Warshel, W. J. Hehre, H. F. Schaefer III,
 J. Kong, A. I. Krylov, P. M. W. Gill, M. Head-Gordon,
 Q-Chem, Version 3.1, Q-Chem, Inc., Pittsburgh, PA (2007).

 Additional authors for Version 3.1: 
 Z. Gan, Y. Zhao, N. E. Schultz, D. Truhlar, E. Epifanovsky and M. Oana.

 Additional authors for Version 3.2: 
 R. Baer, B. R. Brooks, D. Casanova, J.-D. Chai, C.-L. Cheng, 
 C. Cramer, D. Crittenden, A. Ghysels, G. Hawkins, E. G. Hohenstein, 
 C. Kelley, W. Kurlancheek, D. Liotard, E. Livshits, P. Manohar, 
 A. Marenich, D. Neuhauser, R. Olson, M. A. Rohrdanz, K. S. Thanthiriwatte, 
 A. J. W. Thom, V. Vanovschi, C. F. Williams, Q. Wu and Z.-Q. You. 


 Intel X86 Linux Version

 Q-chem begins on Mon Apr 11 17:41:08 2011  

 Parallel job on  1  processors
Processing $rem in /usr/local/qchem/config/preferences.

theFileMan(): MAXOPENFILES=974 MAX_SUB_FILE_NUM=16
Maximum size of a physical file is 2.0 GB, maximum size of a tmp-file is 32.0 GB


--------------------------------------------------------------
User input:
--------------------------------------------------------------

$molecule
0,1
Si
H,1,R
H,1,R,2,109.471221
H,1,R,2,109.471221,3,120.,0
H,1,R,2,109.471221,3,-120.,0

 R=1.48598655

$end

$comment
neutral
$end

$xc_functional
   X HF 1.0
   X BNL 1.0
   C LYP 1.0
$end

$rem
SYMMETRY_DECOMPOSITION	0
exchange 		general
BASIS                   g3large
omega			100
separate_jk		true
mem_static              760
max_scf_cycles          200
scf_final_print         1
sym_ignore              true
$end

--------------------------------------------------------------
 Writing REM_CC_EA            5
 ----------------------------------------------------
       Standard Nuclear Orientation (Angstroms)
    I     Atom         X            Y            Z
 ----------------------------------------------------
    1      Si      0.000000     0.000000     0.000000
    2      H       0.000000     0.000000     1.485987
    3      H       1.401002     0.000000    -0.495329
    4      H      -0.700501    -1.213303    -0.495329
    5      H      -0.700501     1.213303    -0.495329
 ----------------------------------------------------
 Nuclear Repulsion Energy =    21.2506937090 hartrees
 There are        9 alpha and        9 beta electrons
 Requested basis set is G3large
 There are 43 shells and 106 basis functions

Total QAlloc Memory Limit   2000 MB
Mega-Array Size       743 MB
MEM_STATIC part       760 MB

                       Distance Matrix (Angstroms)
             Si(  1)   H (  2)   H (  3)   H (  4)
   H (  2)  1.485987
   H (  3)  1.485987  2.426606
   H (  4)  1.485987  2.426606  2.426606
   H (  5)  1.485987  2.426606  2.426606  2.426606
 
 A cutoff of  1.0D-08 yielded    946 shell pairs
 There are   5819 function pairs (  7380 Cartesian)
Evaluating contribution to one-electron hamiltonian from nuclear
 Smallest overlap matrix eigenvalue = 8.07E-04
 Multipole matrices computed through 2nd order

  Scale SEOQF with 1.000000e-01/1.000000e-01/1.000000e-01

 Standard Electronic Orientation quadrupole field applied
 Guess from superposition of atomic densities
 Warning:  Energy on first SCF cycle will be non-variational
 A restricted hybrid HF-DFT SCF calculation will be
 performed using Pulay DIIS extrapolation
 Exchange:     1.0000 Hartree-Fock + 1.0000 BNL
 Correlation:  1.0000 LYP
 Using SG-1 standard quadrature grid
 SCF converges when DIIS error is below 1.0E-05
 ---------------------------------------
  Cycle       Energy         DIIS Error
 ---------------------------------------
    1    -289.9572635899      2.93E-02
    2    -290.0997748046      2.02E-03
    3    -290.1075739800      6.74E-04
    4    -290.1085513945      2.13E-04
    5    -290.1086115322      3.39E-05
    6    -290.1086122846      7.05E-06 Convergence criterion met
 ---------------------------------------
 One-Electron    Energy =  -445.5585440326
 Total Coulomb   Energy =   154.6998181771
 Alpha Exchange  Energy =    -0.5021606868
 Beta  Exchange  Energy =    -0.5021606868
 DFT   Exchange  Energy =   -18.8459077978
 DFT Correlation Energy =    -0.6503509667
 Nuclear Repu.   Energy =    21.2506937090
 Nuclear Attr.   Energy =  -735.2393593787
 Kinetic         Energy =   289.6808153461
 SCF time:  CPU 14.51 s  wall 38.50 s
 Final Alpha MO Eigenvalues
            1           2           3           4           5           6
    1 -65.1118798  -5.0413132  -3.4809407  -3.4809189  -3.4809150  -0.5405133
            7           8           9          10          11          12
    1  -0.3530391  -0.3530378  -0.3530315   0.0220767   0.0432451   0.0432490
           13          14
    1   0.0432621   0.0667285
 Analysis of SCF Wavefunction
 
 --------------------------------------------------------------
                    Orbital Energies (a.u.)
 --------------------------------------------------------------
 
 Alpha MOs
 -- Occupied --
-65.112  -5.041  -3.481  -3.481  -3.481  -0.541  -0.353  -0.353
 -0.353
 -- Virtual --
  0.022   0.043   0.043   0.043   0.067   0.067   0.067   0.132
  0.132   0.132   0.142   0.151   0.151   0.166   0.285   0.285
  0.285   0.349   0.349   0.349   0.410   0.463   0.463   0.463
  0.481   0.481   0.481   0.558   0.685   0.685   0.685   0.686
  0.686   0.808   0.808   0.809   0.817   1.032   1.032   1.032
  1.128   1.128   1.167   1.167   1.167   1.275   1.306   1.306
  1.306   1.498   1.498   1.498   2.095   2.095   2.095   2.160
  2.160   2.160   2.350   2.777   2.777   2.777   3.022   3.480
  3.482   3.744   3.745   3.747   3.978   3.978   4.051   4.051
  4.051   4.069   4.069   4.069   4.351   4.471   4.471   4.472
  5.958  11.279  11.279  11.279  17.436  17.527  17.605  17.696
 17.785  22.096  22.102  22.108  22.115  22.124  22.125  22.152
141.267
 --------------------------------------------------------------
 
          Ground-State Mulliken Net Atomic Charges

     Atom                 Charge (a.u.)
  ----------------------------------------
      1 Si                    0.057378
      2 H                    -0.014316
      3 H                    -0.014319
      4 H                    -0.014388
      5 H                    -0.014356
  ----------------------------------------
  Sum of atomic charges =     0.000000

 -----------------------------------------------------------------
                    Cartesian Multipole Moments
 -----------------------------------------------------------------
    Charge (ESU x 10^10)
                 0.0000
    Dipole Moment (Debye)
         X       0.0001      Y       0.0004      Z       0.0001
       Tot       0.0004
    Quadrupole Moments (Debye-Ang)
        XX     -16.9560     XY       0.0004     YY     -16.9562
        XZ       0.0001     YZ       0.0000     ZZ     -16.9559
    Octapole Moments (Debye-Ang^2)
       XXX      -0.4471    XXY       0.0002    XYY       0.4475
       YYY       0.0005    XXZ       0.3163    XYZ       0.0001
       YYZ       0.3165    XZZ       0.0001    YZZ       0.0001
       ZZZ      -0.6326
    Hexadecapole Moments (Debye-Ang^3)
      XXXX     -45.8656   XXXY       0.0012   XXYY     -15.2888
      XYYY       0.0009   YYYY     -45.8669   XXXZ      -0.4090
      XXYZ      -0.0001   XYYZ       0.4093   YYYZ      -0.0003
      XXZZ     -15.5780   XYZZ       0.0003   YYZZ     -15.5782
      XZZZ       0.0002   YZZZ      -0.0002   ZZZZ     -45.5762
 -----------------------------------------------------------------
 Total job time:  41.71s(wall), 14.63s(cpu) 
 Mon Apr 11 17:41:50 2011

        *************************************************************
        *                                                           *
        *  Thank you very much for using Q-Chem.  Have a nice day.  *
        *                                                           *
        *************************************************************


0 sent ACK to 0 
now end server 0 ... 
 
**********************************************************************
Job 3 of 3 
**********************************************************************
 
Process 0 of 1 is on cl217.stfx.acenet.ca - thread support 1
initial socket setup ...start
initial socket setup ...done 
now start server 0 ... 

cmd = /usr/bin/ssh clhead /usr/local/qchem/bin/get_hostid 1079054593 > /globalscratch/itamblyn/bnl/g297_b3lyp_neut_g03Large/g2g71016/omega100/qchem23058/lic.dat
                  Welcome to Q-Chem
     A Quantum Leap Into The Future Of Chemistry

 Y. Shao, L. Fusti-Molnar, Y. Jung, J. Kussmann, C. Ochsenfeld,
 S. T. Brown, A. T. B. Gilbert, L. V. Slipchenko,S. V. Levchenko,
 D. P. O'Neill, R. A. DiStasio Jr., R. C. Lochan, T. Wang,
 G. J. O. Beran, N. A. Besley, J. M. Herbert, C. Y. Lin,
 T. Van Voorhis, S. H. Chien, A. Sodt, R. P. Steele, 
 V. A. Rassolov, P. E. Maslen, P. P. Korambath, R. D. Adamson,
 B. Austin, J. Baker, E. F. C. Byrd, H. Dachsel, R. J. Doerksen,
 A. Dreuw, B. D. Dunietz, A. D. Dutoi, T. R. Furlani,
 S. R. Gwaltney, A. Heyden, S. Hirata, C.-P. Hsu, G. Kedziora,
 R. Z. Khaliullin, P. Klunzinger, A. M. Lee, M. S. Lee, W. Liang,
 I. Lotan, N. Nair, B. Peters, E. I. Proynov, P. A. Pieniazek, 
 Y. M. Rhee, J. Ritchie, E. Rosta, C. D. Sherrill, 
 A. C. Simmonett, J. E. Subotnik, H. L. Woodcock III,
 W. Zhang, A. T. Bell, A. K. Chakraborty, D. M. Chipman,
 F. J. Keil, A. Warshel, W. J. Hehre, H. F. Schaefer III,
 J. Kong, A. I. Krylov, P. M. W. Gill, M. Head-Gordon,
 Q-Chem, Version 3.1, Q-Chem, Inc., Pittsburgh, PA (2007).

 Additional authors for Version 3.1: 
 Z. Gan, Y. Zhao, N. E. Schultz, D. Truhlar, E. Epifanovsky and M. Oana.

 Additional authors for Version 3.2: 
 R. Baer, B. R. Brooks, D. Casanova, J.-D. Chai, C.-L. Cheng, 
 C. Cramer, D. Crittenden, A. Ghysels, G. Hawkins, E. G. Hohenstein, 
 C. Kelley, W. Kurlancheek, D. Liotard, E. Livshits, P. Manohar, 
 A. Marenich, D. Neuhauser, R. Olson, M. A. Rohrdanz, K. S. Thanthiriwatte, 
 A. J. W. Thom, V. Vanovschi, C. F. Williams, Q. Wu and Z.-Q. You. 


 Intel X86 Linux Version

 Q-chem begins on Mon Apr 11 17:41:54 2011  

 Parallel job on  1  processors
Processing $rem in /usr/local/qchem/config/preferences.

theFileMan(): MAXOPENFILES=974 MAX_SUB_FILE_NUM=16
Maximum size of a physical file is 2.0 GB, maximum size of a tmp-file is 32.0 GB


--------------------------------------------------------------
User input:
--------------------------------------------------------------

$molecule
1,2
Si
H,1,R
H,1,R,2,109.471221
H,1,R,2,109.471221,3,120.,0
H,1,R,2,109.471221,3,-120.,0

 R=1.48598655

$end

$comment
positive
$end

$xc_functional
   X HF 1.0
   X BNL 1.0
   C LYP 1.0
$end

$rem
SYMMETRY_DECOMPOSITION	0
exchange 		general
BASIS                   g3large
omega			100
separate_jk		true
mem_static              760
max_scf_cycles          200
scf_final_print         1
sym_ignore              true
$end

--------------------------------------------------------------
 Writing REM_CC_EA            5
 ----------------------------------------------------
       Standard Nuclear Orientation (Angstroms)
    I     Atom         X            Y            Z
 ----------------------------------------------------
    1      Si      0.000000     0.000000     0.000000
    2      H       0.000000     0.000000     1.485987
    3      H       1.401002     0.000000    -0.495329
    4      H      -0.700501    -1.213303    -0.495329
    5      H      -0.700501     1.213303    -0.495329
 ----------------------------------------------------
 Nuclear Repulsion Energy =    21.2506937090 hartrees
 There are        9 alpha and        8 beta electrons
 Requested basis set is G3large
 There are 43 shells and 106 basis functions

Total QAlloc Memory Limit   2000 MB
Mega-Array Size       743 MB
MEM_STATIC part       760 MB

                       Distance Matrix (Angstroms)
             Si(  1)   H (  2)   H (  3)   H (  4)
   H (  2)  1.485987
   H (  3)  1.485987  2.426606
   H (  4)  1.485987  2.426606  2.426606
   H (  5)  1.485987  2.426606  2.426606  2.426606
 
 A cutoff of  1.0D-08 yielded    946 shell pairs
 There are   5819 function pairs (  7380 Cartesian)
Evaluating contribution to one-electron hamiltonian from nuclear
 Smallest overlap matrix eigenvalue = 8.07E-04
 Multipole matrices computed through 2nd order

  Scale SEOQF with 1.000000e-01/1.000000e-01/1.000000e-01

 Standard Electronic Orientation quadrupole field applied
 Guess from superposition of atomic densities
 Warning:  Energy on first SCF cycle will be non-variational
 An unrestricted hybrid HF-DFT SCF calculation will be
 performed using Pulay DIIS extrapolation
 Exchange:     1.0000 Hartree-Fock + 1.0000 BNL
 Correlation:  1.0000 LYP
 Using SG-1 standard quadrature grid
 SCF converges when DIIS error is below 1.0E-05
 Warning!  Inaccurate integrated density:
   Number of electrons =    17
   Numerical integral  =    17.999844606031
   Relative error      =     5.8814388590 %
 ---------------------------------------
  Cycle       Energy         DIIS Error
 ---------------------------------------
    1    -289.9572635899      2.93E-02
    2    -289.6600697683      2.32E-03
    3    -289.6715594207      1.76E-03
    4    -289.6756523678      1.80E-04
    5    -289.6759801667      1.23E-04
    6    -289.6761449154      7.34E-05
    7    -289.6763243555      7.94E-05
    8    -289.6764826699      2.08E-05
    9    -289.6765017996      4.78E-06 Convergence criterion met
 ---------------------------------------
 One-Electron    Energy =  -440.0621660383
 Total Coulomb   Energy =   149.3512604822
 Alpha Exchange  Energy =    -0.5028353155
 Beta  Exchange  Energy =    -0.4463891353
 DFT   Exchange  Energy =   -18.6463705632
 DFT Correlation Energy =    -0.6206949384
 Nuclear Repu.   Energy =    21.2506937090
 Nuclear Attr.   Energy =  -729.5143152282
 Kinetic         Energy =   289.4521491899
 <S^2> = 0.7545
 SCF time:  CPU 26.26 s  wall 63.93 s
 Final Alpha MO Eigenvalues
            1           2           3           4           5           6
    1 -65.4268485  -5.3543882  -3.7994164  -3.7919982  -3.7919807  -0.8419201
            7           8           9          10          11          12
    1  -0.6558508  -0.6467347  -0.6466817  -0.1963356  -0.1963237  -0.1956111
           13          14
    1  -0.1684237  -0.1028660
 Final Beta MO Eigenvalues
            1           2           3           4           5           6
    1 -65.4251466  -5.3523473  -3.7944937  -3.7907211  -3.7904869  -0.8176597
            7           8           9          10          11          12
    1  -0.6195624  -0.6195228  -0.5136663  -0.1825288  -0.1822041  -0.1821981
           13
    1  -0.1592334
 Analysis of SCF Wavefunction
 
 --------------------------------------------------------------
                    Orbital Energies (a.u.)
 --------------------------------------------------------------
 
 Alpha MOs
 -- Occupied --
-65.427  -5.354  -3.799  -3.792  -3.792  -0.842  -0.656  -0.647
 -0.647
 -- Virtual --
 -0.196  -0.196  -0.196  -0.168  -0.103  -0.092  -0.089  -0.087
 -0.087  -0.053  -0.020  -0.020  -0.019   0.002   0.084   0.089
  0.089   0.149   0.149   0.150   0.194   0.218   0.219   0.219
  0.251   0.255   0.255   0.335   0.413   0.424   0.446   0.448
  0.448   0.549   0.549   0.554   0.585   0.779   0.779   0.784
  0.859   0.863   0.905   0.913   0.913   1.016   1.036   1.041
  1.042   1.229   1.229   1.230   1.792   1.792   1.793   1.855
  1.866   1.866   2.056   2.476   2.476   2.477   2.719   3.169
  3.180   3.440   3.441   3.446   3.672   3.673   3.743   3.743
  3.745   3.765   3.766   3.766   4.045   4.160   4.161   4.166
  5.648  10.962  10.970  10.970  17.124  17.212  17.292  17.382
 17.473  21.783  21.790  21.795  21.801  21.811  21.813  21.839
140.952
 
 Beta MOs
 -- Occupied --
-65.425  -5.352  -3.794  -3.791  -3.790  -0.818  -0.620  -0.620
 -- Virtual --
 -0.514  -0.183  -0.182  -0.182  -0.159  -0.088  -0.087  -0.087
 -0.085  -0.085  -0.039  -0.018  -0.018  -0.017   0.003   0.092
  0.093   0.093   0.153   0.154   0.154   0.206   0.230   0.230
  0.230   0.263   0.263   0.263   0.341   0.428   0.429   0.458
  0.459   0.459   0.565   0.565   0.566   0.593   0.796   0.796
  0.797   0.878   0.879   0.922   0.924   0.924   1.037   1.050
  1.051   1.051   1.248   1.248   1.248   1.809   1.809   1.809
  1.876   1.877   1.877   2.073   2.520   2.520   2.521   2.764
  3.179   3.182   3.460   3.461   3.464   3.715   3.715   3.786
  3.786   3.787   3.808   3.808   3.808   4.084   4.193   4.193
  4.194   5.657  10.969  10.972  10.973  17.127  17.216  17.295
 17.386  17.475  21.784  21.791  21.796  21.803  21.813  21.814
 21.840 140.954
 --------------------------------------------------------------
 
          Ground-State Mulliken Net Atomic Charges

     Atom                 Charge (a.u.)    Spin (a.u.)
  --------------------------------------------------------
      1 Si                    0.395700       0.336028
      2 H                     0.150996       0.164747
      3 H                     0.151206       0.166828
      4 H                     0.151221       0.167156
      5 H                     0.150878       0.165242
  --------------------------------------------------------
  Sum of atomic charges =     1.000000
  Sum of spin   charges =     1.000000

 -----------------------------------------------------------------
                    Cartesian Multipole Moments
 -----------------------------------------------------------------
    Charge (ESU x 10^10)
                 4.8032
    Dipole Moment (Debye)
         X       0.0013      Y      -0.0035      Z      -0.0023
       Tot       0.0044
    Quadrupole Moments (Debye-Ang)
        XX     -11.1019     XY       0.4547     YY     -10.5850
        XZ      -0.3688     YZ      -0.6341     ZZ     -10.8520
    Octapole Moments (Debye-Ang^2)
       XXX       1.8214    XXY      -0.0024    XYY      -1.8179
       YYY      -0.0077    XXZ      -1.2867    XYZ      -0.0015
       YYZ      -1.2854    XZZ       0.0008    YZZ      -0.0012
       ZZZ       2.5636
    Hexadecapole Moments (Debye-Ang^3)
      XXXX     -26.3093   XXXY       0.6507   XXYY      -8.5292
      XYYY       0.6421   YYYY     -24.8428   XXXZ      -1.9898
      XXYZ      -0.2976   XYYZ       1.2963   YYYZ      -0.8927
      XXZZ      -9.6889   XYZZ       0.2090   YYZZ      -9.4518
      XZZZ      -0.5235   YZZZ      -0.8999   ZZZZ     -24.5681
 -----------------------------------------------------------------
 Total job time:  68.47s(wall), 26.38s(cpu) 
 Mon Apr 11 17:43:03 2011

        *************************************************************
        *                                                           *
        *  Thank you very much for using Q-Chem.  Have a nice day.  *
        *                                                           *
        *************************************************************


0 sent ACK to 0 
now end server 0 ... 
