Process 0 of 1 is on cl181.stfx.acenet.ca - thread support 1
initial socket setup ...start
initial socket setup ...done 
now start server 0 ... 

cmd = /usr/bin/ssh clhead /usr/local/qchem/bin/get_hostid 1348502356 > /scratch/tmp/5998554.1.medium.q/qchem10739/lic.dat
                  Welcome to Q-Chem
     A Quantum Leap Into The Future Of Chemistry

 Y. Shao, L. Fusti-Molnar, Y. Jung, J. Kussmann, C. Ochsenfeld,
 S. T. Brown, A. T. B. Gilbert, L. V. Slipchenko,S. V. Levchenko,
 D. P. O'Neill, R. A. DiStasio Jr., R. C. Lochan, T. Wang,
 G. J. O. Beran, N. A. Besley, J. M. Herbert, C. Y. Lin,
 T. Van Voorhis, S. H. Chien, A. Sodt, R. P. Steele, 
 V. A. Rassolov, P. E. Maslen, P. P. Korambath, R. D. Adamson,
 B. Austin, J. Baker, E. F. C. Byrd, H. Dachsel, R. J. Doerksen,
 A. Dreuw, B. D. Dunietz, A. D. Dutoi, T. R. Furlani,
 S. R. Gwaltney, A. Heyden, S. Hirata, C.-P. Hsu, G. Kedziora,
 R. Z. Khaliullin, P. Klunzinger, A. M. Lee, M. S. Lee, W. Liang,
 I. Lotan, N. Nair, B. Peters, E. I. Proynov, P. A. Pieniazek, 
 Y. M. Rhee, J. Ritchie, E. Rosta, C. D. Sherrill, 
 A. C. Simmonett, J. E. Subotnik, H. L. Woodcock III,
 W. Zhang, A. T. Bell, A. K. Chakraborty, D. M. Chipman,
 F. J. Keil, A. Warshel, W. J. Hehre, H. F. Schaefer III,
 J. Kong, A. I. Krylov, P. M. W. Gill, M. Head-Gordon,
 Q-Chem, Version 3.1, Q-Chem, Inc., Pittsburgh, PA (2007).

 Additional authors for Version 3.1: 
 Z. Gan, Y. Zhao, N. E. Schultz, D. Truhlar, E. Epifanovsky and M. Oana.

 Additional authors for Version 3.2: 
 R. Baer, B. R. Brooks, D. Casanova, J.-D. Chai, C.-L. Cheng, 
 C. Cramer, D. Crittenden, A. Ghysels, G. Hawkins, E. G. Hohenstein, 
 C. Kelley, W. Kurlancheek, D. Liotard, E. Livshits, P. Manohar, 
 A. Marenich, D. Neuhauser, R. Olson, M. A. Rohrdanz, K. S. Thanthiriwatte, 
 A. J. W. Thom, V. Vanovschi, C. F. Williams, Q. Wu and Z.-Q. You. 


 Intel X86 Linux Version

 Q-chem begins on Wed May 22 11:38:22 2013  

 Parallel job on  1  processors
Processing $rem in /usr/local/qchem/config/preferences.

theFileMan(): MAXOPENFILES=974 MAX_SUB_FILE_NUM=16
Maximum size of a physical file is 2.0 GB, maximum size of a tmp-file is 32.0 GB


--------------------------------------------------------------
User input:
--------------------------------------------------------------

$molecule
-1,2
N         -0.00024        0.00000        0.99207
C          1.37911        0.00000        1.42977
C         -0.68970        1.19479        1.42953
C         -0.68970       -1.19479        1.42953
H          1.47337        0.00000        2.53241
H          1.89281        0.88545        1.04451
H          1.89281       -0.88545        1.04451
H         -0.73655        1.27723        2.53226
H         -1.71347        1.19766        1.04462
H         -0.17921        2.08198        1.04411
H         -0.73655       -1.27723        2.53226
H         -0.17921       -2.08198        1.04411
H         -1.71347       -1.19766        1.04462
$end

$comment
negative
$end

$xc_functional
C PBE   1.00
X wPBE  1.00
$end

$rem
SYMMETRY_DECOMPOSITION	0
exchange 		general
LRC_DFT                 true
BASIS                   g3large
omega			300
mem_static              760
max_scf_cycles          200
scf_final_print         1
sym_ignore              true
$end

--------------------------------------------------------------
 Writing REM_CC_EA           13
 ----------------------------------------------------
       Standard Nuclear Orientation (Angstroms)
    I     Atom         X            Y            Z
 ----------------------------------------------------
    1      N      -0.000240     0.000000     0.992070
    2      C       1.379110     0.000000     1.429770
    3      C      -0.689700     1.194790     1.429530
    4      C      -0.689700    -1.194790     1.429530
    5      H       1.473370     0.000000     2.532410
    6      H       1.892810     0.885450     1.044510
    7      H       1.892810    -0.885450     1.044510
    8      H      -0.736550     1.277230     2.532260
    9      H      -1.713470     1.197660     1.044620
   10      H      -0.179210     2.081980     1.044110
   11      H      -0.736550    -1.277230     2.532260
   12      H      -0.179210    -2.081980     1.044110
   13      H      -1.713470    -1.197660     1.044620
 ----------------------------------------------------
 Nuclear Repulsion Energy =   138.9704537048 hartrees
 There are       18 alpha and       17 beta electrons
 Requested basis set is G3large
 There are 94 shells and 258 basis functions

Total QAlloc Memory Limit   2000 MB
Mega-Array Size       743 MB
MEM_STATIC part       760 MB

                       Distance Matrix (Angstroms)
             N (  1)   C (  2)   C (  3)   C (  4)   H (  5)   H (  6)
   C (  2)  1.447131
   C (  3)  1.447152  2.389037
   C (  4)  1.447152  2.389037  2.389580
   H (  5)  2.131707  1.106662  2.706056  2.706056
   H (  6)  2.090553  1.093771  2.629314  3.338412  1.781516
   H (  7)  2.090553  1.093771  3.338412  2.629314  1.781516  1.770900
   H (  8)  2.132054  2.706071  1.106799  2.707229  2.552462  3.046379
   H (  9)  2.091006  3.338680  1.093741  2.630604  3.715354  3.619769
   H ( 10)  2.090306  2.629018  1.093734  3.338618  3.046424  2.392687
   H ( 11)  2.132054  2.706071  2.707229  1.106799  2.552462  3.715389
   H ( 12)  2.090306  2.629018  3.338618  1.093734  3.046424  3.619241
   H ( 13)  2.091006  3.338680  2.630604  1.093741  3.715354  4.164685
             H (  7)   H (  8)   H (  9)   H ( 10)   H ( 11)   H ( 12)
   H (  8)  3.715389
   H (  9)  4.164685  1.781510
   H ( 10)  3.619241  1.781247  1.770869
   H ( 11)  3.046379  2.554460  3.048364  3.716115
   H ( 12)  2.392687  3.716115  3.620772  4.163960  1.781247
   H ( 13)  3.619769  3.048364  2.395320  3.620772  1.781510  1.770869

 
 A cutoff of  1.0D-08 yielded   4168 shell pairs
 There are  31620 function pairs ( 37950 Cartesian)
Evaluating contribution to one-electron hamiltonian from nuclear
 Smallest overlap matrix eigenvalue = 1.52E-04
 Multipole matrices computed through 2nd order

  Scale SEOQF with 1.000000e-01/1.000000e-01/1.000000e-01

 Standard Electronic Orientation quadrupole field applied
 Nucleus-field energy     =    -0.0000000039 hartrees
 Guess from superposition of atomic densities
 Warning:  Energy on first SCF cycle will be non-variational
 Long-range K will be added via erf
 Coulomb attenuation parameter = 0.3 bohr**(-1)
 An unrestricted Kohn-Sham SCF calculation will be
 performed using Pulay DIIS extrapolation
 Exchange:  wPBE + LR-HF      Correlation:  PBE
 Using SG-1 standard quadrature grid
 SCF converges when DIIS error is below 1.0E-05
 Requested basis set is G3large
 There are 94 shells and 258 basis functions
 A cutoff of  1.0D-08 yielded   4168 shell pairs
 There are  31620 function pairs ( 37950 Cartesian)
 Warning!  Inaccurate integrated density:
   Number of electrons =    35
   Numerical integral  =    34.000021021313
   Relative error      =    -2.8570827962 %
 ---------------------------------------
  Cycle       Energy         DIIS Error
 ---------------------------------------
    1    -175.3384905076      2.78E-02
    2    -174.2512846526      2.73E-03
    3    -174.3004704535      2.33E-03
    4    -174.3437431159      4.10E-04
    5    -174.3467355169      1.89E-04
    6    -174.3478935263      6.57E-05
    7    -174.3483690203      2.50E-05
    8    -174.3485265847      9.99E-06 Convergence criterion met
 ---------------------------------------
 One-Electron    Energy =  -513.2223636235
 Total Coulomb   Energy =   226.4072009592
 Alpha Exchange  Energy =    -2.6987648092
 Beta  Exchange  Energy =    -2.6436497535
 DFT   Exchange  Energy =   -20.0577258001
 DFT Correlation Energy =    -1.1036772586
 Nuclear Repu.   Energy =   138.9704537010
 Nuclear Attr.   Energy =  -686.8439552029
 Kinetic         Energy =   173.6215915793
 <S^2> = 0.7502
 SCF time:  CPU 255.21 s  wall 256.17 s
 Final Alpha MO Eigenvalues
            1           2           3           4           5           6
    1 -14.0127605  -9.9332119  -9.9324681  -9.9314519  -0.8930983  -0.6802922
            7           8           9          10          11          12
    1  -0.6795435  -0.5633805  -0.4427404  -0.4396502  -0.4395809  -0.3605913
           13          14          15          16          17          18
    1  -0.3599114  -0.3333645  -0.3275467  -0.3274530  -0.1804433   0.0292217
           19          20          21          22          23
    1   0.1242708   0.1244875   0.1446548   0.1625345   0.1626414
 Final Beta MO Eigenvalues
            1           2           3           4           5           6
    1 -14.0126516  -9.9329763  -9.9322195  -9.9311860  -0.8928845  -0.6797784
            7           8           9          10          11          12
    1  -0.6790035  -0.5622250  -0.4421818  -0.4391175  -0.4390446  -0.3602351
           13          14          15          16          17          18
    1  -0.3595467  -0.3330391  -0.3269991  -0.3269025  -0.1795689   0.1236917
           19          20          21          22
    1   0.1371968   0.1374481   0.1558682   0.1631344
 Analysis of SCF Wavefunction
 
 --------------------------------------------------------------
                    Orbital Energies (a.u.)
 --------------------------------------------------------------
 
 Alpha MOs
 -- Occupied --
-14.013  -9.933  -9.932  -9.931  -0.893  -0.680  -0.680  -0.563
 -0.443  -0.440  -0.440  -0.361  -0.360  -0.333  -0.328  -0.327
 -0.180   0.029
 -- Virtual --
  0.124   0.124   0.145   0.163   0.163   0.177   0.178   0.197
  0.206   0.254   0.255   0.256   0.266   0.277   0.278   0.295
  0.296   0.313   0.314   0.335   0.355   0.357   0.358   0.371
  0.398   0.399   0.404   0.432   0.454   0.454   0.469   0.470
  0.478   0.492   0.492   0.538   0.597   0.597   0.648   0.701
  0.702   0.732   0.735   0.735   0.761   0.763   0.764   0.766
  0.766   0.786   0.786   0.805   0.844   0.845   0.867   0.877
  0.877   0.901   0.901   0.989   1.037   1.037   1.061   1.085
  1.085   1.160   1.176   1.176   1.196   1.263   1.286   1.286
  1.345   1.352   1.352   1.373   1.391   1.391   1.425   1.434
  1.435   1.458   1.500   1.501   1.520   1.536   1.537   1.550
  1.584   1.585   1.615   1.616   1.627   1.639   1.640   1.679
  1.734   1.772   1.780   1.781   1.836   1.837   1.837   2.002
  2.002   2.026   2.197   2.197   2.608   2.609   2.715   2.715
  2.746   2.774   2.893   2.980   2.981   3.106   3.107   3.123
  3.125   3.126   3.161   3.203   3.214   3.215   3.248   3.248
  3.319   3.338   3.339   3.350   3.456   3.464   3.465   3.517
  3.523   3.523   3.569   3.569   3.569   3.572   3.635   3.635
  3.705   3.762   3.763   3.807   3.840   3.840   3.900   3.920
  3.921   4.029   4.030   4.051   4.086   4.095   4.095   4.198
  4.199   4.232   4.238   4.306   4.341   4.341   4.421   4.422
  4.441   4.441   4.453   4.457   4.491   4.492   4.599   4.600
  4.673   4.696   4.696   4.699   4.724   4.837   4.961   4.961
  5.072   5.072   5.126   5.248   5.248   5.388   5.566   5.566
  5.582   5.854   5.859   5.860   5.921   5.922   5.958   5.989
  6.108   6.109   6.180   6.180  24.379  24.426  24.427  28.105
 28.106  28.163  28.174  28.175  28.181  28.286  28.287  28.322
 35.748  37.692  38.248  38.250  40.697  40.758  40.810  40.858
 40.920  41.030  41.050  41.050  41.057  41.100  41.109  41.256
 41.262  41.274  41.295  41.300  41.323  41.355  41.391  41.410
 
 Beta MOs
 -- Occupied --
-14.013  -9.933  -9.932  -9.931  -0.893  -0.680  -0.679  -0.562
 -0.442  -0.439  -0.439  -0.360  -0.360  -0.333  -0.327  -0.327
 -0.180
 -- Virtual --
  0.124   0.137   0.137   0.156   0.163   0.164   0.176   0.177
  0.194   0.204   0.249   0.249   0.251   0.268   0.271   0.272
  0.294   0.294   0.308   0.308   0.327   0.356   0.356   0.357
  0.369   0.397   0.398   0.402   0.431   0.452   0.452   0.468
  0.468   0.475   0.489   0.489   0.536   0.593   0.594   0.646
  0.699   0.700   0.730   0.733   0.733   0.759   0.762   0.762
  0.764   0.765   0.785   0.785   0.804   0.844   0.844   0.865
  0.875   0.876   0.901   0.902   0.989   1.037   1.038   1.062
  1.085   1.085   1.159   1.177   1.177   1.197   1.264   1.286
  1.286   1.345   1.352   1.352   1.373   1.391   1.391   1.426
  1.434   1.435   1.458   1.501   1.501   1.519   1.537   1.538
  1.550   1.584   1.584   1.616   1.617   1.627   1.639   1.639
  1.680   1.734   1.772   1.781   1.782   1.836   1.837   1.837
  2.003   2.003   2.026   2.198   2.198   2.608   2.609   2.714
  2.715   2.746   2.774   2.893   2.980   2.981   3.107   3.107
  3.123   3.125   3.126   3.162   3.203   3.215   3.215   3.248
  3.248   3.319   3.339   3.339   3.350   3.457   3.465   3.465
  3.517   3.523   3.524   3.569   3.570   3.570   3.573   3.636
  3.636   3.705   3.763   3.764   3.807   3.840   3.840   3.900
  3.921   3.921   4.029   4.030   4.051   4.087   4.095   4.095
  4.199   4.199   4.232   4.238   4.306   4.341   4.341   4.422
  4.422   4.441   4.441   4.453   4.458   4.491   4.492   4.599
  4.600   4.674   4.696   4.696   4.700   4.724   4.838   4.961
  4.961   5.072   5.073   5.126   5.249   5.249   5.388   5.566
  5.566   5.583   5.854   5.859   5.860   5.921   5.922   5.959
  5.989   6.108   6.109   6.180   6.180  24.379  24.426  24.427
 28.105  28.106  28.163  28.174  28.175  28.181  28.286  28.287
 28.322  35.748  37.692  38.248  38.250  40.697  40.758  40.810
 40.858  40.920  41.030  41.050  41.050  41.057  41.101  41.109
 41.256  41.262  41.274  41.295  41.300  41.323  41.355  41.391
 41.410
 --------------------------------------------------------------
 
          Ground-State Mulliken Net Atomic Charges

     Atom                 Charge (a.u.)    Spin (a.u.)
  --------------------------------------------------------
      1 N                    -0.594542       0.646280
      2 C                     1.193066      -1.459056
      3 C                     1.306856      -1.574557
      4 C                     1.096960      -1.362997
      5 H                    -0.477050       0.555713
      6 H                    -0.428646       0.515002
      7 H                    -0.417792       0.501774
      8 H                    -0.517374       0.597179
      9 H                    -0.462121       0.547572
     10 H                    -0.466064       0.552438
     11 H                    -0.446518       0.524373
     12 H                    -0.389772       0.473761
     13 H                    -0.397001       0.482516
  --------------------------------------------------------
  Sum of atomic charges =    -1.000000
  Sum of spin   charges =     1.000000

 -----------------------------------------------------------------
                    Cartesian Multipole Moments
 -----------------------------------------------------------------
    Charge (ESU x 10^10)
                -4.8032
    Dipole Moment (Debye)
         X       0.0586      Y      -0.6620      Z      -8.7307
       Tot       8.7559
    Quadrupole Moments (Debye-Ang)
        XX     -62.6430     XY       0.2460     YY     -62.6729
        XZ       0.0926     YZ      -1.0482     ZZ     -73.6584
    Octapole Moments (Debye-Ang^2)
       XXX       4.6851    XXY      -3.5925    XYY      -3.4335
       YYY     -10.7847    XXZ     -94.8112    XYZ       0.4810
       YYZ     -94.8889    XZZ       0.4361    YZZ      -4.7064
       ZZZ    -312.0117
    Hexadecapole Moments (Debye-Ang^3)
      XXXX    -785.3782   XXXY       4.2776   XXYY    -261.8593
      XYYY       3.1314   YYYY    -786.4025   XXXZ       4.5561
      XXYZ      -5.1872   XYYZ      -2.7861   YYYZ     -15.5686
      XXZZ    -340.8569   XYZZ       2.0964   YYZZ    -341.2583
      XZZZ       1.6284   YZZZ     -17.6262   ZZZZ   -1399.6464
 -----------------------------------------------------------------
 Total job time:  256.56s(wall), 255.57s(cpu) 
 Wed May 22 11:42:39 2013

        *************************************************************
        *                                                           *
        *  Thank you very much for using Q-Chem.  Have a nice day.  *
        *                                                           *
        *************************************************************


0 sent ACK to 0 
now end server 0 ... 
 
**********************************************************************
Job 2 of 3 
**********************************************************************
 
Process 0 of 1 is on cl181.stfx.acenet.ca - thread support 1
initial socket setup ...start
initial socket setup ...done 
now start server 0 ... 

cmd = /usr/bin/ssh clhead /usr/local/qchem/bin/get_hostid 1739027574 > /scratch/tmp/5998554.1.medium.q/qchem10739/lic.dat
                  Welcome to Q-Chem
     A Quantum Leap Into The Future Of Chemistry

 Y. Shao, L. Fusti-Molnar, Y. Jung, J. Kussmann, C. Ochsenfeld,
 S. T. Brown, A. T. B. Gilbert, L. V. Slipchenko,S. V. Levchenko,
 D. P. O'Neill, R. A. DiStasio Jr., R. C. Lochan, T. Wang,
 G. J. O. Beran, N. A. Besley, J. M. Herbert, C. Y. Lin,
 T. Van Voorhis, S. H. Chien, A. Sodt, R. P. Steele, 
 V. A. Rassolov, P. E. Maslen, P. P. Korambath, R. D. Adamson,
 B. Austin, J. Baker, E. F. C. Byrd, H. Dachsel, R. J. Doerksen,
 A. Dreuw, B. D. Dunietz, A. D. Dutoi, T. R. Furlani,
 S. R. Gwaltney, A. Heyden, S. Hirata, C.-P. Hsu, G. Kedziora,
 R. Z. Khaliullin, P. Klunzinger, A. M. Lee, M. S. Lee, W. Liang,
 I. Lotan, N. Nair, B. Peters, E. I. Proynov, P. A. Pieniazek, 
 Y. M. Rhee, J. Ritchie, E. Rosta, C. D. Sherrill, 
 A. C. Simmonett, J. E. Subotnik, H. L. Woodcock III,
 W. Zhang, A. T. Bell, A. K. Chakraborty, D. M. Chipman,
 F. J. Keil, A. Warshel, W. J. Hehre, H. F. Schaefer III,
 J. Kong, A. I. Krylov, P. M. W. Gill, M. Head-Gordon,
 Q-Chem, Version 3.1, Q-Chem, Inc., Pittsburgh, PA (2007).

 Additional authors for Version 3.1: 
 Z. Gan, Y. Zhao, N. E. Schultz, D. Truhlar, E. Epifanovsky and M. Oana.

 Additional authors for Version 3.2: 
 R. Baer, B. R. Brooks, D. Casanova, J.-D. Chai, C.-L. Cheng, 
 C. Cramer, D. Crittenden, A. Ghysels, G. Hawkins, E. G. Hohenstein, 
 C. Kelley, W. Kurlancheek, D. Liotard, E. Livshits, P. Manohar, 
 A. Marenich, D. Neuhauser, R. Olson, M. A. Rohrdanz, K. S. Thanthiriwatte, 
 A. J. W. Thom, V. Vanovschi, C. F. Williams, Q. Wu and Z.-Q. You. 


 Intel X86 Linux Version

 Q-chem begins on Wed May 22 11:42:42 2013  

 Parallel job on  1  processors
Processing $rem in /usr/local/qchem/config/preferences.

theFileMan(): MAXOPENFILES=974 MAX_SUB_FILE_NUM=16
Maximum size of a physical file is 2.0 GB, maximum size of a tmp-file is 32.0 GB


--------------------------------------------------------------
User input:
--------------------------------------------------------------

$molecule
0,1
N         -0.00024        0.00000        0.99207
C          1.37911        0.00000        1.42977
C         -0.68970        1.19479        1.42953
C         -0.68970       -1.19479        1.42953
H          1.47337        0.00000        2.53241
H          1.89281        0.88545        1.04451
H          1.89281       -0.88545        1.04451
H         -0.73655        1.27723        2.53226
H         -1.71347        1.19766        1.04462
H         -0.17921        2.08198        1.04411
H         -0.73655       -1.27723        2.53226
H         -0.17921       -2.08198        1.04411
H         -1.71347       -1.19766        1.04462
$end

$comment
neutral
$end

$xc_functional
C PBE   1.00
X wPBE  1.00
$end


$rem
SYMMETRY_DECOMPOSITION	0
LRC_DFT                 true
exchange 		general
BASIS                   g3large
omega			300
mem_static              760
max_scf_cycles          200
scf_final_print         1
sym_ignore              true
$end

--------------------------------------------------------------
 Writing REM_CC_EA           13
 ----------------------------------------------------
       Standard Nuclear Orientation (Angstroms)
    I     Atom         X            Y            Z
 ----------------------------------------------------
    1      N      -0.000240     0.000000     0.992070
    2      C       1.379110     0.000000     1.429770
    3      C      -0.689700     1.194790     1.429530
    4      C      -0.689700    -1.194790     1.429530
    5      H       1.473370     0.000000     2.532410
    6      H       1.892810     0.885450     1.044510
    7      H       1.892810    -0.885450     1.044510
    8      H      -0.736550     1.277230     2.532260
    9      H      -1.713470     1.197660     1.044620
   10      H      -0.179210     2.081980     1.044110
   11      H      -0.736550    -1.277230     2.532260
   12      H      -0.179210    -2.081980     1.044110
   13      H      -1.713470    -1.197660     1.044620
 ----------------------------------------------------
 Nuclear Repulsion Energy =   138.9704537048 hartrees
 There are       17 alpha and       17 beta electrons
 Requested basis set is G3large
 There are 94 shells and 258 basis functions

Total QAlloc Memory Limit   2000 MB
Mega-Array Size       743 MB
MEM_STATIC part       760 MB

                       Distance Matrix (Angstroms)
             N (  1)   C (  2)   C (  3)   C (  4)   H (  5)   H (  6)
   C (  2)  1.447131
   C (  3)  1.447152  2.389037
   C (  4)  1.447152  2.389037  2.389580
   H (  5)  2.131707  1.106662  2.706056  2.706056
   H (  6)  2.090553  1.093771  2.629314  3.338412  1.781516
   H (  7)  2.090553  1.093771  3.338412  2.629314  1.781516  1.770900
   H (  8)  2.132054  2.706071  1.106799  2.707229  2.552462  3.046379
   H (  9)  2.091006  3.338680  1.093741  2.630604  3.715354  3.619769
   H ( 10)  2.090306  2.629018  1.093734  3.338618  3.046424  2.392687
   H ( 11)  2.132054  2.706071  2.707229  1.106799  2.552462  3.715389
   H ( 12)  2.090306  2.629018  3.338618  1.093734  3.046424  3.619241
   H ( 13)  2.091006  3.338680  2.630604  1.093741  3.715354  4.164685
             H (  7)   H (  8)   H (  9)   H ( 10)   H ( 11)   H ( 12)
   H (  8)  3.715389
   H (  9)  4.164685  1.781510
   H ( 10)  3.619241  1.781247  1.770869
   H ( 11)  3.046379  2.554460  3.048364  3.716115
   H ( 12)  2.392687  3.716115  3.620772  4.163960  1.781247
   H ( 13)  3.619769  3.048364  2.395320  3.620772  1.781510  1.770869

 
 A cutoff of  1.0D-08 yielded   4168 shell pairs
 There are  31620 function pairs ( 37950 Cartesian)
Evaluating contribution to one-electron hamiltonian from nuclear
 Smallest overlap matrix eigenvalue = 1.52E-04
 Multipole matrices computed through 2nd order

  Scale SEOQF with 1.000000e-01/1.000000e-01/1.000000e-01

 Standard Electronic Orientation quadrupole field applied
 Nucleus-field energy     =    -0.0000000039 hartrees
 Guess from superposition of atomic densities
 Warning:  Energy on first SCF cycle will be non-variational
 Long-range K will be added via erf
 Coulomb attenuation parameter = 0.3 bohr**(-1)
 A restricted Kohn-Sham SCF calculation will be
 performed using Pulay DIIS extrapolation
 Exchange:  wPBE + LR-HF      Correlation:  PBE
 Using SG-1 standard quadrature grid
 SCF converges when DIIS error is below 1.0E-05
 Requested basis set is G3large
 There are 94 shells and 258 basis functions
 A cutoff of  1.0D-08 yielded   4168 shell pairs
 There are  31620 function pairs ( 37950 Cartesian)
 ---------------------------------------
  Cycle       Energy         DIIS Error
 ---------------------------------------
    1    -175.3384905076      2.78E-02
    2    -174.3280124319      2.43E-03
    3    -174.3564380237      1.82E-03
    4    -174.3795395315      4.11E-04
    5    -174.3806376820      1.33E-04
    6    -174.3807673625      3.49E-05
    7    -174.3807789929      6.34E-06 Convergence criterion met
 ---------------------------------------
 One-Electron    Energy =  -508.9932509057
 Total Coulomb   Energy =   222.0782667810
 Alpha Exchange  Energy =    -2.6446726090
 Beta  Exchange  Energy =    -2.6446726090
 DFT   Exchange  Energy =   -20.0501138285
 DFT Correlation Energy =    -1.0967895227
 Nuclear Repu.   Energy =   138.9704537010
 Nuclear Attr.   Energy =  -682.5480343357
 Kinetic         Energy =   173.5547834301
 SCF time:  CPU 169.29 s  wall 170.38 s
 Final Alpha MO Eigenvalues
            1           2           3           4           5           6
    1 -14.1372079 -10.0587400 -10.0586984 -10.0586806  -1.0179698  -0.8049680
            7           8           9          10          11          12
    1  -0.8048955  -0.6882169  -0.5678684  -0.5645638  -0.5644904  -0.4861636
           13          14          15          16          17          18
    1  -0.4861291  -0.4583285  -0.4521195  -0.4521005  -0.3043568   0.0367326
           19          20          21          22
    1   0.0540801   0.0541022   0.0676641   0.0797987
 Analysis of SCF Wavefunction
 
 --------------------------------------------------------------
                    Orbital Energies (a.u.)
 --------------------------------------------------------------
 
 Alpha MOs
 -- Occupied --
-14.137 -10.059 -10.059 -10.059  -1.018  -0.805  -0.805  -0.688
 -0.568  -0.565  -0.564  -0.486  -0.486  -0.458  -0.452  -0.452
 -0.304
 -- Virtual --
  0.037   0.054   0.054   0.068   0.080   0.080   0.092   0.092
  0.108   0.113   0.148   0.160   0.160   0.167   0.172   0.172
  0.192   0.192   0.208   0.208   0.232   0.238   0.244   0.244
  0.259   0.279   0.279   0.292   0.315   0.340   0.340   0.352
  0.352   0.369   0.377   0.378   0.418   0.479   0.479   0.528
  0.582   0.583   0.612   0.617   0.617   0.640   0.644   0.644
  0.646   0.647   0.666   0.666   0.685   0.723   0.724   0.746
  0.756   0.756   0.777   0.777   0.867   0.914   0.914   0.938
  0.961   0.961   1.040   1.051   1.052   1.072   1.140   1.163
  1.164   1.221   1.229   1.230   1.250   1.268   1.268   1.301
  1.310   1.311   1.336   1.377   1.377   1.398   1.412   1.412
  1.430   1.462   1.462   1.492   1.492   1.504   1.517   1.517
  1.555   1.611   1.649   1.658   1.658   1.711   1.714   1.714
  1.878   1.878   1.903   2.074   2.074   2.484   2.485   2.591
  2.591   2.622   2.649   2.767   2.855   2.855   2.981   2.982
  2.998   3.000   3.000   3.036   3.078   3.090   3.090   3.122
  3.123   3.194   3.213   3.213   3.225   3.331   3.340   3.340
  3.392   3.398   3.398   3.444   3.445   3.445   3.448   3.510
  3.510   3.581   3.638   3.638   3.682   3.715   3.715   3.775
  3.795   3.796   3.904   3.904   3.926   3.961   3.970   3.970
  4.073   4.073   4.106   4.114   4.181   4.215   4.215   4.296
  4.296   4.316   4.316   4.327   4.332   4.366   4.366   4.474
  4.474   4.548   4.570   4.571   4.574   4.599   4.713   4.836
  4.836   4.947   4.947   5.001   5.123   5.123   5.263   5.441
  5.442   5.458   5.728   5.733   5.733   5.796   5.796   5.834
  5.864   5.984   5.984   6.056   6.056  24.253  24.300  24.300
 27.979  27.979  28.037  28.048  28.048  28.055  28.160  28.161
 28.196  35.624  37.567  38.124  38.125  40.573  40.633  40.685
 40.733  40.795  40.904  40.924  40.924  40.931  40.974  40.982
 41.130  41.136  41.148  41.168  41.173  41.197  41.229  41.265
 41.283
 --------------------------------------------------------------
 
          Ground-State Mulliken Net Atomic Charges

     Atom                 Charge (a.u.)
  ----------------------------------------
      1 N                     0.036792
      2 C                    -0.252388
      3 C                    -0.252311
      4 C                    -0.252335
      5 H                     0.069856
      6 H                     0.085175
      7 H                     0.085098
      8 H                     0.069778
      9 H                     0.085166
     10 H                     0.085174
     11 H                     0.069837
     12 H                     0.085046
     13 H                     0.085112
  ----------------------------------------
  Sum of atomic charges =     0.000000

 -----------------------------------------------------------------
                    Cartesian Multipole Moments
 -----------------------------------------------------------------
    Charge (ESU x 10^10)
                 0.0000
    Dipole Moment (Debye)
         X       0.0000      Y       0.0000      Z       0.6221
       Tot       0.6221
    Quadrupole Moments (Debye-Ang)
        XX     -26.4019     XY       0.0003     YY     -26.4034
        XZ      -0.0003     YZ      -0.0004     ZZ     -28.2926
    Octapole Moments (Debye-Ang^2)
       XXX      -0.9940    XXY       0.0000    XYY       0.9949
       YYY       0.0001    XXZ     -38.6941    XYZ      -0.0002
       YYZ     -38.6942    XZZ       0.0037    YZZ      -0.0023
       ZZZ    -118.2849
    Hexadecapole Moments (Debye-Ang^3)
      XXXX    -192.1237   XXXY       0.0008   XXYY     -64.0543
      XYYY       0.0022   YYYY    -192.2649   XXXZ      -0.0879
      XXYZ      -0.0010   XYYZ       0.0803   YYYZ      -0.0028
      XXZZ    -100.3236   XYZZ      -0.0002   YYZZ    -100.3362
      XZZZ       0.0106   YZZZ      -0.0087   ZZZZ    -387.9871
 -----------------------------------------------------------------
 Total job time:  170.74s(wall), 169.63s(cpu) 
 Wed May 22 11:45:33 2013

        *************************************************************
        *                                                           *
        *  Thank you very much for using Q-Chem.  Have a nice day.  *
        *                                                           *
        *************************************************************


0 sent ACK to 0 
now end server 0 ... 
 
**********************************************************************
Job 3 of 3 
**********************************************************************
 
Process 0 of 1 is on cl181.stfx.acenet.ca - thread support 1
initial socket setup ...start
initial socket setup ...done 
now start server 0 ... 

cmd = /usr/bin/ssh clhead /usr/local/qchem/bin/get_hostid 349727525 > /scratch/tmp/5998554.1.medium.q/qchem10739/lic.dat
                  Welcome to Q-Chem
     A Quantum Leap Into The Future Of Chemistry

 Y. Shao, L. Fusti-Molnar, Y. Jung, J. Kussmann, C. Ochsenfeld,
 S. T. Brown, A. T. B. Gilbert, L. V. Slipchenko,S. V. Levchenko,
 D. P. O'Neill, R. A. DiStasio Jr., R. C. Lochan, T. Wang,
 G. J. O. Beran, N. A. Besley, J. M. Herbert, C. Y. Lin,
 T. Van Voorhis, S. H. Chien, A. Sodt, R. P. Steele, 
 V. A. Rassolov, P. E. Maslen, P. P. Korambath, R. D. Adamson,
 B. Austin, J. Baker, E. F. C. Byrd, H. Dachsel, R. J. Doerksen,
 A. Dreuw, B. D. Dunietz, A. D. Dutoi, T. R. Furlani,
 S. R. Gwaltney, A. Heyden, S. Hirata, C.-P. Hsu, G. Kedziora,
 R. Z. Khaliullin, P. Klunzinger, A. M. Lee, M. S. Lee, W. Liang,
 I. Lotan, N. Nair, B. Peters, E. I. Proynov, P. A. Pieniazek, 
 Y. M. Rhee, J. Ritchie, E. Rosta, C. D. Sherrill, 
 A. C. Simmonett, J. E. Subotnik, H. L. Woodcock III,
 W. Zhang, A. T. Bell, A. K. Chakraborty, D. M. Chipman,
 F. J. Keil, A. Warshel, W. J. Hehre, H. F. Schaefer III,
 J. Kong, A. I. Krylov, P. M. W. Gill, M. Head-Gordon,
 Q-Chem, Version 3.1, Q-Chem, Inc., Pittsburgh, PA (2007).

 Additional authors for Version 3.1: 
 Z. Gan, Y. Zhao, N. E. Schultz, D. Truhlar, E. Epifanovsky and M. Oana.

 Additional authors for Version 3.2: 
 R. Baer, B. R. Brooks, D. Casanova, J.-D. Chai, C.-L. Cheng, 
 C. Cramer, D. Crittenden, A. Ghysels, G. Hawkins, E. G. Hohenstein, 
 C. Kelley, W. Kurlancheek, D. Liotard, E. Livshits, P. Manohar, 
 A. Marenich, D. Neuhauser, R. Olson, M. A. Rohrdanz, K. S. Thanthiriwatte, 
 A. J. W. Thom, V. Vanovschi, C. F. Williams, Q. Wu and Z.-Q. You. 


 Intel X86 Linux Version

 Q-chem begins on Wed May 22 11:45:35 2013  

 Parallel job on  1  processors
Processing $rem in /usr/local/qchem/config/preferences.

theFileMan(): MAXOPENFILES=974 MAX_SUB_FILE_NUM=16
Maximum size of a physical file is 2.0 GB, maximum size of a tmp-file is 32.0 GB


--------------------------------------------------------------
User input:
--------------------------------------------------------------

$molecule
1,2
N         -0.00024        0.00000        0.99207
C          1.37911        0.00000        1.42977
C         -0.68970        1.19479        1.42953
C         -0.68970       -1.19479        1.42953
H          1.47337        0.00000        2.53241
H          1.89281        0.88545        1.04451
H          1.89281       -0.88545        1.04451
H         -0.73655        1.27723        2.53226
H         -1.71347        1.19766        1.04462
H         -0.17921        2.08198        1.04411
H         -0.73655       -1.27723        2.53226
H         -0.17921       -2.08198        1.04411
H         -1.71347       -1.19766        1.04462
$end

$comment
positive
$end

$xc_functional
C PBE   1.00
X wPBE  1.00
$end

$rem
SYMMETRY_DECOMPOSITION	0
LRC_DFT                 true
exchange 		general
BASIS                   g3large
omega			300
mem_static              760
max_scf_cycles          200
scf_final_print         1
sym_ignore              true
$end

--------------------------------------------------------------
 Writing REM_CC_EA           13
 ----------------------------------------------------
       Standard Nuclear Orientation (Angstroms)
    I     Atom         X            Y            Z
 ----------------------------------------------------
    1      N      -0.000240     0.000000     0.992070
    2      C       1.379110     0.000000     1.429770
    3      C      -0.689700     1.194790     1.429530
    4      C      -0.689700    -1.194790     1.429530
    5      H       1.473370     0.000000     2.532410
    6      H       1.892810     0.885450     1.044510
    7      H       1.892810    -0.885450     1.044510
    8      H      -0.736550     1.277230     2.532260
    9      H      -1.713470     1.197660     1.044620
   10      H      -0.179210     2.081980     1.044110
   11      H      -0.736550    -1.277230     2.532260
   12      H      -0.179210    -2.081980     1.044110
   13      H      -1.713470    -1.197660     1.044620
 ----------------------------------------------------
 Nuclear Repulsion Energy =   138.9704537048 hartrees
 There are       17 alpha and       16 beta electrons
 Requested basis set is G3large
 There are 94 shells and 258 basis functions

Total QAlloc Memory Limit   2000 MB
Mega-Array Size       743 MB
MEM_STATIC part       760 MB

                       Distance Matrix (Angstroms)
             N (  1)   C (  2)   C (  3)   C (  4)   H (  5)   H (  6)
   C (  2)  1.447131
   C (  3)  1.447152  2.389037
   C (  4)  1.447152  2.389037  2.389580
   H (  5)  2.131707  1.106662  2.706056  2.706056
   H (  6)  2.090553  1.093771  2.629314  3.338412  1.781516
   H (  7)  2.090553  1.093771  3.338412  2.629314  1.781516  1.770900
   H (  8)  2.132054  2.706071  1.106799  2.707229  2.552462  3.046379
   H (  9)  2.091006  3.338680  1.093741  2.630604  3.715354  3.619769
   H ( 10)  2.090306  2.629018  1.093734  3.338618  3.046424  2.392687
   H ( 11)  2.132054  2.706071  2.707229  1.106799  2.552462  3.715389
   H ( 12)  2.090306  2.629018  3.338618  1.093734  3.046424  3.619241
   H ( 13)  2.091006  3.338680  2.630604  1.093741  3.715354  4.164685
             H (  7)   H (  8)   H (  9)   H ( 10)   H ( 11)   H ( 12)
   H (  8)  3.715389
   H (  9)  4.164685  1.781510
   H ( 10)  3.619241  1.781247  1.770869
   H ( 11)  3.046379  2.554460  3.048364  3.716115
   H ( 12)  2.392687  3.716115  3.620772  4.163960  1.781247
   H ( 13)  3.619769  3.048364  2.395320  3.620772  1.781510  1.770869

 
 A cutoff of  1.0D-08 yielded   4168 shell pairs
 There are  31620 function pairs ( 37950 Cartesian)
Evaluating contribution to one-electron hamiltonian from nuclear
 Smallest overlap matrix eigenvalue = 1.52E-04
 Multipole matrices computed through 2nd order

  Scale SEOQF with 1.000000e-01/1.000000e-01/1.000000e-01

 Standard Electronic Orientation quadrupole field applied
 Nucleus-field energy     =    -0.0000000039 hartrees
 Guess from superposition of atomic densities
 Warning:  Energy on first SCF cycle will be non-variational
 Long-range K will be added via erf
 Coulomb attenuation parameter = 0.3 bohr**(-1)
 An unrestricted Kohn-Sham SCF calculation will be
 performed using Pulay DIIS extrapolation
 Exchange:  wPBE + LR-HF      Correlation:  PBE
 Using SG-1 standard quadrature grid
 SCF converges when DIIS error is below 1.0E-05
 Requested basis set is G3large
 There are 94 shells and 258 basis functions
 A cutoff of  1.0D-08 yielded   4168 shell pairs
 There are  31620 function pairs ( 37950 Cartesian)
 Warning!  Inaccurate integrated density:
   Number of electrons =    33
   Numerical integral  =    34.000021021313
   Relative error      =     3.0303667313 %
 ---------------------------------------
  Cycle       Energy         DIIS Error
 ---------------------------------------
    1    -175.3384905076      2.78E-02
    2    -174.0173069661      2.39E-03
    3    -174.0420814818      2.05E-03
    4    -174.0700301251      4.19E-04
    5    -174.0715503572      6.45E-05
    6    -174.0716993498      3.15E-05
    7    -174.0717326978      1.24E-05
    8    -174.0717405010      5.52E-06 Convergence criterion met
 ---------------------------------------
 One-Electron    Energy =  -500.5429791192
 Total Coulomb   Energy =   213.6200726992
 Alpha Exchange  Energy =    -2.6573260654
 Beta  Exchange  Energy =    -2.4921540560
 DFT   Exchange  Energy =   -19.9089606288
 DFT Correlation Energy =    -1.0608470317
 Nuclear Repu.   Energy =   138.9704537010
 Nuclear Attr.   Energy =  -673.8162844699
 Kinetic         Energy =   173.2733053507
 <S^2> = 0.7543
 SCF time:  CPU 241.68 s  wall 242.67 s
 Final Alpha MO Eigenvalues
            1           2           3           4           5           6
    1 -14.4967842 -10.2908885 -10.2908530 -10.2908303  -1.3156071  -1.0516389
            7           8           9          10          11          12
    1  -1.0515572  -0.9343645  -0.8371373  -0.8155726  -0.8155230  -0.7214135
           13          14          15          16          17          18
    1  -0.7213646  -0.6897078  -0.6897062  -0.6793040  -0.6294152  -0.1032185
           19          20          21          22
    1  -0.0718346  -0.0718244  -0.0694685  -0.0571531
 Final Beta MO Eigenvalues
            1           2           3           4           5           6
    1 -14.4802790 -10.2909783 -10.2909423 -10.2909176  -1.2897050  -1.0468946
            7           8           9          10          11          12
    1  -1.0468150  -0.9138433  -0.8070439  -0.8069943  -0.7984048  -0.7118604
           13          14          15          16          17          18
    1  -0.7118180  -0.6832584  -0.6832393  -0.6780940  -0.3104624  -0.1011629
           19          20          21
    1  -0.0711493  -0.0711414  -0.0673590
 Analysis of SCF Wavefunction
 
 --------------------------------------------------------------
                    Orbital Energies (a.u.)
 --------------------------------------------------------------
 
 Alpha MOs
 -- Occupied --
-14.497 -10.291 -10.291 -10.291  -1.316  -1.052  -1.052  -0.934
 -0.837  -0.816  -0.816  -0.721  -0.721  -0.690  -0.690  -0.679
 -0.629
 -- Virtual --
 -0.103  -0.072  -0.072  -0.069  -0.057  -0.048  -0.048  -0.031
 -0.031  -0.015   0.001   0.011   0.011   0.015   0.015   0.028
  0.044   0.044   0.056   0.058   0.058   0.076   0.084   0.084
  0.097   0.097   0.097   0.100   0.129   0.129   0.138   0.160
  0.160   0.178   0.198   0.198   0.222   0.295   0.295   0.333
  0.391   0.391   0.423   0.430   0.430   0.432   0.446   0.452
  0.453   0.460   0.466   0.466   0.477   0.511   0.511   0.553
  0.555   0.555   0.568   0.568   0.648   0.697   0.697   0.731
  0.746   0.746   0.773   0.833   0.833   0.872   0.920   0.949
  0.949   1.014   1.016   1.018   1.018   1.055   1.055   1.090
  1.105   1.105   1.109   1.160   1.160   1.187   1.194   1.194
  1.233   1.257   1.257   1.275   1.275   1.285   1.311   1.311
  1.343   1.371   1.450   1.451   1.451   1.496   1.496   1.496
  1.623   1.623   1.638   1.807   1.807   2.261   2.262   2.367
  2.367   2.388   2.424   2.539   2.622   2.622   2.730   2.730
  2.756   2.772   2.773   2.809   2.824   2.854   2.854   2.893
  2.893   2.951   2.971   2.971   2.993   3.090   3.104   3.104
  3.169   3.170   3.170   3.184   3.184   3.201   3.225   3.270
  3.270   3.331   3.397   3.397   3.452   3.482   3.482   3.504
  3.546   3.546   3.673   3.673   3.677   3.712   3.737   3.738
  3.834   3.834   3.856   3.880   3.932   3.968   3.968   4.071
  4.071   4.075   4.076   4.081   4.094   4.138   4.138   4.242
  4.242   4.319   4.321   4.335   4.336   4.373   4.465   4.575
  4.576   4.701   4.702   4.723   4.841   4.841   5.000   5.116
  5.117   5.126   5.491   5.494   5.494   5.548   5.558   5.558
  5.629   5.688   5.688   5.759   5.759  24.020  24.067  24.067
 27.746  27.746  27.804  27.816  27.816  27.824  27.929  27.929
 27.963  35.267  37.190  37.774  37.775  40.194  40.279  40.319
 40.371  40.446  40.671  40.691  40.692  40.699  40.741  40.748
 40.897  40.903  40.915  40.936  40.942  40.963  40.997  41.031
 41.049
 
 Beta MOs
 -- Occupied --
-14.480 -10.291 -10.291 -10.291  -1.290  -1.047  -1.047  -0.914
 -0.807  -0.807  -0.798  -0.712  -0.712  -0.683  -0.683  -0.678
 -- Virtual --
 -0.310  -0.101  -0.071  -0.071  -0.067  -0.053  -0.047  -0.047
 -0.031  -0.030  -0.012   0.001   0.014   0.014   0.016   0.016
  0.030   0.047   0.047   0.058   0.058   0.061   0.081   0.085
  0.085   0.097   0.100   0.100   0.109   0.136   0.136   0.139
  0.162   0.163   0.187   0.201   0.201   0.232   0.296   0.296
  0.337   0.394   0.394   0.426   0.431   0.431   0.444   0.448
  0.455   0.455   0.461   0.469   0.469   0.486   0.514   0.514
  0.557   0.561   0.561   0.570   0.571   0.651   0.703   0.703
  0.732   0.749   0.749   0.811   0.842   0.842   0.874   0.924
  0.952   0.953   1.016   1.021   1.021   1.031   1.059   1.059
  1.097   1.109   1.109   1.122   1.164   1.164   1.196   1.198
  1.198   1.234   1.260   1.260   1.281   1.281   1.291   1.314
  1.314   1.346   1.380   1.453   1.455   1.455   1.496   1.501
  1.501   1.641   1.641   1.668   1.822   1.822   2.265   2.265
  2.371   2.371   2.399   2.425   2.546   2.628   2.628   2.738
  2.738   2.757   2.775   2.775   2.812   2.835   2.856   2.856
  2.897   2.897   2.956   2.979   2.979   3.000   3.096   3.109
  3.109   3.171   3.172   3.172   3.197   3.197   3.211   3.225
  3.280   3.280   3.347   3.403   3.403   3.453   3.486   3.486
  3.532   3.555   3.556   3.677   3.677   3.693   3.723   3.741
  3.741   3.841   3.841   3.881   3.882   3.948   3.982   3.982
  4.077   4.077   4.084   4.084   4.098   4.102   4.144   4.145
  4.249   4.250   4.323   4.339   4.345   4.345   4.378   4.477
  4.591   4.591   4.711   4.711   4.743   4.864   4.864   5.005
  5.166   5.166   5.192   5.502   5.505   5.505   5.567   5.567
  5.574   5.633   5.708   5.708   5.778   5.778  24.020  24.067
 24.068  27.746  27.746  27.805  27.816  27.817  27.824  27.929
 27.929  27.962  35.286  37.236  37.785  37.786  40.241  40.293
 40.349  40.397  40.456  40.671  40.691  40.692  40.699  40.741
 40.748  40.897  40.903  40.915  40.937  40.942  40.963  40.996
 41.031  41.049
 --------------------------------------------------------------
 
          Ground-State Mulliken Net Atomic Charges

     Atom                 Charge (a.u.)    Spin (a.u.)
  --------------------------------------------------------
      1 N                     0.261837       0.749914
      2 C                    -0.191062      -0.008190
      3 C                    -0.190814      -0.008162
      4 C                    -0.190929      -0.008217
      5 H                     0.166057       0.075279
      6 H                     0.135481       0.008148
      7 H                     0.135493       0.008080
      8 H                     0.166017       0.075200
      9 H                     0.135470       0.008065
     10 H                     0.135444       0.008145
     11 H                     0.166191       0.075493
     12 H                     0.135379       0.008121
     13 H                     0.135436       0.008125
  --------------------------------------------------------
  Sum of atomic charges =     1.000000
  Sum of spin   charges =     1.000000

 -----------------------------------------------------------------
                    Cartesian Multipole Moments
 -----------------------------------------------------------------
    Charge (ESU x 10^10)
                 4.8032
    Dipole Moment (Debye)
         X      -0.0008      Y      -0.0008      Z       7.2824
       Tot       7.2824
    Quadrupole Moments (Debye-Ang)
        XX     -17.4146     XY       0.0008     YY     -17.4095
        XZ      -0.0012     YZ      -0.0015     ZZ     -11.6646
    Octapole Moments (Debye-Ang^2)
       XXX       2.6436    XXY      -0.0005    XYY      -2.6502
       YYY      -0.0015    XXZ     -24.6767    XYZ       0.0014
       YYZ     -24.6637    XZZ       0.0019    YZZ      -0.0037
       ZZZ     -72.2174
    Hexadecapole Moments (Debye-Ang^3)
      XXXX    -145.2748   XXXY       0.0021   XXYY     -48.4268
      XYYY       0.0008   YYYY    -145.3739   XXXZ       6.7819
      XXYZ      -0.0008   XYYZ      -6.8026   YYYZ      -0.0026
      XXZZ     -67.9430   XYZZ       0.0030   YYZZ     -67.9197
      XZZZ       0.0072   YZZZ      -0.0100   ZZZZ    -246.6252
 -----------------------------------------------------------------
 Total job time:  243.02s(wall), 242.01s(cpu) 
 Wed May 22 11:49:38 2013

        *************************************************************
        *                                                           *
        *  Thank you very much for using Q-Chem.  Have a nice day.  *
        *                                                           *
        *************************************************************


0 sent ACK to 0 
now end server 0 ... 
