Process 0 of 1 is on cl170.stfx.acenet.ca - thread support 1
initial socket setup ...start
initial socket setup ...done 
now start server 0 ... 

cmd = /usr/bin/ssh clhead /usr/local/qchem/bin/get_hostid 1455124571 > /scratch/tmp/5954907.1.medium.q/qchem32310/lic.dat
                  Welcome to Q-Chem
     A Quantum Leap Into The Future Of Chemistry

 Y. Shao, L. Fusti-Molnar, Y. Jung, J. Kussmann, C. Ochsenfeld,
 S. T. Brown, A. T. B. Gilbert, L. V. Slipchenko,S. V. Levchenko,
 D. P. O'Neill, R. A. DiStasio Jr., R. C. Lochan, T. Wang,
 G. J. O. Beran, N. A. Besley, J. M. Herbert, C. Y. Lin,
 T. Van Voorhis, S. H. Chien, A. Sodt, R. P. Steele, 
 V. A. Rassolov, P. E. Maslen, P. P. Korambath, R. D. Adamson,
 B. Austin, J. Baker, E. F. C. Byrd, H. Dachsel, R. J. Doerksen,
 A. Dreuw, B. D. Dunietz, A. D. Dutoi, T. R. Furlani,
 S. R. Gwaltney, A. Heyden, S. Hirata, C.-P. Hsu, G. Kedziora,
 R. Z. Khaliullin, P. Klunzinger, A. M. Lee, M. S. Lee, W. Liang,
 I. Lotan, N. Nair, B. Peters, E. I. Proynov, P. A. Pieniazek, 
 Y. M. Rhee, J. Ritchie, E. Rosta, C. D. Sherrill, 
 A. C. Simmonett, J. E. Subotnik, H. L. Woodcock III,
 W. Zhang, A. T. Bell, A. K. Chakraborty, D. M. Chipman,
 F. J. Keil, A. Warshel, W. J. Hehre, H. F. Schaefer III,
 J. Kong, A. I. Krylov, P. M. W. Gill, M. Head-Gordon,
 Q-Chem, Version 3.1, Q-Chem, Inc., Pittsburgh, PA (2007).

 Additional authors for Version 3.1: 
 Z. Gan, Y. Zhao, N. E. Schultz, D. Truhlar, E. Epifanovsky and M. Oana.

 Additional authors for Version 3.2: 
 R. Baer, B. R. Brooks, D. Casanova, J.-D. Chai, C.-L. Cheng, 
 C. Cramer, D. Crittenden, A. Ghysels, G. Hawkins, E. G. Hohenstein, 
 C. Kelley, W. Kurlancheek, D. Liotard, E. Livshits, P. Manohar, 
 A. Marenich, D. Neuhauser, R. Olson, M. A. Rohrdanz, K. S. Thanthiriwatte, 
 A. J. W. Thom, V. Vanovschi, C. F. Williams, Q. Wu and Z.-Q. You. 


 Intel X86 Linux Version

 Q-chem begins on Wed Apr 24 15:55:49 2013  

 Parallel job on  1  processors
Processing $rem in /usr/local/qchem/config/preferences.

theFileMan(): MAXOPENFILES=974 MAX_SUB_FILE_NUM=16
Maximum size of a physical file is 2.0 GB, maximum size of a tmp-file is 32.0 GB


--------------------------------------------------------------
User input:
--------------------------------------------------------------

$molecule
-1,2
C,-0.301099955,-1.1091315526,0.7344114371
O,-0.3127296016,0.329463745,0.7631762888
H,-0.6986887388,-1.4065121175,1.7044826967
H,0.7170681417,-1.4858547654,0.5992218023
H,-0.9316379175,-1.4856727664,-0.0764532137
N,0.1605192623,0.958228041,-0.3914229143
O,0.5122575277,0.2111903398,-1.2498962273

$end

$comment
negative
$end

$xc_functional
C PBE   1.00
X wPBE  1.00
$end

$rem
SYMMETRY_DECOMPOSITION	0
exchange 		general
LRC_DFT                 true
BASIS                   g3large
omega			100
mem_static              760
max_scf_cycles          200
scf_final_print         1
sym_ignore              true
$end

--------------------------------------------------------------
 Writing REM_CC_EA            7
 ----------------------------------------------------
       Standard Nuclear Orientation (Angstroms)
    I     Atom         X            Y            Z
 ----------------------------------------------------
    1      C      -0.301100    -1.109132     0.734411
    2      O      -0.312730     0.329464     0.763176
    3      H      -0.698689    -1.406512     1.704483
    4      H       0.717068    -1.485855     0.599222
    5      H      -0.931638    -1.485673    -0.076453
    6      N       0.160519     0.958228    -0.391423
    7      O       0.512258     0.211190    -1.249896
 ----------------------------------------------------
 Nuclear Repulsion Energy =   122.8117481126 hartrees
 There are       17 alpha and       16 beta electrons
 Requested basis set is G3large
 There are 58 shells and 198 basis functions

Total QAlloc Memory Limit   2000 MB
Mega-Array Size       743 MB
MEM_STATIC part       760 MB

                       Distance Matrix (Angstroms)
             C (  1)   O (  2)   H (  3)   H (  4)   H (  5)   N (  6)
   O (  2)  1.438930
   H (  3)  1.089748  2.012122
   H (  4)  1.094012  2.093501  1.797850
   H (  5)  1.094012  2.093501  1.797850  1.781788
   N (  6)  2.398869  1.397286  3.274608  2.695304  2.695304
   O (  7)  2.518388  2.178773  3.579344  2.518163  2.518163  1.191118

 
 A cutoff of  1.0D-08 yielded   1568 shell pairs
 There are  18510 function pairs ( 23394 Cartesian)
Evaluating contribution to one-electron hamiltonian from nuclear
 Smallest overlap matrix eigenvalue = 4.93E-04
 Multipole matrices computed through 2nd order

  Scale SEOQF with 1.000000e-01/1.000000e-01/1.000000e-01

 Standard Electronic Orientation quadrupole field applied
 Nucleus-field energy     =    -0.0000000009 hartrees
 Guess from superposition of atomic densities
 Warning:  Energy on first SCF cycle will be non-variational
 Long-range K will be added via erf
 Coulomb attenuation parameter = 0.1 bohr**(-1)
 An unrestricted Kohn-Sham SCF calculation will be
 performed using Pulay DIIS extrapolation
 Exchange:  wPBE + LR-HF      Correlation:  PBE
 Using SG-1 standard quadrature grid
 SCF converges when DIIS error is below 1.0E-05
 Requested basis set is G3large
 There are 58 shells and 198 basis functions
 A cutoff of  1.0D-08 yielded   1568 shell pairs
 There are  18510 function pairs ( 23394 Cartesian)
 Warning!  Inaccurate integrated density:
   Number of electrons =    33
   Numerical integral  =    31.999888492574
   Relative error      =    -3.0306409316 %
 ---------------------------------------
  Cycle       Energy         DIIS Error
 ---------------------------------------
    1    -245.4054871263      3.20E-02
    2    -244.6922544044      5.67E-03
    3    -243.5069978041      1.39E-02
    4    -244.7606505896      3.96E-03
    5    -244.8230769572      1.67E-03
    6    -244.8316504508      1.09E-03
    7    -244.8367668253      3.88E-04
    8    -244.8375895946      9.52E-05
    9    -244.8376801759      4.84E-05
   10    -244.8377892031      2.90E-05
   11    -244.8379812033      3.89E-05
   12    -244.8377198715      2.64E-05
   13    -244.8377528857      2.20E-05
   14    -244.8377250742      2.43E-05
   15    -244.8375841159      2.69E-05
   16    -244.8374556641      3.50E-05
   17    -244.8374440867      1.18E-05
   18    -244.8374420229      3.01E-06 Convergence criterion met
 ---------------------------------------
 One-Electron    Energy =  -585.9359762244
 Total Coulomb   Energy =   248.8772898036
 Alpha Exchange  Energy =    -0.9494196408
 Beta  Exchange  Energy =    -0.8934057643
 DFT   Exchange  Energy =   -27.6520824631
 DFT Correlation Energy =    -1.0955958456
 Nuclear Repu.   Energy =   122.8117481116
 Nuclear Attr.   Energy =  -830.6547269374
 Kinetic         Energy =   244.7187507130
 <S^2> = 0.7527
 SCF time:  CPU 224.33 s  wall 226.60 s
 Final Alpha MO Eigenvalues
            1           2           3           4           5           6
    1 -18.6037058 -18.5533521 -13.8533882  -9.7899025  -0.8878307  -0.7593496
            7           8           9          10          11          12
    1  -0.5159525  -0.3814907  -0.2914680  -0.2759456  -0.2612148  -0.2048922
           13          14          15          16          17          18
    1  -0.1896278  -0.1264443  -0.0908363  -0.0168761   0.1008150   0.1408702
           19          20          21          22
    1   0.1710446   0.1810739   0.2146716   0.2554174
 Final Beta MO Eigenvalues
            1           2           3           4           5           6
    1 -18.6015314 -18.5456703 -13.8408529  -9.7900296  -0.8745758  -0.7523847
            7           8           9          10          11          12
    1  -0.5113495  -0.3700452  -0.2846166  -0.2690951  -0.2546445  -0.1844342
           13          14          15          16          17          18
    1  -0.1717819  -0.1182235  -0.0744412  -0.0058910   0.1414576   0.1719011
           19          20          21
    1   0.1830896   0.2157552   0.2556268
 Analysis of SCF Wavefunction
 
 --------------------------------------------------------------
                    Orbital Energies (a.u.)
 --------------------------------------------------------------
 
 Alpha MOs
 -- Occupied --
-18.604 -18.553 -13.853  -9.790  -0.888  -0.759  -0.516  -0.381
 -0.291  -0.276  -0.261  -0.205  -0.190  -0.126  -0.091  -0.017
  0.101
 -- Virtual --
  0.141   0.171   0.181   0.215   0.255   0.266   0.281   0.302
  0.306   0.330   0.344   0.358   0.361   0.380   0.389   0.429
  0.445   0.446   0.467   0.469   0.503   0.525   0.575   0.597
  0.605   0.667   0.689   0.728   0.732   0.741   0.788   0.802
  0.889   0.974   1.000   1.013   1.033   1.040   1.118   1.126
  1.194   1.201   1.241   1.262   1.286   1.294   1.312   1.368
  1.383   1.386   1.415   1.439   1.440   1.519   1.529   1.569
  1.599   1.658   1.702   1.763   1.794   1.841   1.901   1.968
  2.084   2.103   2.208   2.212   2.352   2.398   2.508   2.575
  2.622   2.675   2.742   2.902   3.074   3.176   3.221   3.246
  3.277   3.378   3.449   3.512   3.518   3.598   3.614   3.771
  3.787   3.834   3.873   3.917   3.918   3.973   4.027   4.033
  4.125   4.173   4.241   4.268   4.310   4.415   4.459   4.469
  4.474   4.588   4.715   4.897   4.900   4.965   5.036   5.070
  5.151   5.171   5.222   5.240   5.263   5.317   5.342   5.402
  5.469   5.609   5.641   5.681   5.749   5.778   5.845   5.892
  6.104   6.255   6.534   6.735   6.781   6.945   7.010   7.115
  7.212   7.299   7.349   7.394   7.428   7.530   7.825   7.929
  8.026  24.299  28.022  28.057  28.124  35.827  37.408  37.806
 38.292  40.539  40.566  40.626  40.699  40.922  40.941  40.991
 41.174  41.210  41.262  43.778  43.800  43.825  43.869  43.887
 43.902  43.916  44.010  44.047  44.109  45.698  45.778  45.870
 45.989  46.408  46.602  49.913  50.159
 
 Beta MOs
 -- Occupied --
-18.602 -18.546 -13.841  -9.790  -0.875  -0.752  -0.511  -0.370
 -0.285  -0.269  -0.255  -0.184  -0.172  -0.118  -0.074  -0.006
 -- Virtual --
  0.141   0.172   0.183   0.216   0.256   0.262   0.267   0.283
  0.303   0.309   0.342   0.345   0.362   0.363   0.382   0.395
  0.431   0.451   0.455   0.472   0.472   0.505   0.527   0.578
  0.600   0.605   0.669   0.701   0.728   0.732   0.743   0.789
  0.804   0.892   0.981   1.016   1.028   1.041   1.046   1.129
  1.129   1.197   1.205   1.249   1.267   1.295   1.304   1.327
  1.372   1.395   1.396   1.418   1.441   1.454   1.525   1.531
  1.570   1.600   1.660   1.706   1.772   1.807   1.851   1.909
  1.984   2.089   2.106   2.217   2.223   2.373   2.404   2.511
  2.578   2.625   2.684   2.746   2.903   3.074   3.177   3.222
  3.246   3.278   3.379   3.452   3.513   3.519   3.600   3.617
  3.792   3.797   3.865   3.917   3.946   3.961   3.978   4.031
  4.036   4.153   4.182   4.246   4.270   4.313   4.419   4.463
  4.470   4.476   4.590   4.731   4.913   4.944   4.977   5.081
  5.087   5.170   5.191   5.241   5.255   5.303   5.328   5.361
  5.410   5.480   5.620   5.653   5.692   5.756   5.785   5.851
  5.897   6.118   6.257   6.537   6.766   6.787   6.977   7.024
  7.136   7.227   7.305   7.372   7.409   7.434   7.535   7.832
  7.937   8.030  24.299  28.022  28.057  28.124  35.842  37.444
 37.814  38.301  40.569  40.581  40.654  40.721  40.926  40.941
 40.991  41.174  41.209  41.262  43.795  43.814  43.837  43.881
 43.895  43.908  43.928  44.011  44.049  44.114  45.705  45.801
 45.875  45.990  46.410  46.606  49.915  50.166
 --------------------------------------------------------------
 
          Ground-State Mulliken Net Atomic Charges

     Atom                 Charge (a.u.)    Spin (a.u.)
  --------------------------------------------------------
      1 C                    -0.381812      -0.023032
      2 O                     0.061441       0.046251
      3 H                     0.039792      -0.003732
      4 H                     0.087498       0.011468
      5 H                     0.086447       0.012533
      6 N                    -0.542709       0.662033
      7 O                    -0.350657       0.294479
  --------------------------------------------------------
  Sum of atomic charges =    -1.000000
  Sum of spin   charges =     1.000000

 -----------------------------------------------------------------
                    Cartesian Multipole Moments
 -----------------------------------------------------------------
    Charge (ESU x 10^10)
                -4.8032
    Dipole Moment (Debye)
         X      -0.8519      Y      -3.1690      Z       2.0907
       Tot       3.8909
    Quadrupole Moments (Debye-Ang)
        XX     -28.8599     XY      -0.1184     YY     -32.7753
        XZ       2.3109     YZ       0.2540     ZZ     -33.5802
    Octapole Moments (Debye-Ang^2)
       XXX      -0.0973    XXY      -0.0031    XYY       0.1597
       YYY      -2.8171    XXZ       0.7467    XYZ       0.4804
       YYZ      -0.2875    XZZ      -2.1416    YZZ      -0.9329
       ZZZ       4.9079
    Hexadecapole Moments (Debye-Ang^3)
      XXXX     -69.1271   XXXY     -11.9810   XXYY     -41.6108
      XYYY     -13.8739   YYYY    -182.6091   XXXZ      23.9968
      XXYZ       9.4766   XYYZ       6.5987   YYYZ      33.4557
      XXZZ     -39.5736   XYZZ      -3.5563   YYZZ     -55.1186
      XZZZ      24.7192   YZZZ      27.9631   ZZZZ    -168.4416
 -----------------------------------------------------------------
 Total job time:  226.84s(wall), 224.56s(cpu) 
 Wed Apr 24 15:59:36 2013

        *************************************************************
        *                                                           *
        *  Thank you very much for using Q-Chem.  Have a nice day.  *
        *                                                           *
        *************************************************************


0 sent ACK to 0 
now end server 0 ... 
 
**********************************************************************
Job 2 of 3 
**********************************************************************
 
Process 0 of 1 is on cl170.stfx.acenet.ca - thread support 1
initial socket setup ...start
initial socket setup ...done 
now start server 0 ... 

cmd = /usr/bin/ssh clhead /usr/local/qchem/bin/get_hostid 237213827 > /scratch/tmp/5954907.1.medium.q/qchem32310/lic.dat
                  Welcome to Q-Chem
     A Quantum Leap Into The Future Of Chemistry

 Y. Shao, L. Fusti-Molnar, Y. Jung, J. Kussmann, C. Ochsenfeld,
 S. T. Brown, A. T. B. Gilbert, L. V. Slipchenko,S. V. Levchenko,
 D. P. O'Neill, R. A. DiStasio Jr., R. C. Lochan, T. Wang,
 G. J. O. Beran, N. A. Besley, J. M. Herbert, C. Y. Lin,
 T. Van Voorhis, S. H. Chien, A. Sodt, R. P. Steele, 
 V. A. Rassolov, P. E. Maslen, P. P. Korambath, R. D. Adamson,
 B. Austin, J. Baker, E. F. C. Byrd, H. Dachsel, R. J. Doerksen,
 A. Dreuw, B. D. Dunietz, A. D. Dutoi, T. R. Furlani,
 S. R. Gwaltney, A. Heyden, S. Hirata, C.-P. Hsu, G. Kedziora,
 R. Z. Khaliullin, P. Klunzinger, A. M. Lee, M. S. Lee, W. Liang,
 I. Lotan, N. Nair, B. Peters, E. I. Proynov, P. A. Pieniazek, 
 Y. M. Rhee, J. Ritchie, E. Rosta, C. D. Sherrill, 
 A. C. Simmonett, J. E. Subotnik, H. L. Woodcock III,
 W. Zhang, A. T. Bell, A. K. Chakraborty, D. M. Chipman,
 F. J. Keil, A. Warshel, W. J. Hehre, H. F. Schaefer III,
 J. Kong, A. I. Krylov, P. M. W. Gill, M. Head-Gordon,
 Q-Chem, Version 3.1, Q-Chem, Inc., Pittsburgh, PA (2007).

 Additional authors for Version 3.1: 
 Z. Gan, Y. Zhao, N. E. Schultz, D. Truhlar, E. Epifanovsky and M. Oana.

 Additional authors for Version 3.2: 
 R. Baer, B. R. Brooks, D. Casanova, J.-D. Chai, C.-L. Cheng, 
 C. Cramer, D. Crittenden, A. Ghysels, G. Hawkins, E. G. Hohenstein, 
 C. Kelley, W. Kurlancheek, D. Liotard, E. Livshits, P. Manohar, 
 A. Marenich, D. Neuhauser, R. Olson, M. A. Rohrdanz, K. S. Thanthiriwatte, 
 A. J. W. Thom, V. Vanovschi, C. F. Williams, Q. Wu and Z.-Q. You. 


 Intel X86 Linux Version

 Q-chem begins on Wed Apr 24 15:59:39 2013  

 Parallel job on  1  processors
Processing $rem in /usr/local/qchem/config/preferences.

theFileMan(): MAXOPENFILES=974 MAX_SUB_FILE_NUM=16
Maximum size of a physical file is 2.0 GB, maximum size of a tmp-file is 32.0 GB


--------------------------------------------------------------
User input:
--------------------------------------------------------------

$molecule
0,1
C,-0.301099955,-1.1091315526,0.7344114371
O,-0.3127296016,0.329463745,0.7631762888
H,-0.6986887388,-1.4065121175,1.7044826967
H,0.7170681417,-1.4858547654,0.5992218023
H,-0.9316379175,-1.4856727664,-0.0764532137
N,0.1605192623,0.958228041,-0.3914229143
O,0.5122575277,0.2111903398,-1.2498962273

$end

$comment
neutral
$end

$xc_functional
C PBE   1.00
X wPBE  1.00
$end


$rem
SYMMETRY_DECOMPOSITION	0
LRC_DFT                 true
exchange 		general
BASIS                   g3large
omega			100
mem_static              760
max_scf_cycles          200
scf_final_print         1
sym_ignore              true
$end

--------------------------------------------------------------
 Writing REM_CC_EA            7
 ----------------------------------------------------
       Standard Nuclear Orientation (Angstroms)
    I     Atom         X            Y            Z
 ----------------------------------------------------
    1      C      -0.301100    -1.109132     0.734411
    2      O      -0.312730     0.329464     0.763176
    3      H      -0.698689    -1.406512     1.704483
    4      H       0.717068    -1.485855     0.599222
    5      H      -0.931638    -1.485673    -0.076453
    6      N       0.160519     0.958228    -0.391423
    7      O       0.512258     0.211190    -1.249896
 ----------------------------------------------------
 Nuclear Repulsion Energy =   122.8117481126 hartrees
 There are       16 alpha and       16 beta electrons
 Requested basis set is G3large
 There are 58 shells and 198 basis functions

Total QAlloc Memory Limit   2000 MB
Mega-Array Size       743 MB
MEM_STATIC part       760 MB

                       Distance Matrix (Angstroms)
             C (  1)   O (  2)   H (  3)   H (  4)   H (  5)   N (  6)
   O (  2)  1.438930
   H (  3)  1.089748  2.012122
   H (  4)  1.094012  2.093501  1.797850
   H (  5)  1.094012  2.093501  1.797850  1.781788
   N (  6)  2.398869  1.397286  3.274608  2.695304  2.695304
   O (  7)  2.518388  2.178773  3.579344  2.518163  2.518163  1.191118

 
 A cutoff of  1.0D-08 yielded   1568 shell pairs
 There are  18510 function pairs ( 23394 Cartesian)
Evaluating contribution to one-electron hamiltonian from nuclear
 Smallest overlap matrix eigenvalue = 4.93E-04
 Multipole matrices computed through 2nd order

  Scale SEOQF with 1.000000e-01/1.000000e-01/1.000000e-01

 Standard Electronic Orientation quadrupole field applied
 Nucleus-field energy     =    -0.0000000009 hartrees
 Guess from superposition of atomic densities
 Warning:  Energy on first SCF cycle will be non-variational
 Long-range K will be added via erf
 Coulomb attenuation parameter = 0.1 bohr**(-1)
 A restricted Kohn-Sham SCF calculation will be
 performed using Pulay DIIS extrapolation
 Exchange:  wPBE + LR-HF      Correlation:  PBE
 Using SG-1 standard quadrature grid
 SCF converges when DIIS error is below 1.0E-05
 Requested basis set is G3large
 There are 58 shells and 198 basis functions
 A cutoff of  1.0D-08 yielded   1568 shell pairs
 There are  18510 function pairs ( 23394 Cartesian)
 ---------------------------------------
  Cycle       Energy         DIIS Error
 ---------------------------------------
    1    -245.4054871263      3.20E-02
    2    -244.7456791154      5.58E-03
    3    -244.4823698415      1.07E-02
    4    -244.8500164826      1.40E-03
    5    -244.8519801281      1.17E-03
    6    -244.8566393913      2.57E-04
    7    -244.8568487710      7.14E-05
    8    -244.8568713708      9.13E-06 Convergence criterion met
 ---------------------------------------
 One-Electron    Energy =  -577.2944931569
 Total Coulomb   Energy =   239.8754576306
 Alpha Exchange  Energy =    -0.8942721171
 Beta  Exchange  Energy =    -0.8942721171
 DFT   Exchange  Energy =   -27.3939955391
 DFT Correlation Energy =    -1.0670441828
 Nuclear Repu.   Energy =   122.8117481116
 Nuclear Attr.   Energy =  -821.5615139784
 Kinetic         Energy =   244.2670208215
 SCF time:  CPU 78.83 s  wall 80.50 s
 Final Alpha MO Eigenvalues
            1           2           3           4           5           6
    1 -18.8826352 -18.8742264 -14.2018058 -10.0021550  -1.1876704  -1.0353907
            7           8           9          10          11          12
    1  -0.7600702  -0.6292570  -0.5610139  -0.5280735  -0.5152667  -0.4573998
           13          14          15          16          17          18
    1  -0.4354178  -0.3892317  -0.3489007  -0.2970005  -0.0683257   0.0189842
           19          20          21
    1   0.0515229   0.0557257   0.0597371
 Analysis of SCF Wavefunction
 
 --------------------------------------------------------------
                    Orbital Energies (a.u.)
 --------------------------------------------------------------
 
 Alpha MOs
 -- Occupied --
-18.883 -18.874 -14.202 -10.002  -1.188  -1.035  -0.760  -0.629
 -0.561  -0.528  -0.515  -0.457  -0.435  -0.389  -0.349  -0.297
 -- Virtual --
 -0.068   0.019   0.052   0.056   0.060   0.108   0.115   0.126
  0.133   0.147   0.155   0.157   0.170   0.188   0.190   0.199
  0.240   0.262   0.265   0.290   0.296   0.315   0.344   0.375
  0.401   0.423   0.426   0.486   0.546   0.551   0.561   0.593
  0.607   0.675   0.738   0.758   0.801   0.804   0.837   0.877
  0.904   0.981   0.984   1.008   1.041   1.044   1.068   1.090
  1.128   1.157   1.161   1.191   1.199   1.225   1.303   1.313
  1.363   1.405   1.439   1.491   1.519   1.527   1.599   1.648
  1.700   1.838   1.844   1.947   1.951   2.086   2.151   2.262
  2.360   2.375   2.409   2.513   2.689   2.867   2.960   3.006
  3.031   3.062   3.157   3.222   3.288   3.297   3.377   3.392
  3.488   3.536   3.577   3.587   3.632   3.634   3.759   3.777
  3.822   3.833   3.900   3.985   4.064   4.089   4.150   4.237
  4.254   4.259   4.378   4.412   4.606   4.609   4.680   4.744
  4.809   4.882   4.925   4.936   4.956   4.973   5.049   5.056
  5.129   5.195   5.335   5.362   5.428   5.490   5.505   5.598
  5.650   5.827   5.982   6.279   6.433   6.495   6.652   6.717
  6.823   6.938   7.018   7.061   7.125   7.137   7.249   7.539
  7.649   7.745  24.086  27.809  27.845  27.912  35.483  37.068
 37.461  37.947  40.198  40.222  40.283  40.354  40.575  40.729
 40.777  40.962  40.997  41.050  43.467  43.490  43.537  43.559
 43.595  43.606  43.631  43.729  43.759  43.799  45.420  45.462
 45.554  45.709  46.122  46.290  49.634  49.840
 --------------------------------------------------------------
 
          Ground-State Mulliken Net Atomic Charges

     Atom                 Charge (a.u.)
  ----------------------------------------
      1 C                    -0.266565
      2 O                     0.103074
      3 H                     0.118877
      4 H                     0.139834
      5 H                     0.139829
      6 N                    -0.198675
      7 O                    -0.036374
  ----------------------------------------
  Sum of atomic charges =     0.000000

 -----------------------------------------------------------------
                    Cartesian Multipole Moments
 -----------------------------------------------------------------
    Charge (ESU x 10^10)
                 0.0000
    Dipole Moment (Debye)
         X      -0.3973      Y      -2.1044      Z       0.9695
       Tot       2.3508
    Quadrupole Moments (Debye-Ang)
        XX     -22.7314     XY       0.6114     YY     -23.1190
        XZ       0.8805     YZ      -1.4927     ZZ     -24.5193
    Octapole Moments (Debye-Ang^2)
       XXX       1.4166    XXY      -0.2326    XYY      -0.2726
       YYY      -2.2992    XXZ      -0.4821    XYZ       0.8250
       YYZ       0.6655    XZZ      -1.8428    YZZ      -1.9072
       ZZZ       1.5218
    Hexadecapole Moments (Debye-Ang^3)
      XXXX     -43.9552   XXXY     -10.4084   XXYY     -26.7099
      XYYY     -10.3049   YYYY    -127.6302   XXXZ      20.6753
      XXYZ       8.0373   XYYZ       6.5369   YYYZ      25.1277
      XXZZ     -28.2984   XYZZ      -2.0031   YYZZ     -39.9781
      XZZZ      19.6304   YZZZ      22.2299   ZZZZ    -125.7697
 -----------------------------------------------------------------
 Total job time:  80.73s(wall), 79.05s(cpu) 
 Wed Apr 24 16:01:00 2013

        *************************************************************
        *                                                           *
        *  Thank you very much for using Q-Chem.  Have a nice day.  *
        *                                                           *
        *************************************************************


0 sent ACK to 0 
now end server 0 ... 
 
**********************************************************************
Job 3 of 3 
**********************************************************************
 
Process 0 of 1 is on cl170.stfx.acenet.ca - thread support 1
initial socket setup ...start
initial socket setup ...done 
now start server 0 ... 

cmd = /usr/bin/ssh clhead /usr/local/qchem/bin/get_hostid 1840482480 > /scratch/tmp/5954907.1.medium.q/qchem32310/lic.dat
                  Welcome to Q-Chem
     A Quantum Leap Into The Future Of Chemistry

 Y. Shao, L. Fusti-Molnar, Y. Jung, J. Kussmann, C. Ochsenfeld,
 S. T. Brown, A. T. B. Gilbert, L. V. Slipchenko,S. V. Levchenko,
 D. P. O'Neill, R. A. DiStasio Jr., R. C. Lochan, T. Wang,
 G. J. O. Beran, N. A. Besley, J. M. Herbert, C. Y. Lin,
 T. Van Voorhis, S. H. Chien, A. Sodt, R. P. Steele, 
 V. A. Rassolov, P. E. Maslen, P. P. Korambath, R. D. Adamson,
 B. Austin, J. Baker, E. F. C. Byrd, H. Dachsel, R. J. Doerksen,
 A. Dreuw, B. D. Dunietz, A. D. Dutoi, T. R. Furlani,
 S. R. Gwaltney, A. Heyden, S. Hirata, C.-P. Hsu, G. Kedziora,
 R. Z. Khaliullin, P. Klunzinger, A. M. Lee, M. S. Lee, W. Liang,
 I. Lotan, N. Nair, B. Peters, E. I. Proynov, P. A. Pieniazek, 
 Y. M. Rhee, J. Ritchie, E. Rosta, C. D. Sherrill, 
 A. C. Simmonett, J. E. Subotnik, H. L. Woodcock III,
 W. Zhang, A. T. Bell, A. K. Chakraborty, D. M. Chipman,
 F. J. Keil, A. Warshel, W. J. Hehre, H. F. Schaefer III,
 J. Kong, A. I. Krylov, P. M. W. Gill, M. Head-Gordon,
 Q-Chem, Version 3.1, Q-Chem, Inc., Pittsburgh, PA (2007).

 Additional authors for Version 3.1: 
 Z. Gan, Y. Zhao, N. E. Schultz, D. Truhlar, E. Epifanovsky and M. Oana.

 Additional authors for Version 3.2: 
 R. Baer, B. R. Brooks, D. Casanova, J.-D. Chai, C.-L. Cheng, 
 C. Cramer, D. Crittenden, A. Ghysels, G. Hawkins, E. G. Hohenstein, 
 C. Kelley, W. Kurlancheek, D. Liotard, E. Livshits, P. Manohar, 
 A. Marenich, D. Neuhauser, R. Olson, M. A. Rohrdanz, K. S. Thanthiriwatte, 
 A. J. W. Thom, V. Vanovschi, C. F. Williams, Q. Wu and Z.-Q. You. 


 Intel X86 Linux Version

 Q-chem begins on Wed Apr 24 16:01:03 2013  

 Parallel job on  1  processors
Processing $rem in /usr/local/qchem/config/preferences.

theFileMan(): MAXOPENFILES=974 MAX_SUB_FILE_NUM=16
Maximum size of a physical file is 2.0 GB, maximum size of a tmp-file is 32.0 GB


--------------------------------------------------------------
User input:
--------------------------------------------------------------

$molecule
1,2
C,-0.301099955,-1.1091315526,0.7344114371
O,-0.3127296016,0.329463745,0.7631762888
H,-0.6986887388,-1.4065121175,1.7044826967
H,0.7170681417,-1.4858547654,0.5992218023
H,-0.9316379175,-1.4856727664,-0.0764532137
N,0.1605192623,0.958228041,-0.3914229143
O,0.5122575277,0.2111903398,-1.2498962273

$end

$comment
positive
$end

$xc_functional
C PBE   1.00
X wPBE  1.00
$end

$rem
SYMMETRY_DECOMPOSITION	0
LRC_DFT                 true
exchange 		general
BASIS                   g3large
omega			100
mem_static              760
max_scf_cycles          200
scf_final_print         1
sym_ignore              true
$end

--------------------------------------------------------------
 Writing REM_CC_EA            7
 ----------------------------------------------------
       Standard Nuclear Orientation (Angstroms)
    I     Atom         X            Y            Z
 ----------------------------------------------------
    1      C      -0.301100    -1.109132     0.734411
    2      O      -0.312730     0.329464     0.763176
    3      H      -0.698689    -1.406512     1.704483
    4      H       0.717068    -1.485855     0.599222
    5      H      -0.931638    -1.485673    -0.076453
    6      N       0.160519     0.958228    -0.391423
    7      O       0.512258     0.211190    -1.249896
 ----------------------------------------------------
 Nuclear Repulsion Energy =   122.8117481126 hartrees
 There are       16 alpha and       15 beta electrons
 Requested basis set is G3large
 There are 58 shells and 198 basis functions

Total QAlloc Memory Limit   2000 MB
Mega-Array Size       743 MB
MEM_STATIC part       760 MB

                       Distance Matrix (Angstroms)
             C (  1)   O (  2)   H (  3)   H (  4)   H (  5)   N (  6)
   O (  2)  1.438930
   H (  3)  1.089748  2.012122
   H (  4)  1.094012  2.093501  1.797850
   H (  5)  1.094012  2.093501  1.797850  1.781788
   N (  6)  2.398869  1.397286  3.274608  2.695304  2.695304
   O (  7)  2.518388  2.178773  3.579344  2.518163  2.518163  1.191118

 
 A cutoff of  1.0D-08 yielded   1568 shell pairs
 There are  18510 function pairs ( 23394 Cartesian)
Evaluating contribution to one-electron hamiltonian from nuclear
 Smallest overlap matrix eigenvalue = 4.93E-04
 Multipole matrices computed through 2nd order

  Scale SEOQF with 1.000000e-01/1.000000e-01/1.000000e-01

 Standard Electronic Orientation quadrupole field applied
 Nucleus-field energy     =    -0.0000000009 hartrees
 Guess from superposition of atomic densities
 Warning:  Energy on first SCF cycle will be non-variational
 Long-range K will be added via erf
 Coulomb attenuation parameter = 0.1 bohr**(-1)
 An unrestricted Kohn-Sham SCF calculation will be
 performed using Pulay DIIS extrapolation
 Exchange:  wPBE + LR-HF      Correlation:  PBE
 Using SG-1 standard quadrature grid
 SCF converges when DIIS error is below 1.0E-05
 Requested basis set is G3large
 There are 58 shells and 198 basis functions
 A cutoff of  1.0D-08 yielded   1568 shell pairs
 There are  18510 function pairs ( 23394 Cartesian)
 Warning!  Inaccurate integrated density:
   Number of electrons =    31
   Numerical integral  =    31.999888492574
   Relative error      =     3.2254467502 %
 ---------------------------------------
  Cycle       Energy         DIIS Error
 ---------------------------------------
    1    -245.4054871263      3.20E-02
    2    -244.2785415246      6.27E-03
    3    -243.2893212517      1.64E-02
    4    -244.4120999469      3.55E-03
    5    -244.4295250060      3.02E-03
    6    -244.4633604264      3.72E-04
    7    -244.4639878048      1.02E-04
    8    -244.4640680839      2.87E-05
    9    -244.4640806051      2.90E-05
   10    -244.4640862610      1.29E-05
   11    -244.4640899456      4.25E-06 Convergence criterion met
 ---------------------------------------
 One-Electron    Energy =  -567.6148580861
 Total Coulomb   Energy =   230.1997331875
 Alpha Exchange  Energy =    -0.8947661296
 Beta  Exchange  Energy =    -0.8382918330
 DFT   Exchange  Energy =   -27.0987196578
 DFT Correlation Energy =    -1.0289355383
 Nuclear Repu.   Energy =   122.8117481116
 Nuclear Attr.   Energy =  -811.3867727590
 Kinetic         Energy =   243.7719146729
 <S^2> = 0.7537
 SCF time:  CPU 132.72 s  wall 133.99 s
 Final Alpha MO Eigenvalues
            1           2           3           4           5           6
    1 -19.2577609 -19.2160791 -14.5512678 -10.2436504  -1.5316615  -1.3562030
            7           8           9          10          11          12
    1  -1.0561075  -0.9223395  -0.8746095  -0.8409203  -0.8317979  -0.7268562
           13          14          15          16          17          18
    1  -0.7178410  -0.6665629  -0.6485150  -0.6298841  -0.3902833  -0.2007869
           19          20          21
    1  -0.1405314  -0.1346227  -0.0956624
 Final Beta MO Eigenvalues
            1           2           3           4           5           6
    1 -19.2438103 -19.2110807 -14.5455194 -10.2433361  -1.5145213  -1.3410339
            7           8           9          10          11          12
    1  -1.0423694  -0.9058865  -0.8543931  -0.8315874  -0.8061247  -0.7230290
           13          14          15          16          17          18
    1  -0.7026629  -0.6568040  -0.6261752  -0.4890104  -0.3772905  -0.1816344
           19          20
    1  -0.1388977  -0.1295098
 Analysis of SCF Wavefunction
 
 --------------------------------------------------------------
                    Orbital Energies (a.u.)
 --------------------------------------------------------------
 
 Alpha MOs
 -- Occupied --
-19.258 -19.216 -14.551 -10.244  -1.532  -1.356  -1.056  -0.922
 -0.875  -0.841  -0.832  -0.727  -0.718  -0.667  -0.649  -0.630
 -- Virtual --
 -0.390  -0.201  -0.141  -0.135  -0.096  -0.088  -0.069  -0.056
 -0.049  -0.036  -0.023  -0.014  -0.002   0.014   0.019   0.025
  0.049   0.065   0.075   0.083   0.104   0.123   0.157   0.163
  0.184   0.205   0.237   0.287   0.341   0.356   0.374   0.377
  0.410   0.435   0.481   0.500   0.550   0.579   0.589   0.638
  0.657   0.731   0.735   0.756   0.782   0.806   0.808   0.842
  0.870   0.920   0.922   0.933   0.963   0.986   1.060   1.064
  1.123   1.184   1.206   1.237   1.240   1.282   1.341   1.364
  1.398   1.537   1.580   1.648   1.656   1.793   1.874   1.983
  2.079   2.116   2.124   2.268   2.454   2.636   2.717   2.765
  2.786   2.824   2.901   2.962   3.033   3.057   3.119   3.142
  3.174   3.238   3.275   3.300   3.318   3.338   3.482   3.501
  3.533   3.585   3.595   3.702   3.818   3.836   3.874   3.993
  4.012   4.022   4.077   4.142   4.270   4.271   4.347   4.413
  4.492   4.559   4.586   4.593   4.645   4.671   4.717   4.738
  4.815   4.880   5.009   5.037   5.121   5.169   5.228   5.327
  5.387   5.509   5.663   5.985   6.091   6.163   6.273   6.352
  6.459   6.616   6.676   6.730   6.793   6.816   6.917   7.196
  7.328   7.420  23.845  27.566  27.604  27.671  35.136  36.722
 37.107  37.601  39.850  39.872  39.932  40.010  40.224  40.488
 40.534  40.720  40.754  40.809  43.076  43.096  43.178  43.194
 43.222  43.275  43.301  43.386  43.397  43.445  45.084  45.093
 45.157  45.375  45.776  45.924  49.301  49.461
 
 Beta MOs
 -- Occupied --
-19.244 -19.211 -14.546 -10.243  -1.515  -1.341  -1.042  -0.906
 -0.854  -0.832  -0.806  -0.723  -0.703  -0.657  -0.626
 -- Virtual --
 -0.489  -0.377  -0.182  -0.139  -0.130  -0.095  -0.086  -0.065
 -0.052  -0.049  -0.032  -0.021  -0.011  -0.001   0.016   0.019
  0.026   0.053   0.076   0.077   0.085   0.105   0.124   0.159
  0.168   0.189   0.208   0.238   0.290   0.342   0.358   0.375
  0.378   0.413   0.443   0.494   0.505   0.556   0.584   0.597
  0.640   0.662   0.736   0.741   0.763   0.787   0.812   0.816
  0.860   0.877   0.926   0.927   0.936   0.970   0.996   1.069
  1.071   1.129   1.190   1.211   1.249   1.252   1.285   1.345
  1.374   1.417   1.552   1.582   1.665   1.669   1.801   1.883
  1.993   2.094   2.125   2.130   2.274   2.456   2.636   2.719
  2.766   2.791   2.824   2.908   2.968   3.037   3.059   3.125
  3.146   3.189   3.250   3.282   3.307   3.326   3.344   3.496
  3.507   3.535   3.587   3.610   3.711   3.828   3.838   3.879
  3.998   4.015   4.023   4.089   4.143   4.292   4.299   4.374
  4.429   4.516   4.580   4.621   4.636   4.657   4.680   4.749
  4.752   4.831   4.895   5.030   5.053   5.142   5.183   5.235
  5.337   5.389   5.523   5.685   5.993   6.103   6.183   6.331
  6.402   6.506   6.628   6.705   6.741   6.821   6.823   6.939
  7.218   7.344   7.443  23.845  27.567  27.604  27.672  35.141
 36.727  37.122  37.605  39.855  39.880  39.942  40.011  40.232
 40.488  40.535  40.720  40.755  40.809  43.108  43.133  43.195
 43.209  43.238  43.279  43.304  43.401  43.411  43.463  45.090
 45.098  45.196  45.384  45.786  45.935  49.307  49.475
 --------------------------------------------------------------
 
          Ground-State Mulliken Net Atomic Charges

     Atom                 Charge (a.u.)    Spin (a.u.)
  --------------------------------------------------------
      1 C                    -0.191649       0.046655
      2 O                     0.247632       0.141202
      3 H                     0.183738       0.014452
      4 H                     0.183328      -0.006106
      5 H                     0.183292      -0.006187
      6 N                     0.053763       0.258799
      7 O                     0.339897       0.551184
  --------------------------------------------------------
  Sum of atomic charges =     1.000000
  Sum of spin   charges =     1.000000

 -----------------------------------------------------------------
                    Cartesian Multipole Moments
 -----------------------------------------------------------------
    Charge (ESU x 10^10)
                 4.8032
    Dipole Moment (Debye)
         X      -0.0614      Y      -1.4056      Z       0.1484
       Tot       1.4148
    Quadrupole Moments (Debye-Ang)
        XX     -19.1016     XY       1.5511     YY     -14.7955
        XZ      -1.2427     YZ      -3.7858     ZZ     -16.5824
    Octapole Moments (Debye-Ang^2)
       XXX       1.4572    XXY      -0.8708    XYY      -0.7291
       YYY      -2.4313    XXZ      -0.7401    XYZ       0.8194
       YYZ       1.7733    XZZ      -1.0525    YZZ      -2.5292
       ZZZ      -0.2553
    Hexadecapole Moments (Debye-Ang^3)
      XXXX     -35.7215   XXXY      -8.7541   XXYY     -20.0477
      XYYY      -6.8968   YYYY     -94.3899   XXXZ      17.6187
      XXYZ       6.1979   XYYZ       4.5303   YYYZ      16.8183
      XXZZ     -22.1409   XYZZ       0.2554   YYZZ     -29.2500
      XZZZ      12.4765   YZZZ      14.5229   ZZZZ     -96.8164
 -----------------------------------------------------------------
 Total job time:  134.23s(wall), 132.94s(cpu) 
 Wed Apr 24 16:03:17 2013

        *************************************************************
        *                                                           *
        *  Thank you very much for using Q-Chem.  Have a nice day.  *
        *                                                           *
        *************************************************************


0 sent ACK to 0 
now end server 0 ... 
