Process 0 of 1 is on cl031.stfx.acenet.ca - thread support 1
initial socket setup ...start
initial socket setup ...done 
now start server 0 ... 

cmd = /usr/bin/ssh clhead /usr/local/qchem/bin/get_hostid 1691100025 > /scratch/tmp/6064009.1.short.q/qchem24706/lic.dat
                  Welcome to Q-Chem
     A Quantum Leap Into The Future Of Chemistry

 Y. Shao, L. Fusti-Molnar, Y. Jung, J. Kussmann, C. Ochsenfeld,
 S. T. Brown, A. T. B. Gilbert, L. V. Slipchenko,S. V. Levchenko,
 D. P. O'Neill, R. A. DiStasio Jr., R. C. Lochan, T. Wang,
 G. J. O. Beran, N. A. Besley, J. M. Herbert, C. Y. Lin,
 T. Van Voorhis, S. H. Chien, A. Sodt, R. P. Steele, 
 V. A. Rassolov, P. E. Maslen, P. P. Korambath, R. D. Adamson,
 B. Austin, J. Baker, E. F. C. Byrd, H. Dachsel, R. J. Doerksen,
 A. Dreuw, B. D. Dunietz, A. D. Dutoi, T. R. Furlani,
 S. R. Gwaltney, A. Heyden, S. Hirata, C.-P. Hsu, G. Kedziora,
 R. Z. Khaliullin, P. Klunzinger, A. M. Lee, M. S. Lee, W. Liang,
 I. Lotan, N. Nair, B. Peters, E. I. Proynov, P. A. Pieniazek, 
 Y. M. Rhee, J. Ritchie, E. Rosta, C. D. Sherrill, 
 A. C. Simmonett, J. E. Subotnik, H. L. Woodcock III,
 W. Zhang, A. T. Bell, A. K. Chakraborty, D. M. Chipman,
 F. J. Keil, A. Warshel, W. J. Hehre, H. F. Schaefer III,
 J. Kong, A. I. Krylov, P. M. W. Gill, M. Head-Gordon,
 Q-Chem, Version 3.1, Q-Chem, Inc., Pittsburgh, PA (2007).

 Additional authors for Version 3.1: 
 Z. Gan, Y. Zhao, N. E. Schultz, D. Truhlar, E. Epifanovsky and M. Oana.

 Additional authors for Version 3.2: 
 R. Baer, B. R. Brooks, D. Casanova, J.-D. Chai, C.-L. Cheng, 
 C. Cramer, D. Crittenden, A. Ghysels, G. Hawkins, E. G. Hohenstein, 
 C. Kelley, W. Kurlancheek, D. Liotard, E. Livshits, P. Manohar, 
 A. Marenich, D. Neuhauser, R. Olson, M. A. Rohrdanz, K. S. Thanthiriwatte, 
 A. J. W. Thom, V. Vanovschi, C. F. Williams, Q. Wu and Z.-Q. You. 


 Intel X86 Linux Version

 Q-chem begins on Sun Jul  7 09:39:34 2013  

 Parallel job on  1  processors
Processing $rem in /usr/local/qchem/config/preferences.

theFileMan(): MAXOPENFILES=974 MAX_SUB_FILE_NUM=16
Maximum size of a physical file is 2.0 GB, maximum size of a tmp-file is 32.0 GB


--------------------------------------------------------------
User input:
--------------------------------------------------------------

$molecule
-1,2
C         -0.00003        0.00000        0.00511
H         -0.00008        0.00000        1.10256
C          1.44877        0.00000       -0.46691
H          1.49564        0.00000       -1.56124
H          1.98463        0.88451       -0.11125
H          1.98463       -0.88451       -0.11125
C         -0.72447       -1.25474       -0.46680
H         -0.74778       -1.29553       -1.56115
H         -0.22608       -2.16083       -0.11114
H         -1.75845       -1.27686       -0.11130
C         -0.72447        1.25474       -0.46680
H         -0.74778        1.29553       -1.56115
H         -1.75845        1.27686       -0.11130
H         -0.22608        2.16083       -0.11114
$end

$comment
negative
$end

$xc_functional
C PBE   1.00
X wPBE  1.00
$end

$rem
SYMMETRY_DECOMPOSITION	0
exchange 		general
LRC_DFT                 true
BASIS                   g3large
omega			430
mem_static              760
max_scf_cycles          200
scf_final_print         1
sym_ignore              true
$end

--------------------------------------------------------------
 Writing REM_CC_EA           14
 ----------------------------------------------------
       Standard Nuclear Orientation (Angstroms)
    I     Atom         X            Y            Z
 ----------------------------------------------------
    1      C      -0.000030     0.000000     0.005110
    2      H      -0.000080     0.000000     1.102560
    3      C       1.448770     0.000000    -0.466910
    4      H       1.495640     0.000000    -1.561240
    5      H       1.984630     0.884510    -0.111250
    6      H       1.984630    -0.884510    -0.111250
    7      C      -0.724470    -1.254740    -0.466800
    8      H      -0.747780    -1.295530    -1.561150
    9      H      -0.226080    -2.160830    -0.111140
   10      H      -1.758450    -1.276860    -0.111300
   11      C      -0.724470     1.254740    -0.466800
   12      H      -0.747780     1.295530    -1.561150
   13      H      -1.758450     1.276860    -0.111300
   14      H      -0.226080     2.160830    -0.111140
 ----------------------------------------------------
 Nuclear Repulsion Energy =   134.9570436455 hartrees
 There are       18 alpha and       17 beta electrons
 Requested basis set is G3large
 There are 100 shells and 268 basis functions

Total QAlloc Memory Limit   2000 MB
Mega-Array Size       743 MB
MEM_STATIC part       760 MB

                       Distance Matrix (Angstroms)
             C (  1)   H (  2)   C (  3)   H (  4)   H (  5)   H (  6)
   H (  2)  1.097450
   C (  3)  1.523753  2.135978
   H (  4)  2.165752  3.054997  1.095333
   H (  5)  2.175953  2.488929  1.093617  1.767467
   H (  6)  2.175953  2.488929  1.093617  1.767467  1.769020
   C (  7)  1.523773  2.135885  2.509451  2.775078  3.470163  2.757301
   H (  8)  2.165802  3.054964  2.774994  2.590624  3.784290  3.120451
   H (  9)  2.175730  2.488640  2.756970  3.120304  3.763155  2.552691
   H ( 10)  2.176227  2.489115  3.470316  3.784415  4.322287  3.763587
   C ( 11)  1.523773  2.135885  2.509451  2.775078  2.757301  3.470163
   H ( 12)  2.165802  3.054964  2.774994  2.590624  3.120451  3.784290
   H ( 13)  2.176227  2.489115  3.470316  3.784415  3.763587  4.322287
   H ( 14)  2.175730  2.488640  2.756970  3.120304  2.552691  3.763155
             C (  7)   H (  8)   H (  9)   H ( 10)   C ( 11)   H ( 12)
   H (  8)  1.095358
   H (  9)  1.093566  1.767327
   H ( 10)  1.093611  1.767447  1.769056
   C ( 11)  2.509480  2.775252  3.470015  2.757625
   H ( 12)  2.775252  2.591060  3.784326  3.121011  1.095358
   H ( 13)  2.757625  3.121011  3.763757  2.553720  1.093611  1.767447
   H ( 14)  3.470015  3.784326  4.321660  3.763757  1.093566  1.767327
             H ( 13)
   H ( 14)  1.769056
 
 A cutoff of  1.0D-08 yielded   4705 shell pairs
 There are  33835 function pairs ( 40339 Cartesian)
Evaluating contribution to one-electron hamiltonian from nuclear
 Smallest overlap matrix eigenvalue = 3.17E-05

 Q-Chem warning in module mkSTV.C, line 194:

 Overlap eigenvalue is smaller than square root of threshold

 Multipole matrices computed through 2nd order

  Scale SEOQF with 1.000000e-01/1.000000e-01/1.000000e-01

 Standard Electronic Orientation quadrupole field applied
 Nucleus-field energy     =     0.0000000026 hartrees
 Guess from superposition of atomic densities
 Warning:  Energy on first SCF cycle will be non-variational
 Long-range K will be added via erf
 Coulomb attenuation parameter = 0.43 bohr**(-1)
 An unrestricted Kohn-Sham SCF calculation will be
 performed using Pulay DIIS extrapolation
 Exchange:  wPBE + LR-HF      Correlation:  PBE
 Using SG-1 standard quadrature grid
 SCF converges when DIIS error is below 1.0E-05
 Requested basis set is G3large
 There are 100 shells and 268 basis functions
 A cutoff of  1.0D-08 yielded   4705 shell pairs
 There are  33835 function pairs ( 40339 Cartesian)
 Warning!  Inaccurate integrated density:
   Number of electrons =    35
   Numerical integral  =    34.000118798019
   Relative error      =    -2.8568034342 %
 ---------------------------------------
  Cycle       Energy         DIIS Error
 ---------------------------------------
    1    -159.5871401229      2.68E-02
    2    -158.2700578978      2.76E-03
    3    -158.3422738444      1.77E-03
    4    -158.3716176486      2.53E-04
    5    -158.3741916789      9.60E-05
    6    -158.3747036078      3.83E-05
    7    -158.3748423100      1.43E-05
    8    -158.3748818842      5.81E-06 Convergence criterion met
 ---------------------------------------
 One-Electron    Energy =  -482.7856430207
 Total Coulomb   Energy =   214.9136426391
 Alpha Exchange  Energy =    -3.5927934096
 Beta  Exchange  Energy =    -3.5357637984
 DFT   Exchange  Energy =   -17.2375853079
 DFT Correlation Energy =    -1.0937826346
 Nuclear Repu.   Energy =   134.9570436481
 Nuclear Attr.   Energy =  -640.3435988851
 Kinetic         Energy =   157.5579558644
 <S^2> = 0.7501
 SCF time:  CPU 307.14 s  wall 307.73 s
 Final Alpha MO Eigenvalues
            1           2           3           4           5           6
    1  -9.9927434  -9.9762332  -9.9755214  -9.9745702  -0.8455710  -0.7145152
            7           8           9          10          11          12
    1  -0.7136841  -0.5806115  -0.4787115  -0.4409267  -0.4404594  -0.3857305
           13          14          15          16          17          18
    1  -0.3848349  -0.3609279  -0.3226241  -0.3225318  -0.3145854   0.0316396
           19          20          21          22          23
    1   0.1274953   0.1277291   0.1329794   0.1615135   0.1615745
 Final Beta MO Eigenvalues
            1           2           3           4           5           6
    1  -9.9925868  -9.9760384  -9.9753132  -9.9743452  -0.8451617  -0.7137746
            7           8           9          10          11          12
    1  -0.7128965  -0.5797028  -0.4775424  -0.4404726  -0.4400262  -0.3855360
           13          14          15          16          17          18
    1  -0.3846328  -0.3608283  -0.3221975  -0.3220981  -0.3138181   0.1249669
           19          20          21          22
    1   0.1404920   0.1406866   0.1446899   0.1622315
 Analysis of SCF Wavefunction
 
 --------------------------------------------------------------
                    Orbital Energies (a.u.)
 --------------------------------------------------------------
 
 Alpha MOs
 -- Occupied --
 -9.993  -9.976  -9.976  -9.975  -0.846  -0.715  -0.714  -0.581
 -0.479  -0.441  -0.440  -0.386  -0.385  -0.361  -0.323  -0.323
 -0.315   0.032
 -- Virtual --
  0.127   0.128   0.133   0.162   0.162   0.171   0.177   0.177
  0.198   0.234   0.261   0.262   0.270   0.271   0.273   0.283
  0.299   0.299   0.309   0.320   0.320   0.331   0.331   0.338
  0.349   0.402   0.403   0.403   0.417   0.417   0.448   0.448
  0.491   0.491   0.495   0.495   0.505   0.584   0.612   0.612
  0.683   0.687   0.687   0.705   0.716   0.716   0.762   0.779
  0.781   0.782   0.792   0.793   0.795   0.814   0.837   0.837
  0.868   0.870   0.870   0.904   0.905   0.924   0.946   0.983
  0.983   1.053   1.083   1.083   1.106   1.147   1.148   1.203
  1.207   1.251   1.251   1.305   1.306   1.338   1.366   1.382
  1.382   1.389   1.424   1.425   1.485   1.511   1.511   1.528
  1.528   1.558   1.577   1.577   1.582   1.583   1.583   1.612
  1.635   1.635   1.700   1.707   1.708   1.724   1.784   1.813
  1.813   1.837   1.840   1.850   1.851   1.886   1.887   1.955
  1.959   1.959   2.646   2.647   2.766   2.795   2.795   2.807
  2.883   2.955   2.955   2.980   2.980   3.006   3.058   3.095
  3.096   3.164   3.183   3.184   3.193   3.193   3.219   3.281
  3.282   3.292   3.378   3.379   3.416   3.507   3.515   3.521
  3.522   3.577   3.578   3.605   3.614   3.650   3.651   3.709
  3.717   3.717   3.799   3.802   3.802   3.831   3.832   3.866
  3.951   3.988   3.988   4.019   4.019   4.088   4.088   4.156
  4.195   4.196   4.215   4.230   4.257   4.257   4.290   4.320
  4.320   4.444   4.455   4.456   4.456   4.490   4.511   4.511
  4.529   4.529   4.546   4.644   4.650   4.651   4.740   4.770
  4.771   4.868   4.869   4.885   4.886   4.886   4.950   5.023
  5.023   5.040   5.139   5.140   5.572   5.660   5.661   5.850
  5.935   5.935   5.962   5.966   5.973   5.974  24.258  24.418
 24.419  24.537  27.796  27.797  28.097  28.276  28.277  28.290
 28.324  28.347  28.348  28.562  28.659  28.660  41.112  41.143
 41.152  41.155  41.167  41.181  41.189  41.190  41.356  41.360
 41.361  41.366  41.367  41.377  41.394  41.395  41.420  41.453
 41.457  41.496
 
 Beta MOs
 -- Occupied --
 -9.993  -9.976  -9.975  -9.974  -0.845  -0.714  -0.713  -0.580
 -0.478  -0.440  -0.440  -0.386  -0.385  -0.361  -0.322  -0.322
 -0.314
 -- Virtual --
  0.125   0.140   0.141   0.145   0.162   0.163   0.172   0.175
  0.175   0.195   0.229   0.254   0.254   0.264   0.264   0.269
  0.282   0.296   0.296   0.307   0.317   0.317   0.326   0.326
  0.331   0.349   0.399   0.400   0.401   0.415   0.415   0.446
  0.447   0.489   0.490   0.491   0.491   0.500   0.578   0.609
  0.609   0.680   0.684   0.685   0.703   0.714   0.714   0.760
  0.778   0.780   0.780   0.790   0.791   0.793   0.813   0.836
  0.837   0.866   0.869   0.869   0.901   0.902   0.922   0.944
  0.983   0.983   1.054   1.083   1.083   1.106   1.148   1.148
  1.203   1.207   1.251   1.251   1.305   1.306   1.338   1.366
  1.382   1.382   1.389   1.424   1.425   1.485   1.511   1.511
  1.528   1.529   1.557   1.576   1.577   1.581   1.583   1.584
  1.612   1.635   1.635   1.700   1.707   1.707   1.724   1.783
  1.813   1.813   1.837   1.840   1.850   1.851   1.886   1.886
  1.955   1.959   1.959   2.646   2.647   2.766   2.795   2.795
  2.807   2.883   2.955   2.955   2.980   2.980   3.006   3.058
  3.095   3.096   3.165   3.184   3.184   3.193   3.194   3.219
  3.282   3.282   3.292   3.379   3.379   3.416   3.507   3.515
  3.522   3.522   3.577   3.578   3.606   3.614   3.651   3.651
  3.710   3.717   3.717   3.799   3.802   3.803   3.832   3.832
  3.866   3.951   3.988   3.988   4.019   4.019   4.088   4.088
  4.156   4.196   4.196   4.215   4.230   4.257   4.257   4.290
  4.320   4.320   4.444   4.455   4.456   4.456   4.490   4.511
  4.511   4.529   4.529   4.546   4.644   4.650   4.651   4.740
  4.770   4.771   4.868   4.869   4.885   4.886   4.887   4.950
  5.023   5.023   5.040   5.139   5.140   5.572   5.660   5.661
  5.850   5.935   5.936   5.962   5.966   5.973   5.974  24.258
 24.418  24.419  24.537  27.797  27.797  28.097  28.276  28.277
 28.290  28.324  28.347  28.348  28.562  28.659  28.660  41.112
 41.143  41.152  41.155  41.167  41.181  41.189  41.191  41.356
 41.360  41.361  41.367  41.367  41.377  41.394  41.395  41.421
 41.453  41.458  41.496
 --------------------------------------------------------------
 
          Ground-State Mulliken Net Atomic Charges

     Atom                 Charge (a.u.)    Spin (a.u.)
  --------------------------------------------------------
      1 C                    -3.647790       3.931937
      2 H                    -0.509200       0.582436
      3 C                     2.224348      -2.603495
      4 H                    -0.170093       0.250785
      5 H                    -0.506961       0.597970
      6 H                    -0.492199       0.580742
      7 C                     2.136174      -2.516022
      8 H                    -0.149019       0.229535
      9 H                    -0.462167       0.550599
     10 H                    -0.473564       0.563585
     11 C                     2.324533      -2.704899
     12 H                    -0.192888       0.273893
     13 H                    -0.538890       0.629322
     14 H                    -0.542283       0.633613
  --------------------------------------------------------
  Sum of atomic charges =    -1.000000
  Sum of spin   charges =     1.000000

 -----------------------------------------------------------------
                    Cartesian Multipole Moments
 -----------------------------------------------------------------
    Charge (ESU x 10^10)
                -4.8032
    Dipole Moment (Debye)
         X       0.0490      Y      -0.6286      Z      -0.6676
       Tot       0.9182
    Quadrupole Moments (Debye-Ang)
        XX     -65.6551     XY       0.2564     YY     -65.6286
        XZ       0.0181     YZ      -0.0003     ZZ     -55.6468
    Octapole Moments (Debye-Ang^2)
       XXX       0.0894    XXY      -3.4605    XYY       0.9947
       YYY     -10.3750    XXZ       9.8026    XYZ      -0.1057
       YYZ       9.8272    XZZ       0.1946    YZZ      -2.7975
       ZZZ      32.9403
    Hexadecapole Moments (Debye-Ang^3)
      XXXX    -845.0907   XXXY       4.6630   XXYY    -281.5504
      XYYY       3.2866   YYYY    -844.4763   XXXZ       3.2545
      XXYZ       0.2586   XYYZ      -3.0404   YYYZ       0.7764
      XXZZ    -196.7174   XYZZ       1.1795   YYZZ    -196.7066
      XZZZ       0.0738   YZZZ       1.6045   ZZZZ    -449.2151
 -----------------------------------------------------------------
 Total job time:  308.15s(wall), 307.55s(cpu) 
 Sun Jul  7 09:44:42 2013

        *************************************************************
        *                                                           *
        *  Thank you very much for using Q-Chem.  Have a nice day.  *
        *                                                           *
        *************************************************************


0 sent ACK to 0 
now end server 0 ... 
 
**********************************************************************
Job 2 of 3 
**********************************************************************
 
Process 0 of 1 is on cl031.stfx.acenet.ca - thread support 1
initial socket setup ...start
initial socket setup ...done 
now start server 0 ... 

cmd = /usr/bin/ssh clhead /usr/local/qchem/bin/get_hostid 1590987157 > /scratch/tmp/6064009.1.short.q/qchem24706/lic.dat
                  Welcome to Q-Chem
     A Quantum Leap Into The Future Of Chemistry

 Y. Shao, L. Fusti-Molnar, Y. Jung, J. Kussmann, C. Ochsenfeld,
 S. T. Brown, A. T. B. Gilbert, L. V. Slipchenko,S. V. Levchenko,
 D. P. O'Neill, R. A. DiStasio Jr., R. C. Lochan, T. Wang,
 G. J. O. Beran, N. A. Besley, J. M. Herbert, C. Y. Lin,
 T. Van Voorhis, S. H. Chien, A. Sodt, R. P. Steele, 
 V. A. Rassolov, P. E. Maslen, P. P. Korambath, R. D. Adamson,
 B. Austin, J. Baker, E. F. C. Byrd, H. Dachsel, R. J. Doerksen,
 A. Dreuw, B. D. Dunietz, A. D. Dutoi, T. R. Furlani,
 S. R. Gwaltney, A. Heyden, S. Hirata, C.-P. Hsu, G. Kedziora,
 R. Z. Khaliullin, P. Klunzinger, A. M. Lee, M. S. Lee, W. Liang,
 I. Lotan, N. Nair, B. Peters, E. I. Proynov, P. A. Pieniazek, 
 Y. M. Rhee, J. Ritchie, E. Rosta, C. D. Sherrill, 
 A. C. Simmonett, J. E. Subotnik, H. L. Woodcock III,
 W. Zhang, A. T. Bell, A. K. Chakraborty, D. M. Chipman,
 F. J. Keil, A. Warshel, W. J. Hehre, H. F. Schaefer III,
 J. Kong, A. I. Krylov, P. M. W. Gill, M. Head-Gordon,
 Q-Chem, Version 3.1, Q-Chem, Inc., Pittsburgh, PA (2007).

 Additional authors for Version 3.1: 
 Z. Gan, Y. Zhao, N. E. Schultz, D. Truhlar, E. Epifanovsky and M. Oana.

 Additional authors for Version 3.2: 
 R. Baer, B. R. Brooks, D. Casanova, J.-D. Chai, C.-L. Cheng, 
 C. Cramer, D. Crittenden, A. Ghysels, G. Hawkins, E. G. Hohenstein, 
 C. Kelley, W. Kurlancheek, D. Liotard, E. Livshits, P. Manohar, 
 A. Marenich, D. Neuhauser, R. Olson, M. A. Rohrdanz, K. S. Thanthiriwatte, 
 A. J. W. Thom, V. Vanovschi, C. F. Williams, Q. Wu and Z.-Q. You. 


 Intel X86 Linux Version

 Q-chem begins on Sun Jul  7 09:44:45 2013  

 Parallel job on  1  processors
Processing $rem in /usr/local/qchem/config/preferences.

theFileMan(): MAXOPENFILES=974 MAX_SUB_FILE_NUM=16
Maximum size of a physical file is 2.0 GB, maximum size of a tmp-file is 32.0 GB


--------------------------------------------------------------
User input:
--------------------------------------------------------------

$molecule
0,1
C         -0.00003        0.00000        0.00511
H         -0.00008        0.00000        1.10256
C          1.44877        0.00000       -0.46691
H          1.49564        0.00000       -1.56124
H          1.98463        0.88451       -0.11125
H          1.98463       -0.88451       -0.11125
C         -0.72447       -1.25474       -0.46680
H         -0.74778       -1.29553       -1.56115
H         -0.22608       -2.16083       -0.11114
H         -1.75845       -1.27686       -0.11130
C         -0.72447        1.25474       -0.46680
H         -0.74778        1.29553       -1.56115
H         -1.75845        1.27686       -0.11130
H         -0.22608        2.16083       -0.11114
$end

$comment
neutral
$end

$xc_functional
C PBE   1.00
X wPBE  1.00
$end


$rem
SYMMETRY_DECOMPOSITION	0
LRC_DFT                 true
exchange 		general
BASIS                   g3large
omega			430
mem_static              760
max_scf_cycles          200
scf_final_print         1
sym_ignore              true
$end

--------------------------------------------------------------
 Writing REM_CC_EA           14
 ----------------------------------------------------
       Standard Nuclear Orientation (Angstroms)
    I     Atom         X            Y            Z
 ----------------------------------------------------
    1      C      -0.000030     0.000000     0.005110
    2      H      -0.000080     0.000000     1.102560
    3      C       1.448770     0.000000    -0.466910
    4      H       1.495640     0.000000    -1.561240
    5      H       1.984630     0.884510    -0.111250
    6      H       1.984630    -0.884510    -0.111250
    7      C      -0.724470    -1.254740    -0.466800
    8      H      -0.747780    -1.295530    -1.561150
    9      H      -0.226080    -2.160830    -0.111140
   10      H      -1.758450    -1.276860    -0.111300
   11      C      -0.724470     1.254740    -0.466800
   12      H      -0.747780     1.295530    -1.561150
   13      H      -1.758450     1.276860    -0.111300
   14      H      -0.226080     2.160830    -0.111140
 ----------------------------------------------------
 Nuclear Repulsion Energy =   134.9570436455 hartrees
 There are       17 alpha and       17 beta electrons
 Requested basis set is G3large
 There are 100 shells and 268 basis functions

Total QAlloc Memory Limit   2000 MB
Mega-Array Size       743 MB
MEM_STATIC part       760 MB

                       Distance Matrix (Angstroms)
             C (  1)   H (  2)   C (  3)   H (  4)   H (  5)   H (  6)
   H (  2)  1.097450
   C (  3)  1.523753  2.135978
   H (  4)  2.165752  3.054997  1.095333
   H (  5)  2.175953  2.488929  1.093617  1.767467
   H (  6)  2.175953  2.488929  1.093617  1.767467  1.769020
   C (  7)  1.523773  2.135885  2.509451  2.775078  3.470163  2.757301
   H (  8)  2.165802  3.054964  2.774994  2.590624  3.784290  3.120451
   H (  9)  2.175730  2.488640  2.756970  3.120304  3.763155  2.552691
   H ( 10)  2.176227  2.489115  3.470316  3.784415  4.322287  3.763587
   C ( 11)  1.523773  2.135885  2.509451  2.775078  2.757301  3.470163
   H ( 12)  2.165802  3.054964  2.774994  2.590624  3.120451  3.784290
   H ( 13)  2.176227  2.489115  3.470316  3.784415  3.763587  4.322287
   H ( 14)  2.175730  2.488640  2.756970  3.120304  2.552691  3.763155
             C (  7)   H (  8)   H (  9)   H ( 10)   C ( 11)   H ( 12)
   H (  8)  1.095358
   H (  9)  1.093566  1.767327
   H ( 10)  1.093611  1.767447  1.769056
   C ( 11)  2.509480  2.775252  3.470015  2.757625
   H ( 12)  2.775252  2.591060  3.784326  3.121011  1.095358
   H ( 13)  2.757625  3.121011  3.763757  2.553720  1.093611  1.767447
   H ( 14)  3.470015  3.784326  4.321660  3.763757  1.093566  1.767327
             H ( 13)
   H ( 14)  1.769056
 
 A cutoff of  1.0D-08 yielded   4705 shell pairs
 There are  33835 function pairs ( 40339 Cartesian)
Evaluating contribution to one-electron hamiltonian from nuclear
 Smallest overlap matrix eigenvalue = 3.17E-05

 Q-Chem warning in module mkSTV.C, line 194:

 Overlap eigenvalue is smaller than square root of threshold

 Multipole matrices computed through 2nd order

  Scale SEOQF with 1.000000e-01/1.000000e-01/1.000000e-01

 Standard Electronic Orientation quadrupole field applied
 Nucleus-field energy     =     0.0000000026 hartrees
 Guess from superposition of atomic densities
 Warning:  Energy on first SCF cycle will be non-variational
 Long-range K will be added via erf
 Coulomb attenuation parameter = 0.43 bohr**(-1)
 A restricted Kohn-Sham SCF calculation will be
 performed using Pulay DIIS extrapolation
 Exchange:  wPBE + LR-HF      Correlation:  PBE
 Using SG-1 standard quadrature grid
 SCF converges when DIIS error is below 1.0E-05
 Requested basis set is G3large
 There are 100 shells and 268 basis functions
 A cutoff of  1.0D-08 yielded   4705 shell pairs
 There are  33835 function pairs ( 40339 Cartesian)
 ---------------------------------------
  Cycle       Energy         DIIS Error
 ---------------------------------------
    1    -159.5871401229      2.68E-02
    2    -158.3442120935      2.51E-03
    3    -158.3935328361      1.36E-03
    4    -158.4089662080      2.43E-04
    5    -158.4096823111      6.22E-05
    6    -158.4097211370      2.18E-05
    7    -158.4097276493      4.36E-06 Convergence criterion met
 ---------------------------------------
 One-Electron    Energy =  -478.6043824758
 Total Coulomb   Energy =   210.6331195877
 Alpha Exchange  Energy =    -3.5373848424
 Beta  Exchange  Energy =    -3.5373848424
 DFT   Exchange  Energy =   -17.2335008737
 DFT Correlation Energy =    -1.0872378508
 Nuclear Repu.   Energy =   134.9570436481
 Nuclear Attr.   Energy =  -636.1006560706
 Kinetic         Energy =   157.4962735948
 SCF time:  CPU 203.30 s  wall 203.67 s
 Final Alpha MO Eigenvalues
            1           2           3           4           5           6
    1 -10.1183974 -10.0996635 -10.0996493 -10.0996160  -0.9697769  -0.8373530
            7           8           9          10          11          12
    1  -0.8373354  -0.7044576  -0.6021966  -0.5644650  -0.5644353  -0.5085066
           13          14          15          16          17          18
    1  -0.5084882  -0.4849131  -0.4464049  -0.4463520  -0.4386125   0.0395844
           19          20          21          22
    1   0.0575807   0.0575914   0.0583000   0.0798740
 Analysis of SCF Wavefunction
 
 --------------------------------------------------------------
                    Orbital Energies (a.u.)
 --------------------------------------------------------------
 
 Alpha MOs
 -- Occupied --
-10.118 -10.100 -10.100 -10.100  -0.970  -0.837  -0.837  -0.704
 -0.602  -0.564  -0.564  -0.509  -0.508  -0.485  -0.446  -0.446
 -0.439
 -- Virtual --
  0.040   0.058   0.058   0.058   0.080   0.080   0.085   0.094
  0.094   0.113   0.137   0.161   0.161   0.170   0.170   0.175
  0.182   0.198   0.198   0.202   0.217   0.217   0.225   0.225
  0.238   0.239   0.287   0.287   0.291   0.304   0.304   0.329
  0.331   0.372   0.372   0.385   0.385   0.396   0.470   0.495
  0.495   0.567   0.570   0.570   0.587   0.598   0.598   0.643
  0.660   0.663   0.663   0.674   0.674   0.676   0.694   0.716
  0.716   0.747   0.747   0.748   0.786   0.786   0.805   0.824
  0.861   0.861   0.930   0.960   0.960   0.983   1.025   1.025
  1.080   1.086   1.129   1.129   1.183   1.183   1.216   1.245
  1.260   1.260   1.266   1.302   1.302   1.362   1.389   1.389
  1.406   1.406   1.437   1.456   1.456   1.460   1.460   1.461
  1.492   1.512   1.512   1.578   1.586   1.586   1.602   1.661
  1.692   1.692   1.714   1.719   1.728   1.728   1.764   1.764
  1.833   1.835   1.836   2.524   2.524   2.641   2.672   2.672
  2.684   2.761   2.832   2.832   2.856   2.856   2.881   2.934
  2.972   2.972   3.040   3.060   3.060   3.069   3.069   3.095
  3.158   3.158   3.169   3.255   3.255   3.293   3.384   3.391
  3.398   3.398   3.455   3.455   3.482   3.490   3.527   3.527
  3.585   3.594   3.594   3.676   3.679   3.679   3.708   3.708
  3.743   3.827   3.864   3.864   3.895   3.895   3.964   3.964
  4.031   4.071   4.072   4.091   4.106   4.133   4.133   4.167
  4.196   4.196   4.320   4.331   4.332   4.332   4.367   4.388
  4.388   4.405   4.405   4.422   4.520   4.527   4.527   4.617
  4.647   4.647   4.745   4.745   4.762   4.762   4.762   4.827
  4.898   4.898   4.916   5.016   5.016   5.448   5.537   5.537
  5.724   5.812   5.812   5.838   5.843   5.849   5.849  24.133
 24.294  24.294  24.412  27.672  27.672  27.972  28.152  28.152
 28.166  28.200  28.223  28.223  28.437  28.535  28.535  40.987
 41.019  41.028  41.031  41.042  41.056  41.065  41.066  41.232
 41.236  41.236  41.241  41.243  41.253  41.269  41.271  41.296
 41.329  41.333  41.371
 --------------------------------------------------------------
 
          Ground-State Mulliken Net Atomic Charges

     Atom                 Charge (a.u.)
  ----------------------------------------
      1 C                     0.276862
      2 H                     0.058412
      3 C                    -0.368000
      4 H                     0.087756
      5 H                     0.084357
      6 H                     0.084214
      7 C                    -0.368125
      8 H                     0.087799
      9 H                     0.084171
     10 H                     0.084247
     11 C                    -0.368101
     12 H                     0.087752
     13 H                     0.084306
     14 H                     0.084350
  ----------------------------------------
  Sum of atomic charges =     0.000000

 -----------------------------------------------------------------
                    Cartesian Multipole Moments
 -----------------------------------------------------------------
    Charge (ESU x 10^10)
                 0.0000
    Dipole Moment (Debye)
         X       0.0002      Y       0.0004      Z       0.1164
       Tot       0.1164
    Quadrupole Moments (Debye-Ang)
        XX     -28.6072     XY       0.0017     YY     -28.6095
        XZ       0.0001     YZ       0.0003     ZZ     -28.0881
    Octapole Moments (Debye-Ang^2)
       XXX      -2.0034    XXY       0.0000    XYY       2.0044
       YYY       0.0003    XXZ      12.0892    XYZ       0.0001
       YYZ      12.0890    XZZ       0.0015    YZZ      -0.0007
       ZZZ      30.3108
    Hexadecapole Moments (Debye-Ang^3)
      XXXX    -213.1146   XXXY       0.0095   XXYY     -71.0378
      XYYY       0.0077   YYYY    -213.1518   XXXZ      -0.4372
      XXYZ       0.0008   XYYZ       0.4423   YYYZ       0.0023
      XXZZ     -52.8108   XYZZ       0.0015   YYZZ     -52.8107
      XZZZ       0.0001   YZZZ       0.0018   ZZZZ     -86.1064
 -----------------------------------------------------------------
 Total job time:  204.05s(wall), 203.67s(cpu) 
 Sun Jul  7 09:48:09 2013

        *************************************************************
        *                                                           *
        *  Thank you very much for using Q-Chem.  Have a nice day.  *
        *                                                           *
        *************************************************************


0 sent ACK to 0 
now end server 0 ... 
 
**********************************************************************
Job 3 of 3 
**********************************************************************
 
Process 0 of 1 is on cl031.stfx.acenet.ca - thread support 1
initial socket setup ...start
initial socket setup ...done 
now start server 0 ... 

cmd = /usr/bin/ssh clhead /usr/local/qchem/bin/get_hostid 1215284516 > /scratch/tmp/6064009.1.short.q/qchem24706/lic.dat
                  Welcome to Q-Chem
     A Quantum Leap Into The Future Of Chemistry

 Y. Shao, L. Fusti-Molnar, Y. Jung, J. Kussmann, C. Ochsenfeld,
 S. T. Brown, A. T. B. Gilbert, L. V. Slipchenko,S. V. Levchenko,
 D. P. O'Neill, R. A. DiStasio Jr., R. C. Lochan, T. Wang,
 G. J. O. Beran, N. A. Besley, J. M. Herbert, C. Y. Lin,
 T. Van Voorhis, S. H. Chien, A. Sodt, R. P. Steele, 
 V. A. Rassolov, P. E. Maslen, P. P. Korambath, R. D. Adamson,
 B. Austin, J. Baker, E. F. C. Byrd, H. Dachsel, R. J. Doerksen,
 A. Dreuw, B. D. Dunietz, A. D. Dutoi, T. R. Furlani,
 S. R. Gwaltney, A. Heyden, S. Hirata, C.-P. Hsu, G. Kedziora,
 R. Z. Khaliullin, P. Klunzinger, A. M. Lee, M. S. Lee, W. Liang,
 I. Lotan, N. Nair, B. Peters, E. I. Proynov, P. A. Pieniazek, 
 Y. M. Rhee, J. Ritchie, E. Rosta, C. D. Sherrill, 
 A. C. Simmonett, J. E. Subotnik, H. L. Woodcock III,
 W. Zhang, A. T. Bell, A. K. Chakraborty, D. M. Chipman,
 F. J. Keil, A. Warshel, W. J. Hehre, H. F. Schaefer III,
 J. Kong, A. I. Krylov, P. M. W. Gill, M. Head-Gordon,
 Q-Chem, Version 3.1, Q-Chem, Inc., Pittsburgh, PA (2007).

 Additional authors for Version 3.1: 
 Z. Gan, Y. Zhao, N. E. Schultz, D. Truhlar, E. Epifanovsky and M. Oana.

 Additional authors for Version 3.2: 
 R. Baer, B. R. Brooks, D. Casanova, J.-D. Chai, C.-L. Cheng, 
 C. Cramer, D. Crittenden, A. Ghysels, G. Hawkins, E. G. Hohenstein, 
 C. Kelley, W. Kurlancheek, D. Liotard, E. Livshits, P. Manohar, 
 A. Marenich, D. Neuhauser, R. Olson, M. A. Rohrdanz, K. S. Thanthiriwatte, 
 A. J. W. Thom, V. Vanovschi, C. F. Williams, Q. Wu and Z.-Q. You. 


 Intel X86 Linux Version

 Q-chem begins on Sun Jul  7 09:48:12 2013  

 Parallel job on  1  processors
Processing $rem in /usr/local/qchem/config/preferences.

theFileMan(): MAXOPENFILES=974 MAX_SUB_FILE_NUM=16
Maximum size of a physical file is 2.0 GB, maximum size of a tmp-file is 32.0 GB


--------------------------------------------------------------
User input:
--------------------------------------------------------------

$molecule
1,2
C         -0.00003        0.00000        0.00511
H         -0.00008        0.00000        1.10256
C          1.44877        0.00000       -0.46691
H          1.49564        0.00000       -1.56124
H          1.98463        0.88451       -0.11125
H          1.98463       -0.88451       -0.11125
C         -0.72447       -1.25474       -0.46680
H         -0.74778       -1.29553       -1.56115
H         -0.22608       -2.16083       -0.11114
H         -1.75845       -1.27686       -0.11130
C         -0.72447        1.25474       -0.46680
H         -0.74778        1.29553       -1.56115
H         -1.75845        1.27686       -0.11130
H         -0.22608        2.16083       -0.11114
$end

$comment
positive
$end

$xc_functional
C PBE   1.00
X wPBE  1.00
$end

$rem
SYMMETRY_DECOMPOSITION	0
LRC_DFT                 true
exchange 		general
BASIS                   g3large
omega			430
mem_static              760
max_scf_cycles          200
scf_final_print         1
sym_ignore              true
$end

--------------------------------------------------------------
 Writing REM_CC_EA           14
 ----------------------------------------------------
       Standard Nuclear Orientation (Angstroms)
    I     Atom         X            Y            Z
 ----------------------------------------------------
    1      C      -0.000030     0.000000     0.005110
    2      H      -0.000080     0.000000     1.102560
    3      C       1.448770     0.000000    -0.466910
    4      H       1.495640     0.000000    -1.561240
    5      H       1.984630     0.884510    -0.111250
    6      H       1.984630    -0.884510    -0.111250
    7      C      -0.724470    -1.254740    -0.466800
    8      H      -0.747780    -1.295530    -1.561150
    9      H      -0.226080    -2.160830    -0.111140
   10      H      -1.758450    -1.276860    -0.111300
   11      C      -0.724470     1.254740    -0.466800
   12      H      -0.747780     1.295530    -1.561150
   13      H      -1.758450     1.276860    -0.111300
   14      H      -0.226080     2.160830    -0.111140
 ----------------------------------------------------
 Nuclear Repulsion Energy =   134.9570436455 hartrees
 There are       17 alpha and       16 beta electrons
 Requested basis set is G3large
 There are 100 shells and 268 basis functions

Total QAlloc Memory Limit   2000 MB
Mega-Array Size       743 MB
MEM_STATIC part       760 MB

                       Distance Matrix (Angstroms)
             C (  1)   H (  2)   C (  3)   H (  4)   H (  5)   H (  6)
   H (  2)  1.097450
   C (  3)  1.523753  2.135978
   H (  4)  2.165752  3.054997  1.095333
   H (  5)  2.175953  2.488929  1.093617  1.767467
   H (  6)  2.175953  2.488929  1.093617  1.767467  1.769020
   C (  7)  1.523773  2.135885  2.509451  2.775078  3.470163  2.757301
   H (  8)  2.165802  3.054964  2.774994  2.590624  3.784290  3.120451
   H (  9)  2.175730  2.488640  2.756970  3.120304  3.763155  2.552691
   H ( 10)  2.176227  2.489115  3.470316  3.784415  4.322287  3.763587
   C ( 11)  1.523773  2.135885  2.509451  2.775078  2.757301  3.470163
   H ( 12)  2.165802  3.054964  2.774994  2.590624  3.120451  3.784290
   H ( 13)  2.176227  2.489115  3.470316  3.784415  3.763587  4.322287
   H ( 14)  2.175730  2.488640  2.756970  3.120304  2.552691  3.763155
             C (  7)   H (  8)   H (  9)   H ( 10)   C ( 11)   H ( 12)
   H (  8)  1.095358
   H (  9)  1.093566  1.767327
   H ( 10)  1.093611  1.767447  1.769056
   C ( 11)  2.509480  2.775252  3.470015  2.757625
   H ( 12)  2.775252  2.591060  3.784326  3.121011  1.095358
   H ( 13)  2.757625  3.121011  3.763757  2.553720  1.093611  1.767447
   H ( 14)  3.470015  3.784326  4.321660  3.763757  1.093566  1.767327
             H ( 13)
   H ( 14)  1.769056
 
 A cutoff of  1.0D-08 yielded   4705 shell pairs
 There are  33835 function pairs ( 40339 Cartesian)
Evaluating contribution to one-electron hamiltonian from nuclear
 Smallest overlap matrix eigenvalue = 3.17E-05

 Q-Chem warning in module mkSTV.C, line 194:

 Overlap eigenvalue is smaller than square root of threshold

 Multipole matrices computed through 2nd order

  Scale SEOQF with 1.000000e-01/1.000000e-01/1.000000e-01

 Standard Electronic Orientation quadrupole field applied
 Nucleus-field energy     =     0.0000000026 hartrees
 Guess from superposition of atomic densities
 Warning:  Energy on first SCF cycle will be non-variational
 Long-range K will be added via erf
 Coulomb attenuation parameter = 0.43 bohr**(-1)
 An unrestricted Kohn-Sham SCF calculation will be
 performed using Pulay DIIS extrapolation
 Exchange:  wPBE + LR-HF      Correlation:  PBE
 Using SG-1 standard quadrature grid
 SCF converges when DIIS error is below 1.0E-05
 Requested basis set is G3large
 There are 100 shells and 268 basis functions
 A cutoff of  1.0D-08 yielded   4705 shell pairs
 There are  33835 function pairs ( 40339 Cartesian)
 Warning!  Inaccurate integrated density:
   Number of electrons =    33
   Numerical integral  =    34.000118798019
   Relative error      =     3.0306630243 %
 ---------------------------------------
  Cycle       Energy         DIIS Error
 ---------------------------------------
    1    -159.5871401229      2.68E-02
    2    -157.9318708693      1.84E-03
    3    -157.9736931274      7.43E-04
    4    -157.9788298919      2.94E-04
    5    -157.9799392195      5.38E-05
    6    -157.9801366101      3.29E-05
    7    -157.9802323540      2.06E-05
    8    -157.9803290396      1.55E-05
    9    -157.9804220379      1.41E-05
   10    -157.9804583221      1.39E-05
   11    -157.9804857116      1.40E-05
   12    -157.9804017139      1.39E-05
   13    -157.9801602579      1.51E-05
   14    -157.9801648922      1.53E-05
   15    -157.9802015887      1.21E-05
   16    -157.9802330263      1.31E-05
   17    -157.9802611351      1.30E-05
   18    -157.9801668207      1.28E-05
   19    -157.9800034950      1.33E-05
   20    -157.9796396479      2.07E-05
   21    -157.9794668125      3.26E-05
   22    -157.9794621739      3.57E-05
   23    -157.9794132119      1.43E-05
   24    -157.9794076547      4.42E-06 Convergence criterion met
 ---------------------------------------
 One-Electron    Energy =  -470.3043487881
 Total Coulomb   Energy =   202.4094357492
 Alpha Exchange  Energy =    -3.5579303335
 Beta  Exchange  Energy =    -3.3210486482
 DFT   Exchange  Energy =   -17.1113554298
 DFT Correlation Energy =    -1.0512038524
 Nuclear Repu.   Energy =   134.9570436481
 Nuclear Attr.   Energy =  -627.5796603248
 Kinetic         Energy =   157.2753115368
 <S^2> = 0.7565
 SCF time:  CPU 849.86 s  wall 852.17 s
 Final Alpha MO Eigenvalues
            1           2           3           4           5           6
    1 -10.4037412 -10.3752739 -10.3538151 -10.3197390  -1.2367849  -1.0959955
            7           8           9          10          11          12
    1  -1.0691880  -0.9488896  -0.8518180  -0.8130540  -0.8098835  -0.7468013
           13          14          15          16          17          18
    1  -0.7318068  -0.7297389  -0.7088338  -0.6864971  -0.6732125  -0.0966034
           19          20          21          22
    1  -0.0728180  -0.0702869  -0.0664663  -0.0457754
 Final Beta MO Eigenvalues
            1           2           3           4           5           6
    1 -10.3989150 -10.3700267 -10.3505052 -10.3191610  -1.2146894  -1.0657914
            7           8           9          10          11          12
    1  -1.0605249  -0.9263390  -0.8276694  -0.7935069  -0.7799158  -0.7409120
           13          14          15          16          17          18
    1  -0.7276308  -0.6953216  -0.6783847  -0.6697784  -0.4140125  -0.0951436
           19          20          21
    1  -0.0721752  -0.0682695  -0.0660642
 Analysis of SCF Wavefunction
 
 --------------------------------------------------------------
                    Orbital Energies (a.u.)
 --------------------------------------------------------------
 
 Alpha MOs
 -- Occupied --
-10.404 -10.375 -10.354 -10.320  -1.237  -1.096  -1.069  -0.949
 -0.852  -0.813  -0.810  -0.747  -0.732  -0.730  -0.709  -0.686
 -0.673
 -- Virtual --
 -0.097  -0.073  -0.070  -0.066  -0.046  -0.043  -0.042  -0.028
 -0.026  -0.015   0.001   0.009   0.010   0.023   0.026   0.034
  0.038   0.050   0.054   0.057   0.063   0.063   0.072   0.076
  0.079   0.103   0.105   0.109   0.120   0.123   0.126   0.134
  0.152   0.158   0.163   0.213   0.217   0.222   0.293   0.308
  0.308   0.368   0.377   0.379   0.390   0.395   0.401   0.451
  0.463   0.463   0.466   0.473   0.480   0.485   0.491   0.496
  0.507   0.536   0.536   0.551   0.593   0.599   0.607   0.618
  0.655   0.658   0.721   0.748   0.749   0.770   0.819   0.821
  0.869   0.873   0.911   0.916   0.965   0.969   1.003   1.041
  1.047   1.055   1.059   1.092   1.100   1.146   1.172   1.176
  1.180   1.183   1.224   1.233   1.241   1.243   1.252   1.257
  1.279   1.301   1.301   1.369   1.376   1.381   1.392   1.449
  1.481   1.484   1.492   1.507   1.513   1.514   1.547   1.558
  1.609   1.612   1.616   2.292   2.294   2.405   2.430   2.439
  2.451   2.535   2.578   2.593   2.602   2.608   2.637   2.678
  2.711   2.733   2.795   2.803   2.814   2.826   2.836   2.868
  2.914   2.919   2.926   3.018   3.022   3.060   3.137   3.156
  3.159   3.164   3.208   3.225   3.243   3.252   3.283   3.288
  3.342   3.352   3.358   3.429   3.434   3.446   3.469   3.475
  3.507   3.580   3.609   3.612   3.644   3.648   3.706   3.720
  3.789   3.824   3.830   3.846   3.857   3.887   3.901   3.926
  3.964   3.967   4.071   4.086   4.091   4.098   4.129   4.152
  4.163   4.174   4.177   4.179   4.280   4.289   4.296   4.390
  4.405   4.413   4.498   4.503   4.516   4.523   4.532   4.592
  4.652   4.662   4.664   4.756   4.773   5.203   5.270   5.295
  5.475   5.569   5.587   5.596   5.603   5.618   5.625  23.866
 24.028  24.059  24.148  27.388  27.411  27.703  27.886  27.911
 27.913  27.959  27.962  27.993  28.172  28.255  28.280  40.712
 40.747  40.752  40.774  40.778  40.797  40.817  40.835  40.954
 40.959  40.965  40.981  40.986  40.998  41.015  41.026  41.046
 41.069  41.073  41.118
 
 Beta MOs
 -- Occupied --
-10.399 -10.370 -10.351 -10.319  -1.215  -1.066  -1.061  -0.926
 -0.828  -0.794  -0.780  -0.741  -0.728  -0.695  -0.678  -0.670
 -- Virtual --
 -0.414  -0.095  -0.072  -0.068  -0.066  -0.045  -0.042  -0.041
 -0.028  -0.026  -0.012   0.001   0.010   0.011   0.025   0.027
  0.036   0.039   0.051   0.058   0.061   0.065   0.070   0.075
  0.078   0.080   0.104   0.108   0.112   0.123   0.131   0.137
  0.138   0.156   0.168   0.172   0.216   0.220   0.226   0.298
  0.311   0.312   0.379   0.381   0.383   0.392   0.404   0.405
  0.455   0.466   0.469   0.472   0.481   0.486   0.489   0.494
  0.509   0.511   0.541   0.545   0.556   0.597   0.603   0.611
  0.623   0.658   0.659   0.725   0.752   0.752   0.772   0.823
  0.823   0.872   0.878   0.916   0.922   0.971   0.975   1.005
  1.043   1.051   1.058   1.064   1.096   1.103   1.151   1.180
  1.183   1.188   1.189   1.231   1.242   1.246   1.250   1.257
  1.261   1.283   1.305   1.306   1.372   1.379   1.384   1.395
  1.452   1.485   1.487   1.497   1.514   1.517   1.518   1.554
  1.562   1.617   1.618   1.619   2.299   2.303   2.413   2.443
  2.447   2.460   2.540   2.595   2.605   2.616   2.618   2.643
  2.696   2.729   2.739   2.805   2.823   2.824   2.830   2.841
  2.873   2.925   2.928   2.936   3.027   3.030   3.065   3.147
  3.165   3.168   3.172   3.219   3.229   3.248   3.261   3.294
  3.298   3.354   3.362   3.365   3.439   3.446   3.454   3.474
  3.484   3.513   3.589   3.620   3.625   3.654   3.660   3.724
  3.726   3.799   3.832   3.837   3.854   3.871   3.897   3.908
  3.936   3.970   3.972   4.085   4.098   4.102   4.105   4.139
  4.163   4.167   4.182   4.183   4.185   4.290   4.295   4.304
  4.394   4.413   4.418   4.509   4.517   4.524   4.534   4.539
  4.598   4.662   4.666   4.678   4.775   4.785   5.215   5.291
  5.304   5.482   5.578   5.592   5.605   5.615   5.623   5.634
 23.870  24.034  24.061  24.152  27.402  27.415  27.708  27.890
 27.914  27.915  27.961  27.965  27.996  28.177  28.268  28.282
 40.722  40.756  40.758  40.779  40.783  40.801  40.820  40.836
 40.961  40.966  40.973  40.983  40.992  41.004  41.016  41.032
 41.048  41.077  41.080  41.121
 --------------------------------------------------------------
 
          Ground-State Mulliken Net Atomic Charges

     Atom                 Charge (a.u.)    Spin (a.u.)
  --------------------------------------------------------
      1 C                     0.222534       0.246294
      2 H                     0.139763      -0.000444
      3 C                    -0.242344       0.186712
      4 H                     0.144221      -0.005503
      5 H                     0.139933      -0.006154
      6 H                     0.181872       0.094328
      7 C                    -0.272800       0.040821
      8 H                     0.131178      -0.002018
      9 H                     0.157699       0.071472
     10 H                     0.142331       0.035326
     11 C                    -0.222502       0.287921
     12 H                     0.150422      -0.010105
     13 H                     0.177138       0.062867
     14 H                     0.150554      -0.001516
  --------------------------------------------------------
  Sum of atomic charges =     1.000000
  Sum of spin   charges =     1.000000

 -----------------------------------------------------------------
                    Cartesian Multipole Moments
 -----------------------------------------------------------------
    Charge (ESU x 10^10)
                 4.8032
    Dipole Moment (Debye)
         X       0.0847      Y       0.4546      Z      -1.5212
       Tot       1.5899
    Quadrupole Moments (Debye-Ang)
        XX     -16.5621     XY      -1.8700     YY     -17.2447
        XZ       0.0024     YZ      -0.4069     ZZ     -22.8271
    Octapole Moments (Debye-Ang^2)
       XXX       3.0664    XXY       0.4147    XYY      -2.7565
       YYY       1.2284    XXZ       7.6279    XYZ       0.6004
       YYZ       7.8110    XZZ       0.0618    YZZ       0.6808
       ZZZ      24.2592
    Hexadecapole Moments (Debye-Ang^3)
      XXXX    -147.4610   XXXY      -7.3342   XXYY     -49.5020
      XYYY      -4.8448   YYYY    -151.9664   XXXZ      -2.9389
      XXYZ      -0.3507   XYYZ       3.0692   YYYZ      -1.0363
      XXZZ     -42.3206   XYZZ      -0.9721   YYZZ     -42.6274
      XZZZ      -0.0965   YZZZ      -1.2584   ZZZZ     -65.2544
 -----------------------------------------------------------------
 Total job time:  852.57s(wall), 850.24s(cpu) 
 Sun Jul  7 10:02:24 2013

        *************************************************************
        *                                                           *
        *  Thank you very much for using Q-Chem.  Have a nice day.  *
        *                                                           *
        *************************************************************


0 sent ACK to 0 
now end server 0 ... 
