Process 0 of 1 is on cl087.stfx.acenet.ca - thread support 1
initial socket setup ...start
initial socket setup ...done 
now start server 0 ... 

cmd = /usr/bin/ssh clhead /usr/local/qchem/bin/get_hostid 2001931932 > /scratch/tmp/5955872.1.short.q/qchem28750/lic.dat
                  Welcome to Q-Chem
     A Quantum Leap Into The Future Of Chemistry

 Y. Shao, L. Fusti-Molnar, Y. Jung, J. Kussmann, C. Ochsenfeld,
 S. T. Brown, A. T. B. Gilbert, L. V. Slipchenko,S. V. Levchenko,
 D. P. O'Neill, R. A. DiStasio Jr., R. C. Lochan, T. Wang,
 G. J. O. Beran, N. A. Besley, J. M. Herbert, C. Y. Lin,
 T. Van Voorhis, S. H. Chien, A. Sodt, R. P. Steele, 
 V. A. Rassolov, P. E. Maslen, P. P. Korambath, R. D. Adamson,
 B. Austin, J. Baker, E. F. C. Byrd, H. Dachsel, R. J. Doerksen,
 A. Dreuw, B. D. Dunietz, A. D. Dutoi, T. R. Furlani,
 S. R. Gwaltney, A. Heyden, S. Hirata, C.-P. Hsu, G. Kedziora,
 R. Z. Khaliullin, P. Klunzinger, A. M. Lee, M. S. Lee, W. Liang,
 I. Lotan, N. Nair, B. Peters, E. I. Proynov, P. A. Pieniazek, 
 Y. M. Rhee, J. Ritchie, E. Rosta, C. D. Sherrill, 
 A. C. Simmonett, J. E. Subotnik, H. L. Woodcock III,
 W. Zhang, A. T. Bell, A. K. Chakraborty, D. M. Chipman,
 F. J. Keil, A. Warshel, W. J. Hehre, H. F. Schaefer III,
 J. Kong, A. I. Krylov, P. M. W. Gill, M. Head-Gordon,
 Q-Chem, Version 3.1, Q-Chem, Inc., Pittsburgh, PA (2007).

 Additional authors for Version 3.1: 
 Z. Gan, Y. Zhao, N. E. Schultz, D. Truhlar, E. Epifanovsky and M. Oana.

 Additional authors for Version 3.2: 
 R. Baer, B. R. Brooks, D. Casanova, J.-D. Chai, C.-L. Cheng, 
 C. Cramer, D. Crittenden, A. Ghysels, G. Hawkins, E. G. Hohenstein, 
 C. Kelley, W. Kurlancheek, D. Liotard, E. Livshits, P. Manohar, 
 A. Marenich, D. Neuhauser, R. Olson, M. A. Rohrdanz, K. S. Thanthiriwatte, 
 A. J. W. Thom, V. Vanovschi, C. F. Williams, Q. Wu and Z.-Q. You. 


 Intel X86 Linux Version

 Q-chem begins on Tue Apr 30 21:33:34 2013  

 Parallel job on  1  processors
Processing $rem in /usr/local/qchem/config/preferences.

theFileMan(): MAXOPENFILES=974 MAX_SUB_FILE_NUM=16
Maximum size of a physical file is 2.0 GB, maximum size of a tmp-file is 32.0 GB


--------------------------------------------------------------
User input:
--------------------------------------------------------------

$molecule
-1,2
B
X,1,1.
X,1,1.,2,90.
Cl,1,R2,2,ALPHA,3,0.,0
Cl,1,R2,2,ALPHA,3,120.,0
Cl,1,R2,2,ALPHA,3,-120.,0

 R2=1.75274159
 ALPHA=90.

$end

$comment
negative
$end

$xc_functional
C PBE   1.00
X wPBE  1.00
$end

$rem
SYMMETRY_DECOMPOSITION	0
exchange 		general
LRC_DFT                 true
BASIS                   g3large
omega			370
mem_static              760
max_scf_cycles          200
scf_final_print         1
sym_ignore              true
$end

--------------------------------------------------------------
 Writing REM_CC_EA            4
 ----------------------------------------------------
       Standard Nuclear Orientation (Angstroms)
    I     Atom         X            Y            Z
 ----------------------------------------------------
    1      B       0.000000     0.000000     0.000000
    2      Cl      1.752742     0.000000     0.000000
    3      Cl     -0.876371    -1.517919     0.000000
    4      Cl     -0.876371     1.517919     0.000000
 ----------------------------------------------------
 Nuclear Repulsion Energy =   228.1149461282 hartrees
 There are       29 alpha and       28 beta electrons
 Requested basis set is G3large
 There are 67 shells and 240 basis functions

Total QAlloc Memory Limit   2000 MB
Mega-Array Size       743 MB
MEM_STATIC part       760 MB

                       Distance Matrix (Angstroms)
             B (  1)   Cl(  2)   Cl(  3)
   Cl(  2)  1.752742
   Cl(  3)  1.752742  3.035837
   Cl(  4)  1.752742  3.035837  3.035837
 
 A cutoff of  1.0D-08 yielded   1837 shell pairs
 There are  24483 function pairs ( 34446 Cartesian)
Evaluating contribution to one-electron hamiltonian from nuclear
 Smallest overlap matrix eigenvalue = 8.96E-04
 Multipole matrices computed through 2nd order

  Scale SEOQF with 1.000000e-01/1.000000e-01/1.000000e-01

 Standard Electronic Orientation quadrupole field applied
 Nucleus-field energy     =     0.0000000084 hartrees
 Guess from superposition of atomic densities
 Warning:  Energy on first SCF cycle will be non-variational
 Long-range K will be added via erf
 Coulomb attenuation parameter = 0.37 bohr**(-1)
 An unrestricted Kohn-Sham SCF calculation will be
 performed using Pulay DIIS extrapolation
 Exchange:  wPBE + LR-HF      Correlation:  PBE
 Using SG-1 standard quadrature grid
 SCF converges when DIIS error is below 1.0E-05
 Requested basis set is G3large
 There are 67 shells and 240 basis functions
 A cutoff of  1.0D-08 yielded   1837 shell pairs
 There are  24483 function pairs ( 34446 Cartesian)
 Warning!  Inaccurate integrated density:
   Number of electrons =    57
   Numerical integral  =    55.999955102590
   Relative error      =    -1.7544647323 %
 ---------------------------------------
  Cycle       Energy         DIIS Error
 ---------------------------------------
    1   -1405.7296572418      2.19E-02
    2   -1405.1125042831      1.81E-03
    3   -1405.1441287906      1.03E-03
    4   -1405.1486711880      1.71E-04
    5   -1405.1491791283      6.20E-05
    6   -1405.1492756113      3.77E-05
    7   -1405.1492978226      8.50E-06 Convergence criterion met
 ---------------------------------------
 One-Electron    Energy = -2406.4394209405
 Total Coulomb   Energy =   861.8606207893
 Alpha Exchange  Energy =    -5.5883333158
 Beta  Exchange  Energy =    -5.4182180227
 DFT   Exchange  Energy =   -75.4905383497
 DFT Correlation Energy =    -2.1883541198
 Nuclear Repu.   Energy =   228.1149461366
 Nuclear Attr.   Energy = -3809.9052180941
 Kinetic         Energy =  1403.4657971536
 <S^2> = 0.7566
 SCF time:  CPU 167.33 s  wall 170.21 s
 Final Alpha MO Eigenvalues
            1           2           3           4           5           6
    1-100.6611557-100.6611407-100.6611286  -9.1845136  -9.1845050  -9.1844766
            7           8           9          10          11          12
    1  -7.0006927  -7.0006791  -7.0005602  -6.9954767  -6.9954603  -6.9954558
           13          14          15          16          17          18
    1  -6.9950541  -6.9949156  -6.9948928  -6.5605497  -0.8050946  -0.7558560
           19          20          21          22          23          24
    1  -0.7558511  -0.4370280  -0.3505074  -0.3504933  -0.3238825  -0.2539619
           25          26          27          28          29          30
    1  -0.2539562  -0.2520660  -0.2520545  -0.2210317  -0.0173090   0.1763107
           31          32          33          34
    1   0.1822975   0.1822990   0.2068700   0.2623169
 Final Beta MO Eigenvalues
            1           2           3           4           5           6
    1-100.6609766-100.6609608-100.6609475  -9.1842793  -9.1842703  -9.1842410
            7           8           9          10          11          12
    1  -7.0008961  -7.0008812  -7.0007859  -6.9949620  -6.9948451  -6.9948223
           13          14          15          16          17          18
    1  -6.9944526  -6.9944328  -6.9944320  -6.5505107  -0.7987917  -0.7534602
           19          20          21          22          23          24
    1  -0.7534568  -0.4148624  -0.3457875  -0.3457784  -0.2967292  -0.2517480
           25          26          27          28          29          30
    1  -0.2517368  -0.2413739  -0.2413701  -0.2204076   0.1778423   0.1825282
           31          32          33
    1   0.1825300   0.2070690   0.2631183
 Analysis of SCF Wavefunction
 
 --------------------------------------------------------------
                    Orbital Energies (a.u.)
 --------------------------------------------------------------
 
 Alpha MOs
 -- Occupied --
*******-100.661-100.661  -9.185  -9.185  -9.184  -7.001  -7.001
 -7.001  -6.995  -6.995  -6.995  -6.995  -6.995  -6.995  -6.561
 -0.805  -0.756  -0.756  -0.437  -0.351  -0.350  -0.324  -0.254
 -0.254  -0.252  -0.252  -0.221  -0.017
 -- Virtual --
  0.176   0.182   0.182   0.207   0.262   0.262   0.268   0.282
  0.282   0.309   0.317   0.317   0.334   0.334   0.348   0.371
  0.371   0.425   0.425   0.493   0.493   0.519   0.550   0.550
  0.604   0.604   0.609   0.609   0.612   0.620   0.650   0.678
  0.690   0.728   0.728   0.734   0.754   0.754   0.779   0.779
  0.850   0.850   0.876   0.925   0.939   0.949   0.949   1.016
  1.034   1.034   1.130   1.130   1.317   1.317   1.347   1.354
  1.362   1.362   1.372   1.372   1.390   1.396   1.396   1.405
  1.406   1.414   1.432   1.432   1.433   1.462   1.476   1.511
  1.512   1.614   1.624   1.624   1.624   1.624   1.624   1.684
  1.695   1.773   1.773   1.873   1.874   1.895   1.896   1.953
  1.954   1.990   2.046   2.141   2.268   2.268   2.427   2.435
  2.435   2.448   2.480   2.531   2.531   2.622   2.623   2.722
  2.732   2.732   2.786   2.786   2.817   2.908   2.909   2.968
  3.177   3.325   3.325   4.619   4.633   4.633   4.633   4.633
  4.664   4.690   4.697   4.698   4.710   4.722   4.722   4.749
  4.846   4.846   4.850   4.853   4.853   4.879   4.879   4.951
  5.287   5.287   5.315   5.337   5.365   5.365   5.449   5.449
  5.460   5.481   5.483   5.668   5.772   5.993   5.994  10.088
 10.125  10.125  15.048  19.114  19.671  19.671  20.791  20.792
 20.792  20.827  20.918  20.919  21.070  21.070  21.116  27.286
 27.306  27.309  27.351  27.351  27.364  27.373  27.402  27.414
 27.415  27.423  27.484  27.485  27.572  27.599  36.191  36.248
 36.659  36.659  36.729  37.001  37.004  37.005  37.005  37.005
 37.007  37.009  37.011  37.011  37.013  37.014  37.015  37.019
 37.029  37.031  37.031  37.031  37.033  37.035  37.036  37.049
215.977 216.028 216.028
 
 Beta MOs
 -- Occupied --
*******-100.661-100.661  -9.184  -9.184  -9.184  -7.001  -7.001
 -7.001  -6.995  -6.995  -6.995  -6.994  -6.994  -6.994  -6.551
 -0.799  -0.753  -0.753  -0.415  -0.346  -0.346  -0.297  -0.252
 -0.252  -0.241  -0.241  -0.220
 -- Virtual --
  0.178   0.183   0.183   0.207   0.263   0.263   0.270   0.279
  0.283   0.283   0.309   0.318   0.318   0.336   0.342   0.372
  0.372   0.381   0.432   0.432   0.503   0.503   0.523   0.552
  0.552   0.606   0.606   0.615   0.622   0.622   0.654   0.655
  0.678   0.708   0.730   0.730   0.755   0.755   0.760   0.784
  0.784   0.856   0.856   0.884   0.925   0.957   0.957   0.961
  1.031   1.055   1.055   1.135   1.135   1.322   1.322   1.350
  1.355   1.364   1.364   1.375   1.375   1.391   1.399   1.399
  1.407   1.407   1.414   1.436   1.436   1.436   1.468   1.477
  1.516   1.516   1.618   1.626   1.626   1.627   1.633   1.633
  1.698   1.716   1.775   1.776   1.877   1.877   1.904   1.904
  1.957   1.957   2.018   2.047   2.203   2.296   2.296   2.435
  2.445   2.445   2.460   2.481   2.577   2.577   2.640   2.640
  2.734   2.734   2.771   2.817   2.817   2.843   2.920   2.920
  2.972   3.181   3.330   3.331   4.623   4.636   4.636   4.636
  4.636   4.668   4.693   4.700   4.700   4.712   4.724   4.724
  4.752   4.846   4.846   4.850   4.856   4.856   4.878   4.878
  4.951   5.288   5.288   5.316   5.338   5.366   5.366   5.452
  5.452   5.463   5.481   5.483   5.669   5.772   5.995   5.996
 10.089  10.126  10.126  15.061  19.142  19.678  19.678  20.792
 20.794  20.794  20.829  20.918  20.919  21.069  21.069  21.116
 27.287  27.307  27.309  27.351  27.351  27.364  27.373  27.402
 27.415  27.415  27.424  27.484  27.485  27.572  27.599  36.214
 36.252  36.676  36.676  36.733  37.001  37.004  37.005  37.005
 37.006  37.007  37.009  37.011  37.012  37.013  37.014  37.015
 37.019  37.029  37.031  37.031  37.031  37.033  37.035  37.036
 37.049 215.977 216.028 216.028
 --------------------------------------------------------------
 
          Ground-State Mulliken Net Atomic Charges

     Atom                 Charge (a.u.)    Spin (a.u.)
  --------------------------------------------------------
      1 B                     0.238325       0.876051
      2 Cl                   -0.412396       0.041359
      3 Cl                   -0.412997       0.041319
      4 Cl                   -0.412932       0.041271
  --------------------------------------------------------
  Sum of atomic charges =    -1.000000
  Sum of spin   charges =     1.000000

 -----------------------------------------------------------------
                    Cartesian Multipole Moments
 -----------------------------------------------------------------
    Charge (ESU x 10^10)
                -4.8032
    Dipole Moment (Debye)
         X      -0.0004      Y      -0.0001      Z      -0.0001
       Tot       0.0005
    Quadrupole Moments (Debye-Ang)
        XX     -55.5414     XY       0.0003     YY     -55.5414
        XZ       0.0006     YZ       0.0010     ZZ     -47.9814
    Octapole Moments (Debye-Ang^2)
       XXX      -6.0043    XXY      -0.0004    XYY       5.9993
       YYY      -0.0012    XXZ      -0.0011    XYZ      -0.0022
       YYZ      -0.0034    XZZ      -0.0001    YZZ      -0.0005
       ZZZ       0.0003
    Hexadecapole Moments (Debye-Ang^3)
      XXXX    -456.1064   XXXY      -0.0003   XXYY    -152.0367
      XYYY       0.0003   YYYY    -456.1133   XXXZ       0.0040
      XXYZ       0.0032   XYYZ       0.0040   YYYZ       0.0096
      XXZZ     -87.3541   XYZZ       0.0006   YYZZ     -87.3543
      XZZZ       0.0016   YZZZ       0.0033   ZZZZ     -64.5322
 -----------------------------------------------------------------
 Total job time:  170.59s(wall), 167.68s(cpu) 
 Tue Apr 30 21:36:24 2013

        *************************************************************
        *                                                           *
        *  Thank you very much for using Q-Chem.  Have a nice day.  *
        *                                                           *
        *************************************************************


0 sent ACK to 0 
now end server 0 ... 
 
**********************************************************************
Job 2 of 3 
**********************************************************************
 
Process 0 of 1 is on cl087.stfx.acenet.ca - thread support 1
initial socket setup ...start
initial socket setup ...done 
now start server 0 ... 

cmd = /usr/bin/ssh clhead /usr/local/qchem/bin/get_hostid 612588348 > /scratch/tmp/5955872.1.short.q/qchem28750/lic.dat
                  Welcome to Q-Chem
     A Quantum Leap Into The Future Of Chemistry

 Y. Shao, L. Fusti-Molnar, Y. Jung, J. Kussmann, C. Ochsenfeld,
 S. T. Brown, A. T. B. Gilbert, L. V. Slipchenko,S. V. Levchenko,
 D. P. O'Neill, R. A. DiStasio Jr., R. C. Lochan, T. Wang,
 G. J. O. Beran, N. A. Besley, J. M. Herbert, C. Y. Lin,
 T. Van Voorhis, S. H. Chien, A. Sodt, R. P. Steele, 
 V. A. Rassolov, P. E. Maslen, P. P. Korambath, R. D. Adamson,
 B. Austin, J. Baker, E. F. C. Byrd, H. Dachsel, R. J. Doerksen,
 A. Dreuw, B. D. Dunietz, A. D. Dutoi, T. R. Furlani,
 S. R. Gwaltney, A. Heyden, S. Hirata, C.-P. Hsu, G. Kedziora,
 R. Z. Khaliullin, P. Klunzinger, A. M. Lee, M. S. Lee, W. Liang,
 I. Lotan, N. Nair, B. Peters, E. I. Proynov, P. A. Pieniazek, 
 Y. M. Rhee, J. Ritchie, E. Rosta, C. D. Sherrill, 
 A. C. Simmonett, J. E. Subotnik, H. L. Woodcock III,
 W. Zhang, A. T. Bell, A. K. Chakraborty, D. M. Chipman,
 F. J. Keil, A. Warshel, W. J. Hehre, H. F. Schaefer III,
 J. Kong, A. I. Krylov, P. M. W. Gill, M. Head-Gordon,
 Q-Chem, Version 3.1, Q-Chem, Inc., Pittsburgh, PA (2007).

 Additional authors for Version 3.1: 
 Z. Gan, Y. Zhao, N. E. Schultz, D. Truhlar, E. Epifanovsky and M. Oana.

 Additional authors for Version 3.2: 
 R. Baer, B. R. Brooks, D. Casanova, J.-D. Chai, C.-L. Cheng, 
 C. Cramer, D. Crittenden, A. Ghysels, G. Hawkins, E. G. Hohenstein, 
 C. Kelley, W. Kurlancheek, D. Liotard, E. Livshits, P. Manohar, 
 A. Marenich, D. Neuhauser, R. Olson, M. A. Rohrdanz, K. S. Thanthiriwatte, 
 A. J. W. Thom, V. Vanovschi, C. F. Williams, Q. Wu and Z.-Q. You. 


 Intel X86 Linux Version

 Q-chem begins on Tue Apr 30 21:36:27 2013  

 Parallel job on  1  processors
Processing $rem in /usr/local/qchem/config/preferences.

theFileMan(): MAXOPENFILES=974 MAX_SUB_FILE_NUM=16
Maximum size of a physical file is 2.0 GB, maximum size of a tmp-file is 32.0 GB


--------------------------------------------------------------
User input:
--------------------------------------------------------------

$molecule
0,1
B
X,1,1.
X,1,1.,2,90.
Cl,1,R2,2,ALPHA,3,0.,0
Cl,1,R2,2,ALPHA,3,120.,0
Cl,1,R2,2,ALPHA,3,-120.,0

 R2=1.75274159
 ALPHA=90.

$end

$comment
neutral
$end

$xc_functional
C PBE   1.00
X wPBE  1.00
$end


$rem
SYMMETRY_DECOMPOSITION	0
LRC_DFT                 true
exchange 		general
BASIS                   g3large
omega			370
mem_static              760
max_scf_cycles          200
scf_final_print         1
sym_ignore              true
$end

--------------------------------------------------------------
 Writing REM_CC_EA            4
 ----------------------------------------------------
       Standard Nuclear Orientation (Angstroms)
    I     Atom         X            Y            Z
 ----------------------------------------------------
    1      B       0.000000     0.000000     0.000000
    2      Cl      1.752742     0.000000     0.000000
    3      Cl     -0.876371    -1.517919     0.000000
    4      Cl     -0.876371     1.517919     0.000000
 ----------------------------------------------------
 Nuclear Repulsion Energy =   228.1149461282 hartrees
 There are       28 alpha and       28 beta electrons
 Requested basis set is G3large
 There are 67 shells and 240 basis functions

Total QAlloc Memory Limit   2000 MB
Mega-Array Size       743 MB
MEM_STATIC part       760 MB

                       Distance Matrix (Angstroms)
             B (  1)   Cl(  2)   Cl(  3)
   Cl(  2)  1.752742
   Cl(  3)  1.752742  3.035837
   Cl(  4)  1.752742  3.035837  3.035837
 
 A cutoff of  1.0D-08 yielded   1837 shell pairs
 There are  24483 function pairs ( 34446 Cartesian)
Evaluating contribution to one-electron hamiltonian from nuclear
 Smallest overlap matrix eigenvalue = 8.96E-04
 Multipole matrices computed through 2nd order

  Scale SEOQF with 1.000000e-01/1.000000e-01/1.000000e-01

 Standard Electronic Orientation quadrupole field applied
 Nucleus-field energy     =     0.0000000084 hartrees
 Guess from superposition of atomic densities
 Warning:  Energy on first SCF cycle will be non-variational
 Long-range K will be added via erf
 Coulomb attenuation parameter = 0.37 bohr**(-1)
 A restricted Kohn-Sham SCF calculation will be
 performed using Pulay DIIS extrapolation
 Exchange:  wPBE + LR-HF      Correlation:  PBE
 Using SG-1 standard quadrature grid
 SCF converges when DIIS error is below 1.0E-05
 Requested basis set is G3large
 There are 67 shells and 240 basis functions
 A cutoff of  1.0D-08 yielded   1837 shell pairs
 There are  24483 function pairs ( 34446 Cartesian)
 ---------------------------------------
  Cycle       Energy         DIIS Error
 ---------------------------------------
    1   -1405.7296572418      2.19E-02
    2   -1405.0888164779      2.48E-03
    3   -1405.1044056591      2.52E-03
    4   -1405.1436079151      1.73E-04
    5   -1405.1439885373      5.44E-05
    6   -1405.1440365506      1.74E-05
    7   -1405.1440364959      4.80E-06 Convergence criterion met
 ---------------------------------------
 One-Electron    Energy = -2393.7728798521
 Total Coulomb   Energy =   848.8923452811
 Alpha Exchange  Energy =    -5.4251623504
 Beta  Exchange  Energy =    -5.4251623504
 DFT   Exchange  Energy =   -75.3705239810
 DFT Correlation Energy =    -2.1575993797
 Nuclear Repu.   Energy =   228.1149461366
 Nuclear Attr.   Energy = -3796.9104111111
 Kinetic         Energy =  1403.1375312590
 SCF time:  CPU 143.97 s  wall 146.06 s
 Final Alpha MO Eigenvalues
            1           2           3           4           5           6
    1-100.8868782-100.8868135-100.8867295  -9.4102347  -9.4101974  -9.4101299
            7           8           9          10          11          12
    1  -7.2271567  -7.2270553  -7.2269660  -7.2216678  -7.2216166  -7.2215669
           13          14          15          16          17          18
    1  -7.2195143  -7.2193807  -7.2192766  -6.8717111  -1.0331320  -0.9802941
           19          20          21          22          23          24
    1  -0.9802759  -0.6567588  -0.5770915  -0.5770768  -0.5348771  -0.4678685
           25          26          27          28          29          30
    1  -0.4678512  -0.4613970  -0.4613799  -0.4349262   0.0103265   0.0421791
           31          32          33
    1   0.0647765   0.0647798   0.0763676
 Analysis of SCF Wavefunction
 
 --------------------------------------------------------------
                    Orbital Energies (a.u.)
 --------------------------------------------------------------
 
 Alpha MOs
 -- Occupied --
*******-100.887-100.887  -9.410  -9.410  -9.410  -7.227  -7.227
 -7.227  -7.222  -7.222  -7.222  -7.220  -7.219  -7.219  -6.872
 -1.033  -0.980  -0.980  -0.657  -0.577  -0.577  -0.535  -0.468
 -0.468  -0.461  -0.461  -0.435
 -- Virtual --
  0.010   0.042   0.065   0.065   0.076   0.112   0.120   0.120
  0.143   0.143   0.150   0.177   0.182   0.182   0.182   0.198
  0.212   0.212   0.221   0.221   0.294   0.294   0.321   0.350
  0.350   0.409   0.409   0.413   0.416   0.416   0.428   0.468
  0.486   0.515   0.544   0.559   0.559   0.571   0.572   0.593
  0.593   0.642   0.642   0.688   0.732   0.732   0.756   0.756
  0.809   0.831   0.831   0.927   0.927   1.105   1.105   1.141
  1.145   1.155   1.155   1.164   1.164   1.183   1.186   1.186
  1.196   1.196   1.208   1.224   1.227   1.227   1.255   1.273
  1.296   1.296   1.405   1.411   1.411   1.411   1.419   1.419
  1.476   1.481   1.566   1.566   1.660   1.661   1.692   1.692
  1.752   1.752   1.772   1.832   1.905   2.036   2.036   2.212
  2.215   2.215   2.231   2.273   2.292   2.292   2.387   2.387
  2.481   2.520   2.520   2.556   2.556   2.587   2.662   2.662
  2.737   2.942   3.090   3.090   4.398   4.413   4.413   4.413
  4.413   4.445   4.468   4.476   4.476   4.488   4.501   4.501
  4.526   4.622   4.622   4.628   4.631   4.631   4.658   4.658
  4.727   5.064   5.064   5.093   5.115   5.143   5.143   5.223
  5.223   5.234   5.258   5.260   5.442   5.547   5.763   5.764
  9.864   9.902   9.902  14.747  18.811  19.365  19.365  20.568
 20.568  20.568  20.603  20.695  20.695  20.844  20.844  20.890
 27.061  27.081  27.084  27.126  27.126  27.139  27.148  27.177
 27.188  27.188  27.197  27.258  27.260  27.346  27.373  35.882
 35.936  36.348  36.348  36.418  36.775  36.779  36.780  36.780
 36.780  36.782  36.783  36.785  36.785  36.787  36.789  36.790
 36.793  36.804  36.804  36.805  36.806  36.808  36.810  36.810
 36.823 215.751 215.802 215.802
 --------------------------------------------------------------
 
          Ground-State Mulliken Net Atomic Charges

     Atom                 Charge (a.u.)
  ----------------------------------------
      1 B                     0.537309
      2 Cl                   -0.178773
      3 Cl                   -0.179221
      4 Cl                   -0.179314
  ----------------------------------------
  Sum of atomic charges =     0.000000

 -----------------------------------------------------------------
                    Cartesian Multipole Moments
 -----------------------------------------------------------------
    Charge (ESU x 10^10)
                 0.0000
    Dipole Moment (Debye)
         X      -0.0002      Y      -0.0007      Z       0.0000
       Tot       0.0007
    Quadrupole Moments (Debye-Ang)
        XX     -43.0350     XY       0.0005     YY     -43.0351
        XZ       0.0004     YZ      -0.0009     ZZ     -42.1377
    Octapole Moments (Debye-Ang^2)
       XXX       3.7616    XXY      -0.0010    XYY      -3.7666
       YYY      -0.0031    XXZ       0.0002    XYZ       0.0004
       YYZ      -0.0001    XZZ      -0.0003    YZZ      -0.0003
       ZZZ       0.0000
    Hexadecapole Moments (Debye-Ang^3)
      XXXX    -375.2780   XXXY      -0.0021   XXYY    -125.0953
      XYYY       0.0010   YYYY    -375.2834   XXXZ       0.0030
      XXYZ      -0.0023   XYYZ       0.0010   YYYZ      -0.0069
      XXZZ     -73.4880   XYZZ       0.0003   YYZZ     -73.4884
      XZZZ       0.0004   YZZZ      -0.0009   ZZZZ     -47.8951
 -----------------------------------------------------------------
 Total job time:  146.42s(wall), 144.30s(cpu) 
 Tue Apr 30 21:38:54 2013

        *************************************************************
        *                                                           *
        *  Thank you very much for using Q-Chem.  Have a nice day.  *
        *                                                           *
        *************************************************************


0 sent ACK to 0 
now end server 0 ... 
 
**********************************************************************
Job 3 of 3 
**********************************************************************
 
Process 0 of 1 is on cl087.stfx.acenet.ca - thread support 1
initial socket setup ...start
initial socket setup ...done 
now start server 0 ... 

cmd = /usr/bin/ssh clhead /usr/local/qchem/bin/get_hostid 397963508 > /scratch/tmp/5955872.1.short.q/qchem28750/lic.dat
                  Welcome to Q-Chem
     A Quantum Leap Into The Future Of Chemistry

 Y. Shao, L. Fusti-Molnar, Y. Jung, J. Kussmann, C. Ochsenfeld,
 S. T. Brown, A. T. B. Gilbert, L. V. Slipchenko,S. V. Levchenko,
 D. P. O'Neill, R. A. DiStasio Jr., R. C. Lochan, T. Wang,
 G. J. O. Beran, N. A. Besley, J. M. Herbert, C. Y. Lin,
 T. Van Voorhis, S. H. Chien, A. Sodt, R. P. Steele, 
 V. A. Rassolov, P. E. Maslen, P. P. Korambath, R. D. Adamson,
 B. Austin, J. Baker, E. F. C. Byrd, H. Dachsel, R. J. Doerksen,
 A. Dreuw, B. D. Dunietz, A. D. Dutoi, T. R. Furlani,
 S. R. Gwaltney, A. Heyden, S. Hirata, C.-P. Hsu, G. Kedziora,
 R. Z. Khaliullin, P. Klunzinger, A. M. Lee, M. S. Lee, W. Liang,
 I. Lotan, N. Nair, B. Peters, E. I. Proynov, P. A. Pieniazek, 
 Y. M. Rhee, J. Ritchie, E. Rosta, C. D. Sherrill, 
 A. C. Simmonett, J. E. Subotnik, H. L. Woodcock III,
 W. Zhang, A. T. Bell, A. K. Chakraborty, D. M. Chipman,
 F. J. Keil, A. Warshel, W. J. Hehre, H. F. Schaefer III,
 J. Kong, A. I. Krylov, P. M. W. Gill, M. Head-Gordon,
 Q-Chem, Version 3.1, Q-Chem, Inc., Pittsburgh, PA (2007).

 Additional authors for Version 3.1: 
 Z. Gan, Y. Zhao, N. E. Schultz, D. Truhlar, E. Epifanovsky and M. Oana.

 Additional authors for Version 3.2: 
 R. Baer, B. R. Brooks, D. Casanova, J.-D. Chai, C.-L. Cheng, 
 C. Cramer, D. Crittenden, A. Ghysels, G. Hawkins, E. G. Hohenstein, 
 C. Kelley, W. Kurlancheek, D. Liotard, E. Livshits, P. Manohar, 
 A. Marenich, D. Neuhauser, R. Olson, M. A. Rohrdanz, K. S. Thanthiriwatte, 
 A. J. W. Thom, V. Vanovschi, C. F. Williams, Q. Wu and Z.-Q. You. 


 Intel X86 Linux Version

 Q-chem begins on Tue Apr 30 21:38:57 2013  

 Parallel job on  1  processors
Processing $rem in /usr/local/qchem/config/preferences.

theFileMan(): MAXOPENFILES=974 MAX_SUB_FILE_NUM=16
Maximum size of a physical file is 2.0 GB, maximum size of a tmp-file is 32.0 GB


--------------------------------------------------------------
User input:
--------------------------------------------------------------

$molecule
1,2
B
X,1,1.
X,1,1.,2,90.
Cl,1,R2,2,ALPHA,3,0.,0
Cl,1,R2,2,ALPHA,3,120.,0
Cl,1,R2,2,ALPHA,3,-120.,0

 R2=1.75274159
 ALPHA=90.

$end

$comment
positive
$end

$xc_functional
C PBE   1.00
X wPBE  1.00
$end

$rem
SYMMETRY_DECOMPOSITION	0
LRC_DFT                 true
exchange 		general
BASIS                   g3large
omega			370
mem_static              760
max_scf_cycles          200
scf_final_print         1
sym_ignore              true
$end

--------------------------------------------------------------
 Writing REM_CC_EA            4
 ----------------------------------------------------
       Standard Nuclear Orientation (Angstroms)
    I     Atom         X            Y            Z
 ----------------------------------------------------
    1      B       0.000000     0.000000     0.000000
    2      Cl      1.752742     0.000000     0.000000
    3      Cl     -0.876371    -1.517919     0.000000
    4      Cl     -0.876371     1.517919     0.000000
 ----------------------------------------------------
 Nuclear Repulsion Energy =   228.1149461282 hartrees
 There are       28 alpha and       27 beta electrons
 Requested basis set is G3large
 There are 67 shells and 240 basis functions

Total QAlloc Memory Limit   2000 MB
Mega-Array Size       743 MB
MEM_STATIC part       760 MB

                       Distance Matrix (Angstroms)
             B (  1)   Cl(  2)   Cl(  3)
   Cl(  2)  1.752742
   Cl(  3)  1.752742  3.035837
   Cl(  4)  1.752742  3.035837  3.035837
 
 A cutoff of  1.0D-08 yielded   1837 shell pairs
 There are  24483 function pairs ( 34446 Cartesian)
Evaluating contribution to one-electron hamiltonian from nuclear
 Smallest overlap matrix eigenvalue = 8.96E-04
 Multipole matrices computed through 2nd order

  Scale SEOQF with 1.000000e-01/1.000000e-01/1.000000e-01

 Standard Electronic Orientation quadrupole field applied
 Nucleus-field energy     =     0.0000000084 hartrees
 Guess from superposition of atomic densities
 Warning:  Energy on first SCF cycle will be non-variational
 Long-range K will be added via erf
 Coulomb attenuation parameter = 0.37 bohr**(-1)
 An unrestricted Kohn-Sham SCF calculation will be
 performed using Pulay DIIS extrapolation
 Exchange:  wPBE + LR-HF      Correlation:  PBE
 Using SG-1 standard quadrature grid
 SCF converges when DIIS error is below 1.0E-05
 Requested basis set is G3large
 There are 67 shells and 240 basis functions
 A cutoff of  1.0D-08 yielded   1837 shell pairs
 There are  24483 function pairs ( 34446 Cartesian)
 Warning!  Inaccurate integrated density:
   Number of electrons =    55
   Numerical integral  =    55.999955102590
   Relative error      =     1.8181001865 %
 ---------------------------------------
  Cycle       Energy         DIIS Error
 ---------------------------------------
    1   -1405.7296572418      2.19E-02
    2   -1404.6002958262      3.03E-03
    3   -1404.6267581163      3.33E-03
    4   -1404.7004679779      3.44E-04
    5   -1404.7019743813      1.67E-04
    6   -1404.7026135014      6.49E-05
    7   -1404.7030408021      6.78E-05
    8   -1404.7033112116      5.07E-05
    9   -1404.7038576423      3.93E-05
   10   -1404.7042635710      3.05E-05
   11   -1404.7046132981      2.12E-05
   12   -1404.7047670141      1.11E-05
   13   -1404.7048154579      7.61E-06 Convergence criterion met
 ---------------------------------------
 One-Electron    Energy = -2379.7205643085
 Total Coulomb   Energy =   834.8732840843
 Alpha Exchange  Energy =    -5.4413668930
 Beta  Exchange  Energy =    -5.2091334548
 DFT   Exchange  Energy =   -75.2042608543
 DFT Correlation Energy =    -2.1177201681
 Nuclear Repu.   Energy =   228.1149461366
 Nuclear Attr.   Energy = -3782.3702428991
 Kinetic         Energy =  1402.6496785906
 <S^2> = 0.7590
 SCF time:  CPU 322.65 s  wall 327.85 s
 Final Alpha MO Eigenvalues
            1           2           3           4           5           6
    1-101.1560634-101.1502602-101.1496673  -9.6757811  -9.6701378  -9.6695644
            7           8           9          10          11          12
    1  -7.4921450  -7.4907830  -7.4861078  -7.4852495  -7.4851510  -7.4847978
           13          14          15          16          17          18
    1  -7.4846213  -7.4791866  -7.4786672  -7.1061226  -1.2806166  -1.2322974
           19          20          21          22          23          24
    1  -1.2288826  -0.8949978  -0.8192749  -0.8189309  -0.7672312  -0.7221570
           25          26          27          28          29          30
    1  -0.7200149  -0.6995013  -0.6965896  -0.6958770  -0.2112040  -0.1156148
           31          32          33
    1  -0.0882089  -0.0665871  -0.0661666
 Final Beta MO Eigenvalues
            1           2           3           4           5           6
    1-101.1535038-101.1479102-101.1473290  -9.6735188  -9.6680627  -9.6675016
            7           8           9          10          11          12
    1  -7.4892174  -7.4853416  -7.4840359  -7.4833620  -7.4832823  -7.4795439
           13          14          15          16          17          18
    1  -7.4790678  -7.4779568  -7.4774255  -7.1064472  -1.2687733  -1.2135097
           19          20          21          22          23          24
    1  -1.2112831  -0.8883335  -0.8050627  -0.8027739  -0.7639285  -0.6934154
           25          26          27          28          29          30
    1  -0.6904741  -0.6587004  -0.6586193  -0.4435613  -0.2110787  -0.1125741
           31          32
    1  -0.0861092  -0.0632049
 Analysis of SCF Wavefunction
 
 --------------------------------------------------------------
                    Orbital Energies (a.u.)
 --------------------------------------------------------------
 
 Alpha MOs
 -- Occupied --
*******-101.150-101.150  -9.676  -9.670  -9.670  -7.492  -7.491
 -7.486  -7.485  -7.485  -7.485  -7.485  -7.479  -7.479  -7.106
 -1.281  -1.232  -1.229  -0.895  -0.819  -0.819  -0.767  -0.722
 -0.720  -0.700  -0.697  -0.696
 -- Virtual --
 -0.211  -0.116  -0.088  -0.067  -0.066  -0.058  -0.057  -0.056
 -0.014   0.000   0.000   0.019   0.019   0.021   0.033   0.033
  0.036   0.061   0.070   0.070   0.077   0.078   0.119   0.133
  0.134   0.191   0.203   0.203   0.209   0.210   0.240   0.271
  0.278   0.334   0.339   0.372   0.373   0.384   0.385   0.403
  0.404   0.425   0.425   0.497   0.519   0.522   0.557   0.557
  0.586   0.624   0.624   0.712   0.713   0.873   0.873   0.908
  0.917   0.929   0.930   0.935   0.936   0.950   0.957   0.957
  0.965   0.967   0.984   0.999   1.000   1.002   1.039   1.046
  1.059   1.061   1.182   1.185   1.186   1.189   1.203   1.204
  1.256   1.267   1.337   1.338   1.438   1.438   1.481   1.482
  1.529   1.530   1.547   1.596   1.685   1.813   1.814   1.984
  1.986   1.987   2.003   2.029   2.067   2.067   2.154   2.155
  2.253   2.277   2.280   2.329   2.331   2.362   2.428   2.429
  2.503   2.704   2.858   2.860   4.140   4.150   4.150   4.152
  4.155   4.182   4.215   4.221   4.222   4.233   4.242   4.244
  4.279   4.369   4.370   4.373   4.386   4.388   4.400   4.402
  4.477   4.804   4.808   4.834   4.856   4.883   4.887   4.973
  4.976   4.986   4.998   5.003   5.190   5.288   5.512   5.515
  9.609   9.644   9.648  14.513  18.577  19.131  19.131  20.300
 20.308  20.312  20.345  20.425  20.429  20.583  20.587  20.632
 26.798  26.816  26.821  26.860  26.864  26.874  26.884  26.913
 26.928  26.931  26.940  26.996  26.998  27.085  27.112  35.647
 35.701  36.114  36.114  36.184  36.512  36.514  36.517  36.518
 36.518  36.519  36.521  36.523  36.526  36.527  36.528  36.529
 36.533  36.540  36.545  36.546  36.546  36.547  36.549  36.551
 36.563 215.487 215.536 215.540
 
 Beta MOs
 -- Occupied --
*******-101.148-101.147  -9.674  -9.668  -9.668  -7.489  -7.485
 -7.484  -7.483  -7.483  -7.480  -7.479  -7.478  -7.477  -7.106
 -1.269  -1.214  -1.211  -0.888  -0.805  -0.803  -0.764  -0.693
 -0.690  -0.659  -0.659
 -- Virtual --
 -0.444  -0.211  -0.113  -0.086  -0.063  -0.063  -0.058  -0.054
 -0.054  -0.013   0.000   0.001   0.021   0.025   0.025   0.034
  0.035   0.039   0.062   0.073   0.073   0.083   0.083   0.123
  0.147   0.148   0.207   0.208   0.209   0.215   0.216   0.239
  0.281   0.287   0.336   0.340   0.380   0.381   0.387   0.388
  0.405   0.406   0.432   0.433   0.498   0.523   0.531   0.560
  0.560   0.591   0.624   0.625   0.719   0.719   0.881   0.881
  0.922   0.923   0.937   0.938   0.943   0.944   0.962   0.963
  0.963   0.977   0.978   0.993   1.005   1.011   1.013   1.041
  1.060   1.070   1.071   1.189   1.189   1.191   1.192   1.208
  1.209   1.259   1.271   1.347   1.347   1.444   1.444   1.484
  1.484   1.539   1.539   1.551   1.605   1.685   1.814   1.815
  1.987   1.989   1.989   2.006   2.048   2.065   2.065   2.156
  2.156   2.253   2.292   2.295   2.330   2.331   2.362   2.429
  2.430   2.508   2.706   2.860   2.861   4.158   4.171   4.171
  4.173   4.174   4.205   4.227   4.235   4.236   4.247   4.259
  4.261   4.286   4.380   4.382   4.386   4.390   4.392   4.417
  4.419   4.487   4.811   4.814   4.841   4.863   4.891   4.894
  4.974   4.977   4.987   5.005   5.009   5.194   5.296   5.515
  5.517   9.613   9.649   9.652  14.513  18.577  19.130  19.130
 20.309  20.310  20.313  20.347  20.435  20.439  20.586  20.589
 20.634  26.803  26.821  26.826  26.865  26.868  26.879  26.889
 26.918  26.929  26.933  26.940  27.000  27.001  27.087  27.114
 35.647  35.701  36.114  36.114  36.183  36.514  36.516  36.519
 36.520  36.520  36.521  36.523  36.524  36.527  36.529  36.529
 36.531  36.534  36.542  36.546  36.546  36.548  36.548  36.550
 36.552  36.565 215.489 215.539 215.543
 --------------------------------------------------------------
 
          Ground-State Mulliken Net Atomic Charges

     Atom                 Charge (a.u.)    Spin (a.u.)
  --------------------------------------------------------
      1 B                     0.571736      -0.047577
      2 Cl                    0.138637       0.340360
      3 Cl                    0.153140       0.369681
      4 Cl                    0.136488       0.337536
  --------------------------------------------------------
  Sum of atomic charges =     1.000000
  Sum of spin   charges =     1.000000

 -----------------------------------------------------------------
                    Cartesian Multipole Moments
 -----------------------------------------------------------------
    Charge (ESU x 10^10)
                 4.8032
    Dipole Moment (Debye)
         X      -0.0511      Y      -0.1134      Z       0.0001
       Tot       0.1244
    Quadrupole Moments (Debye-Ang)
        XX     -30.0716     XY       0.1279     YY     -29.9560
        XZ      -0.0002     YZ       0.0137     ZZ     -39.0119
    Octapole Moments (Debye-Ang^2)
       XXX      10.1043    XXY      -0.1253    XYY     -10.3333
       YYY      -0.3766    XXZ       0.0021    XYZ       0.0316
       YYZ      -0.0012    XZZ      -0.0233    YZZ      -0.0506
       ZZZ       0.0001
    Hexadecapole Moments (Debye-Ang^3)
      XXXX    -307.6517   XXXY       0.5458   XXYY    -102.5294
      XYYY       0.2422   YYYY    -306.9347   XXXZ       0.0001
      XXYZ       0.0101   XYYZ      -0.0005   YYYZ       0.0575
      XXZZ     -65.4852   XYZZ       0.0571   YYZZ     -65.4333
      XZZZ       0.0000   YZZZ       0.0090   ZZZZ     -40.5915
 -----------------------------------------------------------------
 Total job time:  328.24s(wall), 322.99s(cpu) 
 Tue Apr 30 21:44:25 2013

        *************************************************************
        *                                                           *
        *  Thank you very much for using Q-Chem.  Have a nice day.  *
        *                                                           *
        *************************************************************


0 sent ACK to 0 
now end server 0 ... 
