Process 0 of 1 is on cl159.stfx.acenet.ca - thread support 1
initial socket setup ...start
initial socket setup ...done 
now start server 0 ... 

cmd = /usr/bin/ssh clhead /usr/local/qchem/bin/get_hostid 1168994888 > /scratch/tmp/6063436.1.medium.q/qchem19450/lic.dat
                  Welcome to Q-Chem
     A Quantum Leap Into The Future Of Chemistry

 Y. Shao, L. Fusti-Molnar, Y. Jung, J. Kussmann, C. Ochsenfeld,
 S. T. Brown, A. T. B. Gilbert, L. V. Slipchenko,S. V. Levchenko,
 D. P. O'Neill, R. A. DiStasio Jr., R. C. Lochan, T. Wang,
 G. J. O. Beran, N. A. Besley, J. M. Herbert, C. Y. Lin,
 T. Van Voorhis, S. H. Chien, A. Sodt, R. P. Steele, 
 V. A. Rassolov, P. E. Maslen, P. P. Korambath, R. D. Adamson,
 B. Austin, J. Baker, E. F. C. Byrd, H. Dachsel, R. J. Doerksen,
 A. Dreuw, B. D. Dunietz, A. D. Dutoi, T. R. Furlani,
 S. R. Gwaltney, A. Heyden, S. Hirata, C.-P. Hsu, G. Kedziora,
 R. Z. Khaliullin, P. Klunzinger, A. M. Lee, M. S. Lee, W. Liang,
 I. Lotan, N. Nair, B. Peters, E. I. Proynov, P. A. Pieniazek, 
 Y. M. Rhee, J. Ritchie, E. Rosta, C. D. Sherrill, 
 A. C. Simmonett, J. E. Subotnik, H. L. Woodcock III,
 W. Zhang, A. T. Bell, A. K. Chakraborty, D. M. Chipman,
 F. J. Keil, A. Warshel, W. J. Hehre, H. F. Schaefer III,
 J. Kong, A. I. Krylov, P. M. W. Gill, M. Head-Gordon,
 Q-Chem, Version 3.1, Q-Chem, Inc., Pittsburgh, PA (2007).

 Additional authors for Version 3.1: 
 Z. Gan, Y. Zhao, N. E. Schultz, D. Truhlar, E. Epifanovsky and M. Oana.

 Additional authors for Version 3.2: 
 R. Baer, B. R. Brooks, D. Casanova, J.-D. Chai, C.-L. Cheng, 
 C. Cramer, D. Crittenden, A. Ghysels, G. Hawkins, E. G. Hohenstein, 
 C. Kelley, W. Kurlancheek, D. Liotard, E. Livshits, P. Manohar, 
 A. Marenich, D. Neuhauser, R. Olson, M. A. Rohrdanz, K. S. Thanthiriwatte, 
 A. J. W. Thom, V. Vanovschi, C. F. Williams, Q. Wu and Z.-Q. You. 


 Intel X86 Linux Version

 Q-chem begins on Sun Jul  7 08:37:38 2013  

 Parallel job on  1  processors
Processing $rem in /usr/local/qchem/config/preferences.

theFileMan(): MAXOPENFILES=974 MAX_SUB_FILE_NUM=16
Maximum size of a physical file is 2.0 GB, maximum size of a tmp-file is 32.0 GB


--------------------------------------------------------------
User input:
--------------------------------------------------------------

$molecule
-1,2
Cl         0.00000        0.00000        0.00961
H          0.00000        0.00000        1.28030
$end

$comment
negative
$end

$xc_functional
C PBE   1.00
X wPBE  1.00
$end

$rem
SYMMETRY_DECOMPOSITION	0
exchange 		general
LRC_DFT                 true
BASIS                   g3large
omega			700
mem_static              760
max_scf_cycles          200
scf_final_print         1
sym_ignore              true
$end

--------------------------------------------------------------
 Writing REM_CC_EA            2
 ----------------------------------------------------
       Standard Nuclear Orientation (Angstroms)
    I     Atom         X            Y            Z
 ----------------------------------------------------
    1      Cl      0.000000     0.000000     0.009610
    2      H       0.000000     0.000000     1.280300
 ----------------------------------------------------
 Nuclear Repulsion Energy =     7.0796280632 hartrees
 There are       10 alpha and        9 beta electrons
 Requested basis set is G3large
 There are 25 shells and 76 basis functions

Total QAlloc Memory Limit   2000 MB
Mega-Array Size       743 MB
MEM_STATIC part       760 MB

                       Distance Matrix (Angstroms)
             Cl(  1)
   H (  2)  1.270690
 
 A cutoff of  1.0D-08 yielded    325 shell pairs
 There are   3056 function pairs (  4227 Cartesian)
Evaluating contribution to one-electron hamiltonian from nuclear
 Smallest overlap matrix eigenvalue = 3.54E-03
 Multipole matrices computed through 2nd order

  Scale SEOQF with 1.000000e-01/1.000000e-01/1.000000e-01

 Standard Electronic Orientation quadrupole field applied
 Nucleus-field energy     =    -0.0000000002 hartrees
 Guess from superposition of atomic densities
 Warning:  Energy on first SCF cycle will be non-variational
 Long-range K will be added via erf
 Coulomb attenuation parameter = 0.7 bohr**(-1)
 An unrestricted Kohn-Sham SCF calculation will be
 performed using Pulay DIIS extrapolation
 Exchange:  wPBE + LR-HF      Correlation:  PBE
 Using SG-1 standard quadrature grid
 SCF converges when DIIS error is below 1.0E-05
 Requested basis set is G3large
 There are 25 shells and 76 basis functions
 A cutoff of  1.0D-08 yielded    325 shell pairs
 There are   3056 function pairs (  4227 Cartesian)
 Warning!  Inaccurate integrated density:
   Number of electrons =    19
   Numerical integral  =    17.999993743395
   Relative error      =    -5.2631908242 %
 ---------------------------------------
  Cycle       Energy         DIIS Error
 ---------------------------------------
    1    -460.6694054194      3.07E-02
    2    -460.6534469988      3.94E-03
    3    -460.6752651716      2.65E-03
    4    -460.6801358978      6.10E-04
    5    -460.6824156881      3.00E-04
    6    -460.6836390680      1.17E-04
    7    -460.6839048623      3.09E-05
    8    -460.6839232126      9.57E-06 Convergence criterion met
 ---------------------------------------
 One-Electron    Energy =  -653.3024496436
 Total Coulomb   Energy =   214.1515859821
 Alpha Exchange  Energy =    -3.0654362006
 Beta  Exchange  Energy =    -2.9665710593
 DFT   Exchange  Energy =   -21.8831608407
 DFT Correlation Energy =    -0.6975195136
 Nuclear Repu.   Energy =     7.0796280630
 Nuclear Attr.   Energy = -1113.4569917119
 Kinetic         Energy =   460.1545420683
 <S^2> = 0.7503
 SCF time:  CPU 11.42 s  wall 11.74 s
 Final Alpha MO Eigenvalues
            1           2           3           4           5           6
    1-100.8681700  -9.3972013  -7.1978353  -7.1892396  -7.1892387  -0.9124421
            7           8           9          10          11          12
    1  -0.4643757  -0.3242282  -0.3242260   0.0238257   0.2271245   0.2441827
           13          14          15
    1   0.2441834   0.3010444   0.3339682
 Final Beta MO Eigenvalues
            1           2           3           4           5           6
    1-100.8677596  -9.3967494  -7.1970098  -7.1888875  -7.1888863  -0.9076919
            7           8           9          10          11          12
    1  -0.4599185  -0.3230249  -0.3230232   0.1866978   0.2445370   0.2551555
           13          14
    1   0.2551560   0.3105681
 Analysis of SCF Wavefunction
 
 --------------------------------------------------------------
                    Orbital Energies (a.u.)
 --------------------------------------------------------------
 
 Alpha MOs
 -- Occupied --
*******  -9.397  -7.198  -7.189  -7.189  -0.912  -0.464  -0.324
 -0.324   0.024
 -- Virtual --
  0.227   0.244   0.244   0.301   0.334   0.527   0.527   0.549
  0.558   0.558   0.719   0.755   0.755   0.880   1.158   1.158
  1.253   1.289   1.413   1.413   1.430   1.430   1.438   1.438
  1.452   1.452   1.704   1.745   1.745   1.928   2.501   2.501
  2.857   3.044   4.080   4.101   4.101   4.723   4.723   4.739
  4.739   4.847   4.847   5.161   5.404   5.406   5.423   5.423
  6.199   9.810  20.883  20.883  21.135  27.422  27.498  27.498
 27.499  27.710  37.150  37.151  37.151  37.151  37.157  37.157
 37.172 215.639
 
 Beta MOs
 -- Occupied --
*******  -9.397  -7.197  -7.189  -7.189  -0.908  -0.460  -0.323
 -0.323
 -- Virtual --
  0.187   0.245   0.255   0.255   0.311   0.360   0.529   0.529
  0.550   0.559   0.559   0.722   0.757   0.757   0.883   1.161
  1.161   1.258   1.290   1.416   1.416   1.431   1.431   1.438
  1.439   1.452   1.452   1.706   1.747   1.747   1.929   2.502
  2.502   2.859   3.044   4.082   4.101   4.101   4.726   4.726
  4.741   4.741   4.849   4.849   5.163   5.404   5.406   5.424
  5.424   6.200   9.811  20.883  20.883  21.136  27.423  27.499
 27.499  27.500  27.711  37.150  37.151  37.151  37.151  37.157
 37.157  37.173 215.640
 --------------------------------------------------------------
 
          Ground-State Mulliken Net Atomic Charges

     Atom                 Charge (a.u.)    Spin (a.u.)
  --------------------------------------------------------
      1 Cl                    0.756504      -1.039963
      2 H                    -1.756504       2.039963
  --------------------------------------------------------
  Sum of atomic charges =    -1.000000
  Sum of spin   charges =     1.000000

 -----------------------------------------------------------------
                    Cartesian Multipole Moments
 -----------------------------------------------------------------
    Charge (ESU x 10^10)
                -4.8032
    Dipole Moment (Debye)
         X       0.0000      Y       0.0001      Z      -8.3273
       Tot       8.3273
    Quadrupole Moments (Debye-Ang)
        XX     -26.7641     XY       0.0000     YY     -26.7641
        XZ       0.0000     YZ       0.0001     ZZ     -45.7508
    Octapole Moments (Debye-Ang^2)
       XXX      -0.0003    XXY       0.0003    XYY      -0.0001
       YYY       0.0010    XXZ     -25.2803    XYZ       0.0000
       YYZ     -25.2803    XZZ       0.0000    YZZ       0.0002
       ZZZ    -112.9883
    Hexadecapole Moments (Debye-Ang^3)
      XXXX    -114.1827   XXXY       0.0000   XXYY     -38.0609
      XYYY       0.0000   YYYY    -114.1827   XXXZ      -0.0002
      XXYZ       0.0002   XYYZ      -0.0001   YYYZ       0.0007
      XXZZ     -88.1368   XYZZ       0.0000   YYZZ     -88.1368
      XZZZ      -0.0002   YZZZ       0.0007   ZZZZ    -475.2837
 -----------------------------------------------------------------
 Total job time:  11.89s(wall), 11.52s(cpu) 
 Sun Jul  7 08:37:49 2013

        *************************************************************
        *                                                           *
        *  Thank you very much for using Q-Chem.  Have a nice day.  *
        *                                                           *
        *************************************************************


0 sent ACK to 0 
now end server 0 ... 
 
**********************************************************************
Job 2 of 3 
**********************************************************************
 
Process 0 of 1 is on cl159.stfx.acenet.ca - thread support 1
initial socket setup ...start
initial socket setup ...done 
now start server 0 ... 

cmd = /usr/bin/ssh clhead /usr/local/qchem/bin/get_hostid 903194540 > /scratch/tmp/6063436.1.medium.q/qchem19450/lic.dat
                  Welcome to Q-Chem
     A Quantum Leap Into The Future Of Chemistry

 Y. Shao, L. Fusti-Molnar, Y. Jung, J. Kussmann, C. Ochsenfeld,
 S. T. Brown, A. T. B. Gilbert, L. V. Slipchenko,S. V. Levchenko,
 D. P. O'Neill, R. A. DiStasio Jr., R. C. Lochan, T. Wang,
 G. J. O. Beran, N. A. Besley, J. M. Herbert, C. Y. Lin,
 T. Van Voorhis, S. H. Chien, A. Sodt, R. P. Steele, 
 V. A. Rassolov, P. E. Maslen, P. P. Korambath, R. D. Adamson,
 B. Austin, J. Baker, E. F. C. Byrd, H. Dachsel, R. J. Doerksen,
 A. Dreuw, B. D. Dunietz, A. D. Dutoi, T. R. Furlani,
 S. R. Gwaltney, A. Heyden, S. Hirata, C.-P. Hsu, G. Kedziora,
 R. Z. Khaliullin, P. Klunzinger, A. M. Lee, M. S. Lee, W. Liang,
 I. Lotan, N. Nair, B. Peters, E. I. Proynov, P. A. Pieniazek, 
 Y. M. Rhee, J. Ritchie, E. Rosta, C. D. Sherrill, 
 A. C. Simmonett, J. E. Subotnik, H. L. Woodcock III,
 W. Zhang, A. T. Bell, A. K. Chakraborty, D. M. Chipman,
 F. J. Keil, A. Warshel, W. J. Hehre, H. F. Schaefer III,
 J. Kong, A. I. Krylov, P. M. W. Gill, M. Head-Gordon,
 Q-Chem, Version 3.1, Q-Chem, Inc., Pittsburgh, PA (2007).

 Additional authors for Version 3.1: 
 Z. Gan, Y. Zhao, N. E. Schultz, D. Truhlar, E. Epifanovsky and M. Oana.

 Additional authors for Version 3.2: 
 R. Baer, B. R. Brooks, D. Casanova, J.-D. Chai, C.-L. Cheng, 
 C. Cramer, D. Crittenden, A. Ghysels, G. Hawkins, E. G. Hohenstein, 
 C. Kelley, W. Kurlancheek, D. Liotard, E. Livshits, P. Manohar, 
 A. Marenich, D. Neuhauser, R. Olson, M. A. Rohrdanz, K. S. Thanthiriwatte, 
 A. J. W. Thom, V. Vanovschi, C. F. Williams, Q. Wu and Z.-Q. You. 


 Intel X86 Linux Version

 Q-chem begins on Sun Jul  7 08:37:53 2013  

 Parallel job on  1  processors
Processing $rem in /usr/local/qchem/config/preferences.

theFileMan(): MAXOPENFILES=974 MAX_SUB_FILE_NUM=16
Maximum size of a physical file is 2.0 GB, maximum size of a tmp-file is 32.0 GB


--------------------------------------------------------------
User input:
--------------------------------------------------------------

$molecule
0,1
Cl         0.00000        0.00000        0.00961
H          0.00000        0.00000        1.28030
$end

$comment
neutral
$end

$xc_functional
C PBE   1.00
X wPBE  1.00
$end


$rem
SYMMETRY_DECOMPOSITION	0
LRC_DFT                 true
exchange 		general
BASIS                   g3large
omega			700
mem_static              760
max_scf_cycles          200
scf_final_print         1
sym_ignore              true
$end

--------------------------------------------------------------
 Writing REM_CC_EA            2
 ----------------------------------------------------
       Standard Nuclear Orientation (Angstroms)
    I     Atom         X            Y            Z
 ----------------------------------------------------
    1      Cl      0.000000     0.000000     0.009610
    2      H       0.000000     0.000000     1.280300
 ----------------------------------------------------
 Nuclear Repulsion Energy =     7.0796280632 hartrees
 There are        9 alpha and        9 beta electrons
 Requested basis set is G3large
 There are 25 shells and 76 basis functions

Total QAlloc Memory Limit   2000 MB
Mega-Array Size       743 MB
MEM_STATIC part       760 MB

                       Distance Matrix (Angstroms)
             Cl(  1)
   H (  2)  1.270690
 
 A cutoff of  1.0D-08 yielded    325 shell pairs
 There are   3056 function pairs (  4227 Cartesian)
Evaluating contribution to one-electron hamiltonian from nuclear
 Smallest overlap matrix eigenvalue = 3.54E-03
 Multipole matrices computed through 2nd order

  Scale SEOQF with 1.000000e-01/1.000000e-01/1.000000e-01

 Standard Electronic Orientation quadrupole field applied
 Nucleus-field energy     =    -0.0000000002 hartrees
 Guess from superposition of atomic densities
 Warning:  Energy on first SCF cycle will be non-variational
 Long-range K will be added via erf
 Coulomb attenuation parameter = 0.7 bohr**(-1)
 A restricted Kohn-Sham SCF calculation will be
 performed using Pulay DIIS extrapolation
 Exchange:  wPBE + LR-HF      Correlation:  PBE
 Using SG-1 standard quadrature grid
 SCF converges when DIIS error is below 1.0E-05
 Requested basis set is G3large
 There are 25 shells and 76 basis functions
 A cutoff of  1.0D-08 yielded    325 shell pairs
 There are   3056 function pairs (  4227 Cartesian)
 ---------------------------------------
  Cycle       Energy         DIIS Error
 ---------------------------------------
    1    -460.6694054194      3.07E-02
    2    -460.6976942604      4.13E-03
    3    -460.7114188622      2.17E-03
    4    -460.7135878030      3.10E-04
    5    -460.7137214971      1.10E-04
    6    -460.7137461498      2.86E-05
    7    -460.7137480421      6.98E-06 Convergence criterion met
 ---------------------------------------
 One-Electron    Energy =  -650.1622147962
 Total Coulomb   Energy =   210.8738675026
 Alpha Exchange  Energy =    -2.9699835617
 Beta  Exchange  Energy =    -2.9699835617
 DFT   Exchange  Energy =   -21.8765858246
 DFT Correlation Energy =    -0.6884758635
 Nuclear Repu.   Energy =     7.0796280630
 Nuclear Attr.   Energy = -1110.2207489589
 Kinetic         Energy =   460.0585341627
 SCF time:  CPU 8.49 s  wall 8.78 s
 Final Alpha MO Eigenvalues
            1           2           3           4           5           6
    1-101.0471718  -9.5749668  -7.3765784  -7.3666075  -7.3666049  -1.0862689
            7           8           9          10          11          12
    1  -0.6395615  -0.4958869  -0.4958829   0.0385788   0.1194844   0.1277976
           13          14
    1   0.1277990   0.1484123
 Analysis of SCF Wavefunction
 
 --------------------------------------------------------------
                    Orbital Energies (a.u.)
 --------------------------------------------------------------
 
 Alpha MOs
 -- Occupied --
*******  -9.575  -7.377  -7.367  -7.367  -1.086  -0.640  -0.496
 -0.496
 -- Virtual --
  0.039   0.119   0.128   0.128   0.148   0.196   0.359   0.359
  0.389   0.395   0.395   0.567   0.601   0.601   0.709   0.974
  0.974   1.078   1.122   1.241   1.241   1.262   1.262   1.267
  1.267   1.286   1.286   1.528   1.570   1.570   1.749   2.332
  2.332   2.687   2.855   3.891   3.908   3.908   4.550   4.550
  4.567   4.567   4.671   4.671   4.981   5.229   5.232   5.246
  5.246   6.018   9.634  20.706  20.706  20.957  27.246  27.320
 27.320  27.323  27.532  36.972  36.973  36.974  36.974  36.979
 36.979  36.994 215.461
 --------------------------------------------------------------
 
          Ground-State Mulliken Net Atomic Charges

     Atom                 Charge (a.u.)
  ----------------------------------------
      1 Cl                   -0.225988
      2 H                     0.225988
  ----------------------------------------
  Sum of atomic charges =     0.000000

 -----------------------------------------------------------------
                    Cartesian Multipole Moments
 -----------------------------------------------------------------
    Charge (ESU x 10^10)
                 0.0000
    Dipole Moment (Debye)
         X       0.0000      Y       0.0001      Z       1.2090
       Tot       1.2090
    Quadrupole Moments (Debye-Ang)
        XX     -13.8368     XY      -0.0001     YY     -13.8368
        XZ       0.0000     YZ       0.0000     ZZ     -10.0003
    Octapole Moments (Debye-Ang^2)
       XXX       0.0000    XXY       0.0000    XYY       0.0000
       YYY       0.0001    XXZ      -1.0237    XYZ       0.0000
       YYZ      -1.0237    XZZ      -0.0003    YZZ       0.0005
       ZZZ       0.3627
    Hexadecapole Moments (Debye-Ang^3)
      XXXX     -15.7620   XXXY      -0.0002   XXYY      -5.2540
      XYYY      -0.0002   YYYY     -15.7620   XXXZ       0.0000
      XXYZ       0.0000   XYYZ       0.0000   YYYZ       0.0000
      XXZZ      -5.6715   XYZZ      -0.0001   YYZZ      -5.6715
      XZZZ      -0.0001   YZZZ       0.0003   ZZZZ     -12.4222
 -----------------------------------------------------------------
 Total job time:  8.87s(wall), 8.58s(cpu) 
 Sun Jul  7 08:38:02 2013

        *************************************************************
        *                                                           *
        *  Thank you very much for using Q-Chem.  Have a nice day.  *
        *                                                           *
        *************************************************************


0 sent ACK to 0 
now end server 0 ... 
 
**********************************************************************
Job 3 of 3 
**********************************************************************
 
Process 0 of 1 is on cl159.stfx.acenet.ca - thread support 1
initial socket setup ...start
initial socket setup ...done 
now start server 0 ... 

cmd = /usr/bin/ssh clhead /usr/local/qchem/bin/get_hostid 778210471 > /scratch/tmp/6063436.1.medium.q/qchem19450/lic.dat
                  Welcome to Q-Chem
     A Quantum Leap Into The Future Of Chemistry

 Y. Shao, L. Fusti-Molnar, Y. Jung, J. Kussmann, C. Ochsenfeld,
 S. T. Brown, A. T. B. Gilbert, L. V. Slipchenko,S. V. Levchenko,
 D. P. O'Neill, R. A. DiStasio Jr., R. C. Lochan, T. Wang,
 G. J. O. Beran, N. A. Besley, J. M. Herbert, C. Y. Lin,
 T. Van Voorhis, S. H. Chien, A. Sodt, R. P. Steele, 
 V. A. Rassolov, P. E. Maslen, P. P. Korambath, R. D. Adamson,
 B. Austin, J. Baker, E. F. C. Byrd, H. Dachsel, R. J. Doerksen,
 A. Dreuw, B. D. Dunietz, A. D. Dutoi, T. R. Furlani,
 S. R. Gwaltney, A. Heyden, S. Hirata, C.-P. Hsu, G. Kedziora,
 R. Z. Khaliullin, P. Klunzinger, A. M. Lee, M. S. Lee, W. Liang,
 I. Lotan, N. Nair, B. Peters, E. I. Proynov, P. A. Pieniazek, 
 Y. M. Rhee, J. Ritchie, E. Rosta, C. D. Sherrill, 
 A. C. Simmonett, J. E. Subotnik, H. L. Woodcock III,
 W. Zhang, A. T. Bell, A. K. Chakraborty, D. M. Chipman,
 F. J. Keil, A. Warshel, W. J. Hehre, H. F. Schaefer III,
 J. Kong, A. I. Krylov, P. M. W. Gill, M. Head-Gordon,
 Q-Chem, Version 3.1, Q-Chem, Inc., Pittsburgh, PA (2007).

 Additional authors for Version 3.1: 
 Z. Gan, Y. Zhao, N. E. Schultz, D. Truhlar, E. Epifanovsky and M. Oana.

 Additional authors for Version 3.2: 
 R. Baer, B. R. Brooks, D. Casanova, J.-D. Chai, C.-L. Cheng, 
 C. Cramer, D. Crittenden, A. Ghysels, G. Hawkins, E. G. Hohenstein, 
 C. Kelley, W. Kurlancheek, D. Liotard, E. Livshits, P. Manohar, 
 A. Marenich, D. Neuhauser, R. Olson, M. A. Rohrdanz, K. S. Thanthiriwatte, 
 A. J. W. Thom, V. Vanovschi, C. F. Williams, Q. Wu and Z.-Q. You. 


 Intel X86 Linux Version

 Q-chem begins on Sun Jul  7 08:38:06 2013  

 Parallel job on  1  processors
Processing $rem in /usr/local/qchem/config/preferences.

theFileMan(): MAXOPENFILES=974 MAX_SUB_FILE_NUM=16
Maximum size of a physical file is 2.0 GB, maximum size of a tmp-file is 32.0 GB


--------------------------------------------------------------
User input:
--------------------------------------------------------------

$molecule
1,2
Cl         0.00000        0.00000        0.00961
H          0.00000        0.00000        1.28030
$end

$comment
positive
$end

$xc_functional
C PBE   1.00
X wPBE  1.00
$end

$rem
SYMMETRY_DECOMPOSITION	0
LRC_DFT                 true
exchange 		general
BASIS                   g3large
omega			700
mem_static              760
max_scf_cycles          200
scf_final_print         1
sym_ignore              true
$end

--------------------------------------------------------------
 Writing REM_CC_EA            2
 ----------------------------------------------------
       Standard Nuclear Orientation (Angstroms)
    I     Atom         X            Y            Z
 ----------------------------------------------------
    1      Cl      0.000000     0.000000     0.009610
    2      H       0.000000     0.000000     1.280300
 ----------------------------------------------------
 Nuclear Repulsion Energy =     7.0796280632 hartrees
 There are        9 alpha and        8 beta electrons
 Requested basis set is G3large
 There are 25 shells and 76 basis functions

Total QAlloc Memory Limit   2000 MB
Mega-Array Size       743 MB
MEM_STATIC part       760 MB

                       Distance Matrix (Angstroms)
             Cl(  1)
   H (  2)  1.270690
 
 A cutoff of  1.0D-08 yielded    325 shell pairs
 There are   3056 function pairs (  4227 Cartesian)
Evaluating contribution to one-electron hamiltonian from nuclear
 Smallest overlap matrix eigenvalue = 3.54E-03
 Multipole matrices computed through 2nd order

  Scale SEOQF with 1.000000e-01/1.000000e-01/1.000000e-01

 Standard Electronic Orientation quadrupole field applied
 Nucleus-field energy     =    -0.0000000002 hartrees
 Guess from superposition of atomic densities
 Warning:  Energy on first SCF cycle will be non-variational
 Long-range K will be added via erf
 Coulomb attenuation parameter = 0.7 bohr**(-1)
 An unrestricted Kohn-Sham SCF calculation will be
 performed using Pulay DIIS extrapolation
 Exchange:  wPBE + LR-HF      Correlation:  PBE
 Using SG-1 standard quadrature grid
 SCF converges when DIIS error is below 1.0E-05
 Requested basis set is G3large
 There are 25 shells and 76 basis functions
 A cutoff of  1.0D-08 yielded    325 shell pairs
 There are   3056 function pairs (  4227 Cartesian)
 Warning!  Inaccurate integrated density:
   Number of electrons =    17
   Numerical integral  =    17.999993743395
   Relative error      =     5.8823161376 %
 ---------------------------------------
  Cycle       Energy         DIIS Error
 ---------------------------------------
    1    -460.6694054194      3.07E-02
    2    -460.1929993110      6.48E-03
    3    -460.2399212618      2.82E-03
    4    -460.2428936873      4.63E-04
    5    -460.2435132634      1.77E-04
    6    -460.2437528874      1.05E-04
    7    -460.2438907136      5.87E-05
    8    -460.2439488374      2.14E-05
    9    -460.2439555916      4.21E-06 Convergence criterion met
 ---------------------------------------
 One-Electron    Energy =  -642.5484192484
 Total Coulomb   Energy =   203.4014528170
 Alpha Exchange  Energy =    -3.0077021488
 Beta  Exchange  Energy =    -2.7161061551
 DFT   Exchange  Energy =   -21.8057114608
 DFT Correlation Energy =    -0.6470974586
 Nuclear Repu.   Energy =     7.0796280630
 Nuclear Attr.   Energy = -1102.2401983325
 Kinetic         Energy =   459.6917790841
 <S^2> = 0.7570
 SCF time:  CPU 12.89 s  wall 12.82 s
 Final Alpha MO Eigenvalues
            1           2           3           4           5           6
    1-101.5022553 -10.0232062  -7.8336097  -7.8185882  -7.8081916  -1.5140352
            7           8           9          10          11          12
    1  -1.0228921  -0.9555307  -0.8870344  -0.1875640  -0.1113206  -0.0701040
           13          14
    1  -0.0678244  -0.0594140
 Final Beta MO Eigenvalues
            1           2           3           4           5           6
    1-101.4957604 -10.0168532  -7.8156815  -7.8149904  -7.8035884  -1.4336768
            7           8           9          10          11          12
    1  -1.0062567  -0.8688572  -0.4439384  -0.1767616  -0.1038677  -0.0686383
           13
    1  -0.0586686
 Analysis of SCF Wavefunction
 
 --------------------------------------------------------------
                    Orbital Energies (a.u.)
 --------------------------------------------------------------
 
 Alpha MOs
 -- Occupied --
******* -10.023  -7.834  -7.819  -7.808  -1.514  -1.023  -0.956
 -0.887
 -- Virtual --
 -0.188  -0.111  -0.070  -0.068  -0.059  -0.003   0.012   0.041
  0.052   0.053   0.138   0.302   0.302   0.326   0.416   0.662
  0.677   0.736   0.795   0.832   0.858   0.863   0.870   0.916
  0.916   0.930   0.931   1.203   1.233   1.257   1.400   1.911
  1.958   2.317   2.523   3.525   3.557   3.567   4.111   4.111
  4.112   4.112   4.233   4.275   4.578   4.784   4.786   4.801
  4.833   5.604   9.197  20.240  20.268  20.519  26.789  26.863
 26.866  26.882  27.088  36.520  36.522  36.522  36.526  36.528
 36.544  36.555 215.007
 
 Beta MOs
 -- Occupied --
******* -10.017  -7.816  -7.815  -7.804  -1.434  -1.006  -0.869
 -- Virtual --
 -0.444  -0.177  -0.104  -0.069  -0.059  -0.057   0.000   0.044
  0.062   0.099   0.101   0.146   0.306   0.330   0.339   0.422
  0.674   0.678   0.759   0.807   0.875   0.876   0.901   0.905
  0.935   0.936   0.958   0.959   1.211   1.253   1.259   1.413
  1.968   1.971   2.325   2.523   3.533   3.560   3.564   4.150
  4.154   4.170   4.170   4.277   4.280   4.592   4.804   4.807
  4.821   4.835   5.616   9.210  20.265  20.275  20.523  26.805
 26.878  26.881  26.885  27.095  36.526  36.528  36.528  36.530
 36.532  36.545  36.557 215.015
 --------------------------------------------------------------
 
          Ground-State Mulliken Net Atomic Charges

     Atom                 Charge (a.u.)    Spin (a.u.)
  --------------------------------------------------------
      1 Cl                    0.677232       1.019474
      2 H                     0.322768      -0.019474
  --------------------------------------------------------
  Sum of atomic charges =     1.000000
  Sum of spin   charges =     1.000000

 -----------------------------------------------------------------
                    Cartesian Multipole Moments
 -----------------------------------------------------------------
    Charge (ESU x 10^10)
                 4.8032
    Dipole Moment (Debye)
         X      -0.0001      Y       0.0000      Z       1.8880
       Tot       1.8880
    Quadrupole Moments (Debye-Ang)
        XX     -10.3833     XY      -0.8941     YY     -10.3070
        XZ       0.0000     YZ       0.0000     ZZ      -6.9201
    Octapole Moments (Debye-Ang^2)
       XXX       0.0000    XXY       0.0000    XYY       0.0000
       YYY       0.0000    XXZ      -0.7710    XYZ      -0.0535
       YYZ      -0.7665    XZZ       0.0000    YZZ      -0.0001
       ZZZ       2.2826
    Hexadecapole Moments (Debye-Ang^3)
      XXXX      -9.1364   XXXY      -0.7217   XXYY      -3.0257
      XYYY      -0.7216   YYYY      -9.0133   XXXZ       0.0000
      XXYZ       0.0000   XYYZ       0.0000   YYYZ       0.0000
      XXZZ      -3.6827   XYZZ      -0.2630   YYZZ      -3.6603
      XZZZ       0.0000   YZZZ       0.0000   ZZZZ      -5.6447
 -----------------------------------------------------------------
 Total job time:  12.91s(wall), 12.98s(cpu) 
 Sun Jul  7 08:38:19 2013

        *************************************************************
        *                                                           *
        *  Thank you very much for using Q-Chem.  Have a nice day.  *
        *                                                           *
        *************************************************************


0 sent ACK to 0 
now end server 0 ... 
