Process 0 of 1 is on cl239.stfx.acenet.ca - thread support 1
initial socket setup ...start
initial socket setup ...done 
now start server 0 ... 

cmd = /usr/bin/ssh clhead /usr/local/qchem/bin/get_hostid 1299539519 > /globalscratch/itamblyn/bnl/g297_b3lyp_neut_g03Large_worked/g2g71114/omega800/qchem14998/lic.dat
                  Welcome to Q-Chem
     A Quantum Leap Into The Future Of Chemistry

 Y. Shao, L. Fusti-Molnar, Y. Jung, J. Kussmann, C. Ochsenfeld,
 S. T. Brown, A. T. B. Gilbert, L. V. Slipchenko,S. V. Levchenko,
 D. P. O'Neill, R. A. DiStasio Jr., R. C. Lochan, T. Wang,
 G. J. O. Beran, N. A. Besley, J. M. Herbert, C. Y. Lin,
 T. Van Voorhis, S. H. Chien, A. Sodt, R. P. Steele, 
 V. A. Rassolov, P. E. Maslen, P. P. Korambath, R. D. Adamson,
 B. Austin, J. Baker, E. F. C. Byrd, H. Dachsel, R. J. Doerksen,
 A. Dreuw, B. D. Dunietz, A. D. Dutoi, T. R. Furlani,
 S. R. Gwaltney, A. Heyden, S. Hirata, C.-P. Hsu, G. Kedziora,
 R. Z. Khaliullin, P. Klunzinger, A. M. Lee, M. S. Lee, W. Liang,
 I. Lotan, N. Nair, B. Peters, E. I. Proynov, P. A. Pieniazek, 
 Y. M. Rhee, J. Ritchie, E. Rosta, C. D. Sherrill, 
 A. C. Simmonett, J. E. Subotnik, H. L. Woodcock III,
 W. Zhang, A. T. Bell, A. K. Chakraborty, D. M. Chipman,
 F. J. Keil, A. Warshel, W. J. Hehre, H. F. Schaefer III,
 J. Kong, A. I. Krylov, P. M. W. Gill, M. Head-Gordon,
 Q-Chem, Version 3.1, Q-Chem, Inc., Pittsburgh, PA (2007).

 Additional authors for Version 3.1: 
 Z. Gan, Y. Zhao, N. E. Schultz, D. Truhlar, E. Epifanovsky and M. Oana.

 Additional authors for Version 3.2: 
 R. Baer, B. R. Brooks, D. Casanova, J.-D. Chai, C.-L. Cheng, 
 C. Cramer, D. Crittenden, A. Ghysels, G. Hawkins, E. G. Hohenstein, 
 C. Kelley, W. Kurlancheek, D. Liotard, E. Livshits, P. Manohar, 
 A. Marenich, D. Neuhauser, R. Olson, M. A. Rohrdanz, K. S. Thanthiriwatte, 
 A. J. W. Thom, V. Vanovschi, C. F. Williams, Q. Wu and Z.-Q. You. 


 Intel X86 Linux Version

 Q-chem begins on Tue Apr 12 22:36:45 2011  

 Parallel job on  1  processors
Processing $rem in /usr/local/qchem/config/preferences.

theFileMan(): MAXOPENFILES=974 MAX_SUB_FILE_NUM=16
Maximum size of a physical file is 2.0 GB, maximum size of a tmp-file is 32.0 GB


--------------------------------------------------------------
User input:
--------------------------------------------------------------

$molecule
-1,2
C,0.741167814,0.8054998119,0.
S,0.,-0.8753990055,0.
C,-0.741167814,0.8054998119,0.
H,1.2584073082,1.0850965864,-0.9145221968
H,1.2584073082,1.0850965864,0.9145221968
H,-1.2584073082,1.0850965864,0.9145221968
H,-1.2584073082,1.0850965864,-0.9145221968

$end

$comment
negative
$end

$xc_functional
   X HF 1.0
   X BNL 1.0
   C LYP 1.0
$end

$rem
SYMMETRY_DECOMPOSITION	0
exchange 		general
BASIS                   g3large
omega			800
separate_jk		true
mem_static              760
max_scf_cycles          200
scf_final_print         1
sym_ignore              true
$end

--------------------------------------------------------------
 Writing REM_CC_EA            7
 ----------------------------------------------------
       Standard Nuclear Orientation (Angstroms)
    I     Atom         X            Y            Z
 ----------------------------------------------------
    1      C       0.741168     0.805500     0.000000
    2      S       0.000000    -0.875399     0.000000
    3      C      -0.741168     0.805500     0.000000
    4      H       1.258407     1.085097    -0.914522
    5      H       1.258407     1.085097     0.914522
    6      H      -1.258407     1.085097     0.914522
    7      H      -1.258407     1.085097    -0.914522
 ----------------------------------------------------
 Nuclear Repulsion Energy =   100.4416739056 hartrees
 There are       17 alpha and       16 beta electrons
 Requested basis set is G3large
 There are 63 shells and 190 basis functions

Total QAlloc Memory Limit   2000 MB
Mega-Array Size       743 MB
MEM_STATIC part       760 MB

                       Distance Matrix (Angstroms)
             C (  1)   S (  2)   C (  3)   H (  4)   H (  5)   H (  6)
   S (  2)  1.837049
   C (  3)  1.482336  1.837049
   H (  4)  1.087227  2.502695  2.216490
   H (  5)  1.087227  2.502695  2.216490  1.829044
   H (  6)  2.216490  2.502695  1.087227  3.111231  2.516815
   H (  7)  2.216490  2.502695  1.087227  2.516815  3.111231  1.829044

 
 A cutoff of  1.0D-08 yielded   1912 shell pairs
 There are  17613 function pairs ( 22653 Cartesian)
Evaluating contribution to one-electron hamiltonian from nuclear
 Smallest overlap matrix eigenvalue = 7.97E-05

 Q-Chem warning in module mkSTV.C, line 194:

 Overlap eigenvalue is smaller than square root of threshold

 Multipole matrices computed through 2nd order

  Scale SEOQF with 1.000000e-01/1.000000e-01/1.000000e-01

 Standard Electronic Orientation quadrupole field applied
 Nucleus-field energy     =     0.0000000019 hartrees
 Guess from superposition of atomic densities
 Warning:  Energy on first SCF cycle will be non-variational
 An unrestricted hybrid HF-DFT SCF calculation will be
 performed using Pulay DIIS extrapolation
 Exchange:     1.0000 Hartree-Fock + 1.0000 BNL
 Correlation:  1.0000 LYP
 Using SG-1 standard quadrature grid
 SCF converges when DIIS error is below 1.0E-05
 Warning!  Inaccurate integrated density:
   Number of electrons =    33
   Numerical integral  =    32.000240494725
   Relative error      =    -3.0295742584 %
 ---------------------------------------
  Cycle       Energy         DIIS Error
 ---------------------------------------
    1    -475.3498616113      3.29E-02
    2    -474.3730839723      2.97E-03
    3    -474.4371890381      2.04E-03
    4    -474.4576867725      4.58E-04
    5    -474.4631467307      2.76E-04
    6    -474.4667999091      2.10E-04
    7    -474.4695783670      1.89E-04
    8    -474.4727259666      1.44E-04
    9    -474.4771192168      6.64E-05
   10    -474.4776363574      1.00E-04
   11    -474.4787499928      6.08E-05
   12    -474.4794674072      5.64E-05
   13    -474.4803422210      7.02E-05
   14    -474.4810077914      6.02E-05
   15    -474.4814467283      2.31E-05
   16    -474.4822584315      5.67E-05
   17    -474.4822695773      5.14E-05
   18    -474.4824159570      3.91E-05
   19    -474.4824611548      3.61E-05
   20    -474.4824887358      2.87E-05
   21    -474.4825634574      1.53E-05
   22    -474.4825884907      1.18E-05
   23    -474.4826017966      5.22E-06 Convergence criterion met
 ---------------------------------------
 One-Electron    Energy =  -858.4025869341
 Total Coulomb   Energy =   319.1869432451
 Alpha Exchange  Energy =    -5.5663972128
 Beta  Exchange  Energy =    -5.4879334947
 DFT   Exchange  Energy =   -23.4784209566
 DFT Correlation Energy =    -1.1758803510
 Nuclear Repu.   Energy =   100.4416739075
 Nuclear Attr.   Energy = -1331.3526397207
 Kinetic         Energy =   472.9500527866
 <S^2> = 0.7502
 SCF time:  CPU 337.30 s  wall 436.19 s
 Final Alpha MO Eigenvalues
            1           2           3           4           5           6
    1 -87.9772549 -10.1069960 -10.1061788  -7.9253080  -5.9482476  -5.9454727
            7           8           9          10          11          12
    1  -5.9367709  -0.9738449  -0.6938284  -0.6933321  -0.5364503  -0.4859581
           13          14          15          16          17          18
    1  -0.4080302  -0.3314101  -0.3137423  -0.2375738   0.0361637   0.1424654
           19          20          21          22
    1   0.1451624   0.1706886   0.1862024   0.2088149
 Final Beta MO Eigenvalues
            1           2           3           4           5           6
    1 -87.9771923 -10.1063425 -10.1054686  -7.9252410  -5.9480714  -5.9454412
            7           8           9          10          11          12
    1  -5.9367262  -0.9728718  -0.6916769  -0.6901123  -0.5357958  -0.4833735
           13          14          15          16          17          18
    1  -0.4076560  -0.3298107  -0.3135129  -0.2372808   0.1425408   0.1448847
           19          20          21
    1   0.1543979   0.1699469   0.1763069
 Analysis of SCF Wavefunction
 
 --------------------------------------------------------------
                    Orbital Energies (a.u.)
 --------------------------------------------------------------
 
 Alpha MOs
 -- Occupied --
-87.977 -10.107 -10.106  -7.925  -5.948  -5.945  -5.937  -0.974
 -0.694  -0.693  -0.536  -0.486  -0.408  -0.331  -0.314  -0.238
  0.036
 -- Virtual --
  0.142   0.145   0.171   0.186   0.209   0.234   0.236   0.242
  0.248   0.279   0.283   0.306   0.311   0.314   0.316   0.328
  0.353   0.386   0.421   0.442   0.468   0.508   0.536   0.552
  0.570   0.581   0.591   0.636   0.644   0.676   0.706   0.719
  0.804   0.826   0.826   0.848   0.850   0.851   0.879   0.895
  0.940   1.008   1.064   1.066   1.144   1.153   1.158   1.186
  1.218   1.260   1.264   1.294   1.294   1.326   1.338   1.371
  1.414   1.470   1.492   1.504   1.549   1.551   1.580   1.605
  1.608   1.641   1.656   1.686   1.728   1.743   1.762   1.763
  1.805   1.807   1.869   1.902   1.925   2.227   2.416   2.495
  2.835   2.847   3.018   3.020   3.138   3.148   3.181   3.240
  3.269   3.336   3.393   3.416   3.430   3.473   3.489   3.500
  3.520   3.619   3.681   3.721   3.726   3.752   3.777   3.880
  3.887   3.906   3.926   3.989   3.993   3.996   4.010   4.090
  4.163   4.193   4.326   4.347   4.376   4.457   4.558   4.560
  4.571   4.591   4.678   4.681   4.793   4.882   4.889   4.994
  5.042   5.184   5.290   5.463   5.516   5.612   5.700   5.929
  5.989   6.034   8.800  17.487  17.664  17.832  23.841  23.971
 24.004  24.040  24.101  24.544  24.761  27.858  28.136  28.370
 28.477  28.536  28.840  31.316  31.316  31.321  31.327  31.333
 31.339  31.359  41.215  41.280  41.300  41.402  41.525  41.538
 41.546  41.549  41.625  41.645 189.960
 
 Beta MOs
 -- Occupied --
-87.977 -10.106 -10.105  -7.925  -5.948  -5.945  -5.937  -0.973
 -0.692  -0.690  -0.536  -0.483  -0.408  -0.330  -0.314  -0.237
 -- Virtual --
  0.143   0.145   0.154   0.170   0.176   0.204   0.227   0.232
  0.234   0.241   0.265   0.276   0.297   0.300   0.304   0.314
  0.319   0.352   0.379   0.414   0.433   0.461   0.504   0.533
  0.548   0.566   0.576   0.588   0.633   0.640   0.674   0.701
  0.713   0.797   0.821   0.823   0.841   0.846   0.846   0.874
  0.894   0.939   1.006   1.063   1.065   1.143   1.152   1.155
  1.185   1.217   1.258   1.263   1.292   1.294   1.324   1.336
  1.370   1.412   1.468   1.491   1.502   1.549   1.550   1.578
  1.603   1.606   1.639   1.655   1.683   1.726   1.742   1.758
  1.761   1.804   1.805   1.867   1.900   1.924   2.226   2.415
  2.495   2.835   2.846   3.017   3.020   3.138   3.147   3.180
  3.240   3.269   3.336   3.393   3.416   3.430   3.474   3.489
  3.499   3.521   3.619   3.681   3.720   3.726   3.753   3.777
  3.880   3.887   3.906   3.926   3.989   3.994   3.996   4.010
  4.090   4.163   4.193   4.327   4.347   4.376   4.457   4.558
  4.560   4.571   4.591   4.678   4.682   4.793   4.882   4.889
  4.994   5.042   5.184   5.290   5.463   5.516   5.612   5.700
  5.929   5.990   6.034   8.800  17.487  17.664  17.833  23.841
 23.971  24.004  24.040  24.101  24.545  24.762  27.858  28.137
 28.371  28.478  28.537  28.841  31.316  31.316  31.321  31.327
 31.333  31.339  31.359  41.216  41.280  41.300  41.403  41.525
 41.539  41.546  41.549  41.626  41.646 189.960
 --------------------------------------------------------------
 
          Ground-State Mulliken Net Atomic Charges

     Atom                 Charge (a.u.)    Spin (a.u.)
  --------------------------------------------------------
      1 C                     0.965485      -0.997455
      2 S                    -0.443830       0.088318
      3 C                     1.105131      -1.133466
      4 H                    -0.631828       0.735071
      5 H                    -0.630884       0.734106
      6 H                    -0.681687       0.786346
      7 H                    -0.682387       0.787080
  --------------------------------------------------------
  Sum of atomic charges =    -1.000000
  Sum of spin   charges =     1.000000

 -----------------------------------------------------------------
                    Cartesian Multipole Moments
 -----------------------------------------------------------------
    Charge (ESU x 10^10)
                -4.8032
    Dipole Moment (Debye)
         X       0.2888      Y      -5.8520      Z       0.0051
       Tot       5.8591
    Quadrupole Moments (Debye-Ang)
        XX     -49.0663     XY       0.4766     YY     -56.4509
        XZ       0.0005     YZ       0.0082     ZZ     -57.0656
    Octapole Moments (Debye-Ang^2)
       XXX       3.6458    XXY     -38.2281    XYY       1.5804
       YYY     -96.3844    XXZ       0.0255    XYZ       0.0009
       YYZ       0.0263    XZZ       1.5272    YZZ     -40.4501
       ZZZ       0.0603
    Hexadecapole Moments (Debye-Ang^3)
      XXXX    -404.2087   XXXY       5.3016   XXYY    -170.1378
      XYYY       4.7592   YYYY    -549.6188   XXXZ       0.0062
      XXYZ       0.0354   XYYZ       0.0029   YYYZ       0.0784
      XXZZ    -144.4459   XYZZ       2.0776   YYZZ    -178.4344
      XZZZ       0.0061   YZZZ       0.0820   ZZZZ    -424.4215
 -----------------------------------------------------------------
 Total job time:  439.27s(wall), 337.55s(cpu) 
 Tue Apr 12 22:44:05 2011

        *************************************************************
        *                                                           *
        *  Thank you very much for using Q-Chem.  Have a nice day.  *
        *                                                           *
        *************************************************************


0 sent ACK to 0 
now end server 0 ... 
 
**********************************************************************
Job 2 of 3 
**********************************************************************
 
Process 0 of 1 is on cl239.stfx.acenet.ca - thread support 1
initial socket setup ...start
initial socket setup ...done 
now start server 0 ... 

cmd = /usr/bin/ssh clhead /usr/local/qchem/bin/get_hostid 782089496 > /globalscratch/itamblyn/bnl/g297_b3lyp_neut_g03Large_worked/g2g71114/omega800/qchem14998/lic.dat
                  Welcome to Q-Chem
     A Quantum Leap Into The Future Of Chemistry

 Y. Shao, L. Fusti-Molnar, Y. Jung, J. Kussmann, C. Ochsenfeld,
 S. T. Brown, A. T. B. Gilbert, L. V. Slipchenko,S. V. Levchenko,
 D. P. O'Neill, R. A. DiStasio Jr., R. C. Lochan, T. Wang,
 G. J. O. Beran, N. A. Besley, J. M. Herbert, C. Y. Lin,
 T. Van Voorhis, S. H. Chien, A. Sodt, R. P. Steele, 
 V. A. Rassolov, P. E. Maslen, P. P. Korambath, R. D. Adamson,
 B. Austin, J. Baker, E. F. C. Byrd, H. Dachsel, R. J. Doerksen,
 A. Dreuw, B. D. Dunietz, A. D. Dutoi, T. R. Furlani,
 S. R. Gwaltney, A. Heyden, S. Hirata, C.-P. Hsu, G. Kedziora,
 R. Z. Khaliullin, P. Klunzinger, A. M. Lee, M. S. Lee, W. Liang,
 I. Lotan, N. Nair, B. Peters, E. I. Proynov, P. A. Pieniazek, 
 Y. M. Rhee, J. Ritchie, E. Rosta, C. D. Sherrill, 
 A. C. Simmonett, J. E. Subotnik, H. L. Woodcock III,
 W. Zhang, A. T. Bell, A. K. Chakraborty, D. M. Chipman,
 F. J. Keil, A. Warshel, W. J. Hehre, H. F. Schaefer III,
 J. Kong, A. I. Krylov, P. M. W. Gill, M. Head-Gordon,
 Q-Chem, Version 3.1, Q-Chem, Inc., Pittsburgh, PA (2007).

 Additional authors for Version 3.1: 
 Z. Gan, Y. Zhao, N. E. Schultz, D. Truhlar, E. Epifanovsky and M. Oana.

 Additional authors for Version 3.2: 
 R. Baer, B. R. Brooks, D. Casanova, J.-D. Chai, C.-L. Cheng, 
 C. Cramer, D. Crittenden, A. Ghysels, G. Hawkins, E. G. Hohenstein, 
 C. Kelley, W. Kurlancheek, D. Liotard, E. Livshits, P. Manohar, 
 A. Marenich, D. Neuhauser, R. Olson, M. A. Rohrdanz, K. S. Thanthiriwatte, 
 A. J. W. Thom, V. Vanovschi, C. F. Williams, Q. Wu and Z.-Q. You. 


 Intel X86 Linux Version

 Q-chem begins on Tue Apr 12 22:44:09 2011  

 Parallel job on  1  processors
Processing $rem in /usr/local/qchem/config/preferences.

theFileMan(): MAXOPENFILES=974 MAX_SUB_FILE_NUM=16
Maximum size of a physical file is 2.0 GB, maximum size of a tmp-file is 32.0 GB


--------------------------------------------------------------
User input:
--------------------------------------------------------------

$molecule
0,1
C,0.741167814,0.8054998119,0.
S,0.,-0.8753990055,0.
C,-0.741167814,0.8054998119,0.
H,1.2584073082,1.0850965864,-0.9145221968
H,1.2584073082,1.0850965864,0.9145221968
H,-1.2584073082,1.0850965864,0.9145221968
H,-1.2584073082,1.0850965864,-0.9145221968

$end

$comment
neutral
$end

$xc_functional
   X HF 1.0
   X BNL 1.0
   C LYP 1.0
$end

$rem
SYMMETRY_DECOMPOSITION	0
exchange 		general
BASIS                   g3large
omega			800
separate_jk		true
mem_static              760
max_scf_cycles          200
scf_final_print         1
sym_ignore              true
$end

--------------------------------------------------------------
 Writing REM_CC_EA            7
 ----------------------------------------------------
       Standard Nuclear Orientation (Angstroms)
    I     Atom         X            Y            Z
 ----------------------------------------------------
    1      C       0.741168     0.805500     0.000000
    2      S       0.000000    -0.875399     0.000000
    3      C      -0.741168     0.805500     0.000000
    4      H       1.258407     1.085097    -0.914522
    5      H       1.258407     1.085097     0.914522
    6      H      -1.258407     1.085097     0.914522
    7      H      -1.258407     1.085097    -0.914522
 ----------------------------------------------------
 Nuclear Repulsion Energy =   100.4416739056 hartrees
 There are       16 alpha and       16 beta electrons
 Requested basis set is G3large
 There are 63 shells and 190 basis functions

Total QAlloc Memory Limit   2000 MB
Mega-Array Size       743 MB
MEM_STATIC part       760 MB

                       Distance Matrix (Angstroms)
             C (  1)   S (  2)   C (  3)   H (  4)   H (  5)   H (  6)
   S (  2)  1.837049
   C (  3)  1.482336  1.837049
   H (  4)  1.087227  2.502695  2.216490
   H (  5)  1.087227  2.502695  2.216490  1.829044
   H (  6)  2.216490  2.502695  1.087227  3.111231  2.516815
   H (  7)  2.216490  2.502695  1.087227  2.516815  3.111231  1.829044

 
 A cutoff of  1.0D-08 yielded   1912 shell pairs
 There are  17613 function pairs ( 22653 Cartesian)
Evaluating contribution to one-electron hamiltonian from nuclear
 Smallest overlap matrix eigenvalue = 7.97E-05

 Q-Chem warning in module mkSTV.C, line 194:

 Overlap eigenvalue is smaller than square root of threshold

 Multipole matrices computed through 2nd order

  Scale SEOQF with 1.000000e-01/1.000000e-01/1.000000e-01

 Standard Electronic Orientation quadrupole field applied
 Nucleus-field energy     =     0.0000000019 hartrees
 Guess from superposition of atomic densities
 Warning:  Energy on first SCF cycle will be non-variational
 A restricted hybrid HF-DFT SCF calculation will be
 performed using Pulay DIIS extrapolation
 Exchange:     1.0000 Hartree-Fock + 1.0000 BNL
 Correlation:  1.0000 LYP
 Using SG-1 standard quadrature grid
 SCF converges when DIIS error is below 1.0E-05
 ---------------------------------------
  Cycle       Energy         DIIS Error
 ---------------------------------------
    1    -475.3498616113      3.29E-02
    2    -474.4666414135      2.52E-03
    3    -474.5102387059      1.21E-03
    4    -474.5178934643      5.43E-04
    5    -474.5201999327      1.47E-04
    6    -474.5205057885      4.88E-05
    7    -474.5205380186      2.15E-05
    8    -474.5205418214      5.80E-06 Convergence criterion met
 ---------------------------------------
 One-Electron    Energy =  -854.0125621904
 Total Coulomb   Energy =   314.6806458397
 Alpha Exchange  Energy =    -5.4927149891
 Beta  Exchange  Energy =    -5.4927149891
 DFT   Exchange  Energy =   -23.4745592375
 DFT Correlation Energy =    -1.1703101623
 Nuclear Repu.   Energy =   100.4416739075
 Nuclear Attr.   Energy = -1326.8816136202
 Kinetic         Energy =   472.8690514297
 SCF time:  CPU 93.15 s  wall 121.72 s
 Final Alpha MO Eigenvalues
            1           2           3           4           5           6
    1 -88.1133160 -10.2486483 -10.2480014  -8.0608349  -6.0840269  -6.0812968
            7           8           9          10          11          12
    1  -6.0718982  -1.1121597  -0.8340154  -0.8303590  -0.6788850  -0.6234854
           13          14          15          16          17          18
    1  -0.5516215  -0.4682760  -0.4500960  -0.3712339   0.0364030   0.0457225
           19          20          21
    1   0.0528629   0.0697986   0.0817063
 Analysis of SCF Wavefunction
 
 --------------------------------------------------------------
                    Orbital Energies (a.u.)
 --------------------------------------------------------------
 
 Alpha MOs
 -- Occupied --
-88.113 -10.249 -10.248  -8.061  -6.084  -6.081  -6.072  -1.112
 -0.834  -0.830  -0.679  -0.623  -0.552  -0.468  -0.450  -0.371
 -- Virtual --
  0.036   0.046   0.053   0.070   0.082   0.098   0.117   0.123
  0.124   0.127   0.160   0.166   0.187   0.188   0.193   0.196
  0.203   0.226   0.249   0.287   0.304   0.333   0.375   0.404
  0.421   0.445   0.453   0.464   0.507   0.511   0.542   0.569
  0.585   0.663   0.684   0.691   0.706   0.709   0.712   0.739
  0.758   0.807   0.869   0.918   0.928   1.009   1.018   1.019
  1.051   1.080   1.119   1.127   1.161   1.161   1.191   1.196
  1.237   1.273   1.329   1.356   1.365   1.414   1.414   1.444
  1.467   1.468   1.503   1.522   1.543   1.586   1.604   1.619
  1.622   1.666   1.667   1.728   1.760   1.782   2.094   2.281
  2.360   2.695   2.704   2.876   2.880   2.996   3.006   3.039
  3.099   3.128   3.196   3.252   3.275   3.293   3.334   3.346
  3.358   3.379   3.476   3.539   3.578   3.585   3.611   3.635
  3.746   3.752   3.766   3.785   3.853   3.854   3.858   3.874
  3.953   4.021   4.051   4.186   4.209   4.233   4.315   4.414
  4.419   4.429   4.447   4.535   4.540   4.651   4.739   4.747
  4.859   4.906   5.042   5.152   5.321   5.375   5.475   5.562
  5.786   5.846   5.891   8.666  17.352  17.529  17.697  23.705
 23.836  23.869  23.904  23.965  24.402  24.619  27.717  27.995
 28.229  28.335  28.394  28.699  31.180  31.181  31.185  31.192
 31.197  31.204  31.223  41.074  41.138  41.158  41.261  41.384
 41.397  41.404  41.407  41.484  41.504 189.824
 --------------------------------------------------------------
 
          Ground-State Mulliken Net Atomic Charges

     Atom                 Charge (a.u.)
  ----------------------------------------
      1 C                    -0.073829
      2 S                    -0.273385
      3 C                    -0.073710
      4 H                     0.105218
      5 H                     0.105200
      6 H                     0.105268
      7 H                     0.105238
  ----------------------------------------
  Sum of atomic charges =     0.000000

 -----------------------------------------------------------------
                    Cartesian Multipole Moments
 -----------------------------------------------------------------
    Charge (ESU x 10^10)
                 0.0000
    Dipole Moment (Debye)
         X      -0.0010      Y       2.1012      Z       0.0000
       Tot       2.1012
    Quadrupole Moments (Debye-Ang)
        XX     -24.3551     XY      -0.0008     YY     -26.2522
        XZ       0.0001     YZ       0.0000     ZZ     -26.2184
    Octapole Moments (Debye-Ang^2)
       XXX      -0.0013    XXY       2.2420    XYY      -0.0029
       YYY      -1.7146    XXZ       0.0001    XYZ      -0.0006
       YYZ       0.0004    XZZ      -0.0005    YZZ       4.4046
       ZZZ       0.0000
    Hexadecapole Moments (Debye-Ang^3)
      XXXX     -90.1604   XXXY      -0.0012   XXYY     -37.4560
      XYYY      -0.0016   YYYY    -152.2803   XXXZ      -0.0001
      XXYZ       0.0000   XYYZ       0.0003   YYYZ      -0.0003
      XXZZ     -19.4379   XYZZ      -0.0016   YYZZ     -33.6782
      XZZZ       0.0001   YZZZ       0.0001   ZZZZ     -46.7207
 -----------------------------------------------------------------
 Total job time:  126.53s(wall), 93.39s(cpu) 
 Tue Apr 12 22:46:15 2011

        *************************************************************
        *                                                           *
        *  Thank you very much for using Q-Chem.  Have a nice day.  *
        *                                                           *
        *************************************************************


0 sent ACK to 0 
now end server 0 ... 
 
**********************************************************************
Job 3 of 3 
**********************************************************************
 
Process 0 of 1 is on cl239.stfx.acenet.ca - thread support 1
initial socket setup ...start
initial socket setup ...done 
now start server 0 ... 

cmd = /usr/bin/ssh clhead /usr/local/qchem/bin/get_hostid 2048426323 > /globalscratch/itamblyn/bnl/g297_b3lyp_neut_g03Large_worked/g2g71114/omega800/qchem14998/lic.dat
                  Welcome to Q-Chem
     A Quantum Leap Into The Future Of Chemistry

 Y. Shao, L. Fusti-Molnar, Y. Jung, J. Kussmann, C. Ochsenfeld,
 S. T. Brown, A. T. B. Gilbert, L. V. Slipchenko,S. V. Levchenko,
 D. P. O'Neill, R. A. DiStasio Jr., R. C. Lochan, T. Wang,
 G. J. O. Beran, N. A. Besley, J. M. Herbert, C. Y. Lin,
 T. Van Voorhis, S. H. Chien, A. Sodt, R. P. Steele, 
 V. A. Rassolov, P. E. Maslen, P. P. Korambath, R. D. Adamson,
 B. Austin, J. Baker, E. F. C. Byrd, H. Dachsel, R. J. Doerksen,
 A. Dreuw, B. D. Dunietz, A. D. Dutoi, T. R. Furlani,
 S. R. Gwaltney, A. Heyden, S. Hirata, C.-P. Hsu, G. Kedziora,
 R. Z. Khaliullin, P. Klunzinger, A. M. Lee, M. S. Lee, W. Liang,
 I. Lotan, N. Nair, B. Peters, E. I. Proynov, P. A. Pieniazek, 
 Y. M. Rhee, J. Ritchie, E. Rosta, C. D. Sherrill, 
 A. C. Simmonett, J. E. Subotnik, H. L. Woodcock III,
 W. Zhang, A. T. Bell, A. K. Chakraborty, D. M. Chipman,
 F. J. Keil, A. Warshel, W. J. Hehre, H. F. Schaefer III,
 J. Kong, A. I. Krylov, P. M. W. Gill, M. Head-Gordon,
 Q-Chem, Version 3.1, Q-Chem, Inc., Pittsburgh, PA (2007).

 Additional authors for Version 3.1: 
 Z. Gan, Y. Zhao, N. E. Schultz, D. Truhlar, E. Epifanovsky and M. Oana.

 Additional authors for Version 3.2: 
 R. Baer, B. R. Brooks, D. Casanova, J.-D. Chai, C.-L. Cheng, 
 C. Cramer, D. Crittenden, A. Ghysels, G. Hawkins, E. G. Hohenstein, 
 C. Kelley, W. Kurlancheek, D. Liotard, E. Livshits, P. Manohar, 
 A. Marenich, D. Neuhauser, R. Olson, M. A. Rohrdanz, K. S. Thanthiriwatte, 
 A. J. W. Thom, V. Vanovschi, C. F. Williams, Q. Wu and Z.-Q. You. 


 Intel X86 Linux Version

 Q-chem begins on Tue Apr 12 22:46:20 2011  

 Parallel job on  1  processors
Processing $rem in /usr/local/qchem/config/preferences.

theFileMan(): MAXOPENFILES=974 MAX_SUB_FILE_NUM=16
Maximum size of a physical file is 2.0 GB, maximum size of a tmp-file is 32.0 GB


--------------------------------------------------------------
User input:
--------------------------------------------------------------

$molecule
1,2
C,0.741167814,0.8054998119,0.
S,0.,-0.8753990055,0.
C,-0.741167814,0.8054998119,0.
H,1.2584073082,1.0850965864,-0.9145221968
H,1.2584073082,1.0850965864,0.9145221968
H,-1.2584073082,1.0850965864,0.9145221968
H,-1.2584073082,1.0850965864,-0.9145221968

$end

$comment
positive
$end

$xc_functional
   X HF 1.0
   X BNL 1.0
   C LYP 1.0
$end

$rem
SYMMETRY_DECOMPOSITION	0
exchange 		general
BASIS                   g3large
omega			800
separate_jk		true
mem_static              760
max_scf_cycles          200
scf_final_print         1
sym_ignore              true
$end

--------------------------------------------------------------
 Writing REM_CC_EA            7
 ----------------------------------------------------
       Standard Nuclear Orientation (Angstroms)
    I     Atom         X            Y            Z
 ----------------------------------------------------
    1      C       0.741168     0.805500     0.000000
    2      S       0.000000    -0.875399     0.000000
    3      C      -0.741168     0.805500     0.000000
    4      H       1.258407     1.085097    -0.914522
    5      H       1.258407     1.085097     0.914522
    6      H      -1.258407     1.085097     0.914522
    7      H      -1.258407     1.085097    -0.914522
 ----------------------------------------------------
 Nuclear Repulsion Energy =   100.4416739056 hartrees
 There are       16 alpha and       15 beta electrons
 Requested basis set is G3large
 There are 63 shells and 190 basis functions

Total QAlloc Memory Limit   2000 MB
Mega-Array Size       743 MB
MEM_STATIC part       760 MB

                       Distance Matrix (Angstroms)
             C (  1)   S (  2)   C (  3)   H (  4)   H (  5)   H (  6)
   S (  2)  1.837049
   C (  3)  1.482336  1.837049
   H (  4)  1.087227  2.502695  2.216490
   H (  5)  1.087227  2.502695  2.216490  1.829044
   H (  6)  2.216490  2.502695  1.087227  3.111231  2.516815
   H (  7)  2.216490  2.502695  1.087227  2.516815  3.111231  1.829044

 
 A cutoff of  1.0D-08 yielded   1912 shell pairs
 There are  17613 function pairs ( 22653 Cartesian)
Evaluating contribution to one-electron hamiltonian from nuclear
 Smallest overlap matrix eigenvalue = 7.97E-05

 Q-Chem warning in module mkSTV.C, line 194:

 Overlap eigenvalue is smaller than square root of threshold

 Multipole matrices computed through 2nd order

  Scale SEOQF with 1.000000e-01/1.000000e-01/1.000000e-01

 Standard Electronic Orientation quadrupole field applied
 Nucleus-field energy     =     0.0000000019 hartrees
 Guess from superposition of atomic densities
 Warning:  Energy on first SCF cycle will be non-variational
 An unrestricted hybrid HF-DFT SCF calculation will be
 performed using Pulay DIIS extrapolation
 Exchange:     1.0000 Hartree-Fock + 1.0000 BNL
 Correlation:  1.0000 LYP
 Using SG-1 standard quadrature grid
 SCF converges when DIIS error is below 1.0E-05
 Warning!  Inaccurate integrated density:
   Number of electrons =    31
   Numerical integral  =    32.000240494725
   Relative error      =     3.2265822410 %
 ---------------------------------------
  Cycle       Energy         DIIS Error
 ---------------------------------------
    1    -475.3498616113      3.29E-02
    2    -474.0996683661      3.29E-03
    3    -474.1752105874      1.55E-03
    4    -474.1868075002      4.37E-04
    5    -474.1896659091      1.39E-04
    6    -474.1900186163      5.80E-05
    7    -474.1900660636      1.91E-05
    8    -474.1900757892      6.06E-06 Convergence criterion met
 ---------------------------------------
 One-Electron    Energy =  -844.8751174417
 Total Coulomb   Energy =   305.5789584449
 Alpha Exchange  Energy =    -5.5376963793
 Beta  Exchange  Energy =    -5.2348200192
 DFT   Exchange  Energy =   -23.4287258889
 DFT Correlation Energy =    -1.1343484124
 Nuclear Repu.   Energy =   100.4416739075
 Nuclear Attr.   Energy = -1317.4687637315
 Kinetic         Energy =   472.5936462897
 <S^2> = 0.7589
 SCF time:  CPU 113.17 s  wall 146.35 s
 Final Alpha MO Eigenvalues
            1           2           3           4           5           6
    1 -88.4644789 -10.4948742 -10.4942118  -8.4073098  -6.4335805  -6.4253977
            7           8           9          10          11          12
    1  -6.4218885  -1.3966108  -1.1258420  -1.0738021  -0.9315611  -0.8807257
           13          14          15          16          17          18
    1  -0.7874718  -0.7368778  -0.7332493  -0.7220549  -0.1462816  -0.1203603
           19          20          21
    1  -0.1056920  -0.0872606  -0.0768597
 Final Beta MO Eigenvalues
            1           2           3           4           5           6
    1 -88.4581332 -10.4952331 -10.4945776  -8.4006218  -6.4211473  -6.4173271
            7           8           9          10          11          12
    1  -6.4171941  -1.3734492  -1.0771795  -1.0719868  -0.9101880  -0.8715718
           13          14          15          16          17          18
    1  -0.7801620  -0.7283003  -0.7241107  -0.2960982  -0.1449379  -0.1117726
           19          20
    1  -0.1046821  -0.0867997
 Analysis of SCF Wavefunction
 
 --------------------------------------------------------------
                    Orbital Energies (a.u.)
 --------------------------------------------------------------
 
 Alpha MOs
 -- Occupied --
-88.464 -10.495 -10.494  -8.407  -6.434  -6.425  -6.422  -1.397
 -1.126  -1.074  -0.932  -0.881  -0.787  -0.737  -0.733  -0.722
 -- Virtual --
 -0.146  -0.120  -0.106  -0.087  -0.077  -0.051  -0.037  -0.029
 -0.028  -0.025  -0.024   0.021   0.021   0.031   0.033   0.034
  0.043   0.043   0.055   0.083   0.112   0.148   0.159   0.177
  0.189   0.220   0.230   0.246   0.280   0.290   0.333   0.356
  0.386   0.455   0.463   0.472   0.501   0.504   0.504   0.527
  0.536   0.569   0.625   0.681   0.708   0.747   0.756   0.774
  0.790   0.813   0.873   0.880   0.882   0.913   0.922   0.962
  0.972   1.047   1.094   1.105   1.133   1.140   1.156   1.180
  1.208   1.240   1.271   1.282   1.327   1.356   1.359   1.384
  1.394   1.423   1.436   1.499   1.537   1.549   1.772   2.005
  2.076   2.451   2.467   2.633   2.646   2.755   2.764   2.803
  2.852   2.876   2.942   2.998   3.024   3.027   3.063   3.106
  3.110   3.136   3.233   3.297   3.326   3.343   3.375   3.380
  3.414   3.416   3.503   3.517   3.526   3.578   3.579   3.593
  3.649   3.780   3.814   3.925   3.936   3.996   4.068   4.168
  4.174   4.179   4.218   4.291   4.297   4.401   4.491   4.501
  4.532   4.582   4.801   4.847   5.079   5.103   5.171   5.274
  5.550   5.611   5.654   8.329  16.991  17.191  17.358  23.356
 23.484  23.516  23.561  23.629  24.155  24.373  27.469  27.746
 27.981  28.090  28.149  28.453  30.831  30.832  30.843  30.847
 30.852  30.856  30.886  40.827  40.891  40.912  41.015  41.137
 41.150  41.157  41.160  41.238  41.258 189.474
 
 Beta MOs
 -- Occupied --
-88.458 -10.495 -10.495  -8.401  -6.421  -6.417  -6.417  -1.373
 -1.077  -1.072  -0.910  -0.872  -0.780  -0.728  -0.724
 -- Virtual --
 -0.296  -0.145  -0.112  -0.105  -0.087  -0.077  -0.048  -0.038
 -0.029  -0.028  -0.021  -0.020   0.020   0.029   0.033   0.033
  0.034   0.043   0.055   0.058   0.093   0.121   0.148   0.177
  0.181   0.205   0.232   0.240   0.247   0.292   0.300   0.337
  0.363   0.387   0.456   0.464   0.473   0.502   0.504   0.506
  0.531   0.536   0.572   0.631   0.684   0.709   0.755   0.765
  0.791   0.792   0.830   0.886   0.889   0.894   0.916   0.933
  0.971   0.975   1.050   1.098   1.110   1.135   1.150   1.162
  1.190   1.218   1.240   1.271   1.284   1.329   1.358   1.360
  1.386   1.394   1.425   1.436   1.501   1.538   1.550   1.803
  2.010   2.081   2.452   2.468   2.633   2.648   2.756   2.764
  2.804   2.852   2.879   2.944   3.000   3.027   3.027   3.071
  3.108   3.113   3.136   3.237   3.297   3.329   3.344   3.374
  3.390   3.438   3.445   3.507   3.529   3.552   3.583   3.589
  3.596   3.664   3.782   3.815   3.928   3.938   3.998   4.070
  4.170   4.180   4.181   4.221   4.293   4.299   4.405   4.496
  4.502   4.543   4.595   4.801   4.858   5.081   5.110   5.175
  5.280   5.552   5.613   5.655   8.340  17.012  17.195  17.362
 23.367  23.496  23.528  23.569  23.633  24.154  24.373  27.469
 27.746  27.981  28.090  28.149  28.453  30.837  30.837  30.848
 30.850  30.857  30.860  30.889  40.826  40.890  40.912  41.014
 41.136  41.149  41.156  41.160  41.238  41.258 189.481
 --------------------------------------------------------------
 
          Ground-State Mulliken Net Atomic Charges

     Atom                 Charge (a.u.)    Spin (a.u.)
  --------------------------------------------------------
      1 C                    -0.033605      -0.029592
      2 S                     0.372260       0.995181
      3 C                    -0.033501      -0.029316
      4 H                     0.173619       0.015648
      5 H                     0.173809       0.016242
      6 H                     0.173627       0.015629
      7 H                     0.173792       0.016209
  --------------------------------------------------------
  Sum of atomic charges =     1.000000
  Sum of spin   charges =     1.000000

 -----------------------------------------------------------------
                    Cartesian Multipole Moments
 -----------------------------------------------------------------
    Charge (ESU x 10^10)
                 4.8032
    Dipole Moment (Debye)
         X      -0.0005      Y       1.0507      Z       0.0015
       Tot       1.0507
    Quadrupole Moments (Debye-Ang)
        XX     -19.1471     XY      -0.0003     YY     -17.5908
        XZ       0.0094     YZ      -0.0044     ZZ     -19.9038
    Octapole Moments (Debye-Ang^2)
       XXX      -0.0005    XXY       4.8976    XYY      -0.0012
       YYY      -2.5160    XXZ       0.0006    XYZ      -0.0021
       YYZ       0.0051    XZZ      -0.0002    YZZ       2.2692
       ZZZ       0.0014
    Hexadecapole Moments (Debye-Ang^3)
      XXXX     -73.8123   XXXY      -0.0003   XXYY     -27.5516
      XYYY      -0.0005   YYYY    -121.5429   XXXZ       0.0117
      XXYZ      -0.0012   XYYZ       0.0138   YYYZ      -0.0137
      XXZZ     -12.9028   XYZZ      -0.0006   YYZZ     -22.7673
      XZZZ       0.0088   YZZZ      -0.0042   ZZZZ     -30.9693
 -----------------------------------------------------------------
 Total job time:  151.05s(wall), 113.41s(cpu) 
 Tue Apr 12 22:48:51 2011

        *************************************************************
        *                                                           *
        *  Thank you very much for using Q-Chem.  Have a nice day.  *
        *                                                           *
        *************************************************************


0 sent ACK to 0 
now end server 0 ... 
