Process 0 of 1 is on cl257.stfx.acenet.ca - thread support 1
initial socket setup ...start
initial socket setup ...done 
now start server 0 ... 

cmd = /usr/bin/ssh clhead /usr/local/qchem/bin/get_hostid 1313636293 > /scratch/tmp/4506632.1.long.q/qchem19248/lic.dat
                  Welcome to Q-Chem
     A Quantum Leap Into The Future Of Chemistry

 Y. Shao, L. Fusti-Molnar, Y. Jung, J. Kussmann, C. Ochsenfeld,
 S. T. Brown, A. T. B. Gilbert, L. V. Slipchenko,S. V. Levchenko,
 D. P. O'Neill, R. A. DiStasio Jr., R. C. Lochan, T. Wang,
 G. J. O. Beran, N. A. Besley, J. M. Herbert, C. Y. Lin,
 T. Van Voorhis, S. H. Chien, A. Sodt, R. P. Steele, 
 V. A. Rassolov, P. E. Maslen, P. P. Korambath, R. D. Adamson,
 B. Austin, J. Baker, E. F. C. Byrd, H. Dachsel, R. J. Doerksen,
 A. Dreuw, B. D. Dunietz, A. D. Dutoi, T. R. Furlani,
 S. R. Gwaltney, A. Heyden, S. Hirata, C.-P. Hsu, G. Kedziora,
 R. Z. Khaliullin, P. Klunzinger, A. M. Lee, M. S. Lee, W. Liang,
 I. Lotan, N. Nair, B. Peters, E. I. Proynov, P. A. Pieniazek, 
 Y. M. Rhee, J. Ritchie, E. Rosta, C. D. Sherrill, 
 A. C. Simmonett, J. E. Subotnik, H. L. Woodcock III,
 W. Zhang, A. T. Bell, A. K. Chakraborty, D. M. Chipman,
 F. J. Keil, A. Warshel, W. J. Hehre, H. F. Schaefer III,
 J. Kong, A. I. Krylov, P. M. W. Gill, M. Head-Gordon,
 Q-Chem, Version 3.1, Q-Chem, Inc., Pittsburgh, PA (2007).

 Additional authors for Version 3.1: 
 Z. Gan, Y. Zhao, N. E. Schultz, D. Truhlar, E. Epifanovsky and M. Oana.

 Additional authors for Version 3.2: 
 R. Baer, B. R. Brooks, D. Casanova, J.-D. Chai, C.-L. Cheng, 
 C. Cramer, D. Crittenden, A. Ghysels, G. Hawkins, E. G. Hohenstein, 
 C. Kelley, W. Kurlancheek, D. Liotard, E. Livshits, P. Manohar, 
 A. Marenich, D. Neuhauser, R. Olson, M. A. Rohrdanz, K. S. Thanthiriwatte, 
 A. J. W. Thom, V. Vanovschi, C. F. Williams, Q. Wu and Z.-Q. You. 


 Intel X86 Linux Version

 Q-chem begins on Sat Apr 23 17:33:36 2011  

 Parallel job on  1  processors
Processing $rem in /usr/local/qchem/config/preferences.

theFileMan(): MAXOPENFILES=974 MAX_SUB_FILE_NUM=16
Maximum size of a physical file is 2.0 GB, maximum size of a tmp-file is 32.0 GB


--------------------------------------------------------------
User input:
--------------------------------------------------------------

$molecule
0,1
C
H,1,RCH1
C,1,RCC,2,A1
H,3,RCH2,1,A2,2,180.,0
X,3,1.,1,A3,4,180.,0
H,3,RCH3,5,A4,1,90.,0
H,3,RCH3,5,A4,1,-90.,0
C,1,RCC,2,A1,3,120.,0
H,8,RCH2,1,A2,2,180.,0
X,8,1.,1,A3,9,180.,0
H,8,RCH3,10,A4,1,90.,0
H,8,RCH3,10,A4,1,-90.,0
C,1,RCC,2,A1,3,-120.,0
H,13,RCH2,1,A2,2,180.,0
X,13,1.,1,A3,14,180.,0
H,13,RCH3,15,A4,1,90.,0
H,13,RCH3,15,A4,1,-90.,0

RCC=1.53533269
RCH1=1.10053474
RCH2=1.09808372
RCH3=1.09665667
A1=107.76867937
A2=110.8489623
A3=128.22406411
A4=53.91139669

$end

$comment
neutral
$end

$xc_functional
   X HF 1.0
   X BNL 1.0
   C LYP 1.0
$end

$rem
SYMMETRY_DECOMPOSITION	0
exchange 		general
BASIS                   g3large
omega			350 
JOBTYPE                 opt
separate_jk		true
mem_static              760
max_scf_cycles          200
scf_final_print         1
sym_ignore              true
$end


--------------------------------------------------------------
 Writing REM_CC_EA           14
 ----------------------------------------------------
       Standard Nuclear Orientation (Angstroms)
    I     Atom         X            Y            Z
 ----------------------------------------------------
    1      C       0.000000     0.000000     0.000000
    2      H       0.000000     0.000000     1.100535
    3      C       1.462092     0.000000    -0.468545
    4      H       1.521097     0.000000    -1.565042
    5      H       1.997579     0.886216    -0.107255
    6      H       1.997579    -0.886216    -0.107255
    7      C      -0.731046    -1.266209    -0.468545
    8      H      -0.760549    -1.317309    -1.565042
    9      H      -0.231304    -2.173062    -0.107255
   10      H      -1.766275    -1.286846    -0.107255
   11      C      -0.731046     1.266209    -0.468545
   12      H      -0.760549     1.317309    -1.565042
   13      H      -1.766275     1.286846    -0.107255
   14      H      -0.231304     2.173062    -0.107255
 ----------------------------------------------------
 Nuclear Repulsion Energy =   134.0708633833 hartrees
 There are       17 alpha and       17 beta electrons
 Requested basis set is G3large
 There are 100 shells and 268 basis functions

Total QAlloc Memory Limit   2000 MB
Mega-Array Size       743 MB
MEM_STATIC part       760 MB
 A cutoff of  1.0D-11 yielded   4846 shell pairs
 There are  34888 function pairs ( 41578 Cartesian)
Evaluating contribution to one-electron hamiltonian from nuclear
 Smallest overlap matrix eigenvalue = 3.46E-05
 Multipole matrices computed through 2nd order

  Scale SEOQF with 1.000000e-01/1.000000e-01/1.000000e-01

 Standard Electronic Orientation quadrupole field applied
 Nucleus-field energy     =     0.0000000026 hartrees
 Guess from superposition of atomic densities
 Warning:  Energy on first SCF cycle will be non-variational
 A restricted hybrid HF-DFT SCF calculation will be
 performed using Pulay DIIS extrapolation
 Exchange:     1.0000 Hartree-Fock + 1.0000 BNL
 Correlation:  1.0000 LYP
 Using SG-1 standard quadrature grid
 SCF converges when DIIS error is below 1.0E-08
 ---------------------------------------
  Cycle       Energy         DIIS Error
 ---------------------------------------
    1    -157.5044614172      2.67E-02
    2    -156.4086994734      2.84E-03
    3    -156.4508860498      2.00E-03
    4    -156.4847515495      2.23E-04
    5    -156.4852781825      7.04E-05
    6    -156.4853269769      2.91E-05
    7    -156.4853347283      4.42E-06
    8    -156.4853348548      1.02E-06
    9    -156.4853349009      2.77E-07
   10    -156.4853348877      1.07E-07
   11    -156.4853348928      2.20E-08
   12    -156.4853348930      3.67E-09 Convergence criterion met
 ---------------------------------------
 One-Electron    Energy =  -476.4960699557
 Total Coulomb   Energy =   209.2277871110
 Alpha Exchange  Energy =    -2.9929409857
 Beta  Exchange  Energy =    -2.9929409857
 DFT   Exchange  Energy =   -16.2306701316
 DFT Correlation Energy =    -1.0713633310
 Nuclear Repu.   Energy =   134.0708633859
 Nuclear Attr.   Energy =  -631.9088838704
 Kinetic         Energy =   155.4128139146
 SCF time:  CPU 402.39 s  wall 404.89 s
 Final Alpha MO Eigenvalues
            1           2           3           4           5           6
    1  -9.9472042  -9.9268184  -9.9268173  -9.9267926  -0.9157176  -0.7918251
            7           8           9          10          11          12
    1  -0.7918223  -0.6675713  -0.5733230  -0.5377727  -0.5377712  -0.4832331
           13          14          15          16          17          18
    1  -0.4832317  -0.4590757  -0.4259747  -0.4259745  -0.4153112   0.0311301
           19          20          21          22
    1   0.0507398   0.0507401   0.0509822   0.0736344
 Analysis of SCF Wavefunction
 
 --------------------------------------------------------------
                    Orbital Energies (a.u.)
 --------------------------------------------------------------
 
 Alpha MOs
 -- Occupied --
 -9.947  -9.927  -9.927  -9.927  -0.916  -0.792  -0.792  -0.668
 -0.573  -0.538  -0.538  -0.483  -0.483  -0.459  -0.426  -0.426
 -0.415
 -- Virtual --
  0.031   0.051   0.051   0.051   0.074   0.074   0.078   0.088
  0.088   0.108   0.123   0.147   0.147   0.157   0.157   0.163
  0.169   0.185   0.185   0.187   0.204   0.204   0.210   0.210
  0.223   0.225   0.271   0.271   0.276   0.287   0.287   0.311
  0.311   0.352   0.352   0.370   0.370   0.379   0.448   0.479
  0.479   0.549   0.551   0.551   0.572   0.580   0.580   0.627
  0.634   0.639   0.639   0.653   0.653   0.653   0.663   0.687
  0.687   0.721   0.721   0.725   0.768   0.768   0.784   0.796
  0.837   0.837   0.903   0.932   0.932   0.963   0.997   0.997
  1.051   1.063   1.102   1.102   1.159   1.159   1.187   1.221
  1.227   1.227   1.240   1.279   1.279   1.335   1.358   1.358
  1.374   1.374   1.413   1.430   1.430   1.433   1.433   1.434
  1.457   1.483   1.483   1.548   1.556   1.556   1.575   1.629
  1.662   1.662   1.669   1.689   1.703   1.703   1.737   1.737
  1.805   1.805   1.807   2.501   2.501   2.619   2.647   2.647
  2.657   2.728   2.797   2.797   2.825   2.825   2.853   2.902
  2.945   2.945   3.014   3.024   3.024   3.042   3.042   3.072
  3.129   3.129   3.131   3.234   3.234   3.264   3.338   3.357
  3.363   3.363   3.419   3.419   3.444   3.445   3.492   3.492
  3.557   3.560   3.560   3.642   3.642   3.644   3.677   3.677
  3.699   3.785   3.816   3.816   3.862   3.862   3.921   3.921
  3.995   4.025   4.025   4.042   4.071   4.093   4.093   4.130
  4.167   4.167   4.293   4.293   4.293   4.305   4.332   4.360
  4.360   4.377   4.377   4.382   4.483   4.497   4.497   4.584
  4.606   4.606   4.711   4.711   4.723   4.723   4.727   4.794
  4.864   4.864   4.871   4.982   4.982   5.399   5.473   5.473
  5.676   5.771   5.771   5.795   5.800   5.806   5.806  24.254
 24.403  24.403  24.498  27.689  27.689  27.988  28.183  28.183
 28.198  28.225  28.248  28.248  28.468  28.575  28.575  40.939
 40.970  40.976  40.980  40.992  41.003  41.013  41.014  41.262
 41.265  41.266  41.269  41.272  41.284  41.296  41.298  41.315
 41.355  41.356  41.388
 --------------------------------------------------------------
 
          Ground-State Mulliken Net Atomic Charges

     Atom                 Charge (a.u.)
  ----------------------------------------
      1 C                     0.108405
      2 H                     0.118505
      3 C                    -0.460402
      4 H                     0.132784
      5 H                     0.125952
      6 H                     0.125952
      7 C                    -0.460263
      8 H                     0.132785
      9 H                     0.125960
     10 H                     0.125919
     11 C                    -0.460262
     12 H                     0.132785
     13 H                     0.125919
     14 H                     0.125960
  ----------------------------------------
  Sum of atomic charges =     0.000000

 -----------------------------------------------------------------
                    Cartesian Multipole Moments
 -----------------------------------------------------------------
    Charge (ESU x 10^10)
                 0.0000
    Dipole Moment (Debye)
         X      -0.0001      Y       0.0000      Z       0.1307
       Tot       0.1307
    Quadrupole Moments (Debye-Ang)
        XX     -29.5933     XY       0.0000     YY     -29.5934
        XZ       0.0002     YZ       0.0000     ZZ     -29.1428
    Octapole Moments (Debye-Ang^2)
       XXX      -1.9126    XXY       0.0000    XYY       1.9116
       YYY       0.0000    XXZ      12.5449    XYZ       0.0000
       YYZ      12.5451    XZZ      -0.0002    YZZ       0.0000
       ZZZ      31.7342
    Hexadecapole Moments (Debye-Ang^3)
      XXXX    -227.9498   XXXY       0.0000   XXYY     -75.9834
      XYYY       0.0000   YYYY    -227.9498   XXXZ      -0.6003
      XXYZ       0.0000   XYYZ       0.6014   YYYZ       0.0000
      XXZZ     -56.4236   XYZZ       0.0000   YYZZ     -56.4233
      XZZZ       0.0005   YZZZ       0.0000   ZZZZ     -93.3272
 -----------------------------------------------------------------
 Calculating analytic gradient of the SCF energy
 Gradient of AOints
            1           2           3           4           5           6
    1  -0.0041061   0.0014561  -4.2650745  -0.8726773  -2.1059144  -2.1059144
    2  -0.0000016   0.0000000   0.0000006   0.0000000  -2.5007894   2.5007897
    3  -1.1589437  -3.8230800   0.2713496   3.2871971  -0.9485857  -0.9485858
            7           8           9          10          11          12
    1   2.1345972   0.4361326  -1.1130740   3.2184592   2.1345976   0.4361323
    2   3.6922788   0.7557820   3.0745958   0.5735270  -3.6922785  -0.7557815
    3   0.2695620   3.2872036  -0.9482635  -0.9481782   0.2695623   3.2872035
           13          14
    1   3.2184592  -1.1130734
    2  -0.5735272  -3.0745957
    3  -0.9481781  -0.9482630
 Gradient of XC Energy
            1           2           3           4           5           6
    1   0.0000081  -0.0000260  -0.0339149   0.0123867   0.0789155   0.0789155
    2   0.0000000  -0.0000000  -0.0000000   0.0000000   0.1259786  -0.1259786
    3  -0.0251304   0.1532039   0.0103895  -0.1542102   0.0505577   0.0505577
            7           8           9          10          11          12
    1   0.0169025  -0.0061904   0.0696569  -0.1485114   0.0169025  -0.0061904
    2   0.0294037  -0.0107114  -0.1313776  -0.0053479  -0.0294037   0.0107114
    3   0.0103888  -0.1542041   0.0505680   0.0505633   0.0103888  -0.1542041
           13          14
    1  -0.1485114   0.0696568
    2   0.0053479   0.1313775
    3   0.0505632   0.0505679
 Gradient of SCF Energy
            1           2           3           4           5           6
    1  -0.0000803   0.0000100   0.0135370   0.0008103  -0.0009029  -0.0009029
    2   0.0000000  -0.0000000   0.0000000   0.0000000  -0.0025767   0.0025767
    3   0.0115607  -0.0025554  -0.0039927   0.0031753  -0.0010899  -0.0010899
            7           8           9          10          11          12
    1  -0.0067812  -0.0004031  -0.0017746   0.0027231  -0.0067812  -0.0004031
    2  -0.0117316  -0.0006832   0.0020364  -0.0004994   0.0117316   0.0006832
    3  -0.0040429   0.0031822  -0.0010711  -0.0010722  -0.0040429   0.0031822
           13          14
    1   0.0027231  -0.0017746
    2   0.0004994  -0.0020364
    3  -0.0010722  -0.0010711
 Max gradient component =       1.354E-02
 RMS gradient           =       4.428E-03
 Gradient time:  CPU 174.16 s  wall 174.44 s
 Geometry Optimization Parameters
   NAtoms,    NIC,     NZ,  NCons,   NDum,   NFix, NCnnct, MaxDiis
       14      92      17       0       0       0       0       0


** GEOMETRY OPTIMIZATION IN DELOCALIZED INTERNAL COORDINATES **
   Searching for a Minimum

   Optimization Cycle:   1

                       Coordinates (Angstroms)
     ATOM              X           Y           Z
    1  C           0.000000    0.000000    0.000000
    2  H           0.000000    0.000000    1.100535
    3  C           1.462092    0.000000   -0.468545
    4  H           1.521097    0.000000   -1.565042
    5  H           1.997579    0.886216   -0.107255
    6  H           1.997579   -0.886216   -0.107255
    7  C          -0.731046   -1.266209   -0.468545
    8  H          -0.760549   -1.317309   -1.565042
    9  H          -0.231304   -2.173062   -0.107255
   10  H          -1.766275   -1.286846   -0.107255
   11  C          -0.731046    1.266209   -0.468545
   12  H          -0.760549    1.317309   -1.565042
   13  H          -1.766275    1.286846   -0.107255
   14  H          -0.231304    2.173062   -0.107255
   Point Group: c1    Number of degrees of freedom:  36


   Energy is   -156.485334893


 Attempting to Generate Delocalized Internal Coordinates

 35 Hessian modes will be used to form the next step
  Hessian Eigenvalues:
     0.004505    0.004505    0.004505    0.035734    0.048892    0.048892
     0.055083    0.055083    0.055083    0.055785    0.055785    0.055785
     0.160000    0.160000    0.160000    0.160000    0.160000    0.160000
     0.160000    0.160000    0.160000    0.168917    0.168917    0.289364
     0.289364    0.336231    0.338949    0.338949    0.338949    0.340546
     0.340546    0.340546    0.340546    0.340546    0.340546

 Minimum Search - Taking Simple RFO Step
 Searching for Lamda that Minimizes Along All modes
 Value Taken    Lamda =  -0.00212136
 Step Taken.  Stepsize is  0.098678

                             Maximum     Tolerance    Cnvgd?
         Gradient           0.017614      0.000300      NO
         Displacement       0.083360      0.001200      NO
         Energy change     *********      0.000001      NO


 New Cartesian Coordinates Obtained by Inverse Iteration

 Displacement from previous Coordinates is:  0.205875
 Writing REM_CC_EA           14
 ----------------------------------------------------
       Standard Nuclear Orientation (Angstroms)
    I     Atom         X            Y            Z
 ----------------------------------------------------
    1      C       0.000138     0.000000     0.007264
    2      H       0.000125     0.000000     1.111795
    3      C       1.435881     0.000000    -0.466822
    4      H       1.476100     0.000000    -1.569026
    5      H       1.974189     0.891654    -0.109590
    6      H       1.974189    -0.891654    -0.109590
    7      C      -0.717950    -1.243373    -0.466540
    8      H      -0.737748    -1.278733    -1.568742
    9      H      -0.215115    -2.155271    -0.108891
   10      H      -1.759498    -1.263495    -0.109720
   11      C      -0.717950     1.243373    -0.466540
   12      H      -0.737748     1.278733    -1.568742
   13      H      -1.759498     1.263495    -0.109720
   14      H      -0.215115     2.155271    -0.108891
 ----------------------------------------------------
 Nuclear Repulsion Energy =   135.4391635108 hartrees
 There are       17 alpha and       17 beta electrons
 Applying Cartesian multipole field
    Component          Value
    ---------          -----
     (2,0,0)        1.00000E-11
     (0,2,0)        2.00000E-11
     (0,0,2)       -3.00000E-11
 Nucleus-field energy     =     0.0000000025 hartrees
 Requested basis set is G3large
 There are 100 shells and 268 basis functions
 A cutoff of  1.0D-11 yielded   4864 shell pairs
 There are  35020 function pairs ( 41722 Cartesian)
Evaluating contribution to one-electron hamiltonian from nuclear
 Smallest overlap matrix eigenvalue = 2.90E-05
 Multipole matrices computed through 2nd order
 Guess MOs from SCF MO coefficient file
Reading MOs from coefficient file
Reading MOs from coefficient file
 A restricted hybrid HF-DFT SCF calculation will be
 performed using Pulay DIIS extrapolation
 Exchange:     1.0000 Hartree-Fock + 1.0000 BNL
 Correlation:  1.0000 LYP
 Using SG-1 standard quadrature grid
 SCF converges when DIIS error is below 1.0E-08
 ---------------------------------------
  Cycle       Energy         DIIS Error
 ---------------------------------------
    1    -156.4651447960      5.74E-04
    2    -156.4862635033      7.19E-05
    3    -156.4863115869      3.84E-05
    4    -156.4863221117      8.97E-06
    5    -156.4863228613      2.47E-06
    6    -156.4863231148      4.08E-07
    7    -156.4863231171      1.37E-07
    8    -156.4863231455      4.62E-08
    9    -156.4863231423      1.50E-08
   10    -156.4863231485      1.60E-09 Convergence criterion met
 ---------------------------------------
 One-Electron    Energy =  -479.2069767916
 Total Coulomb   Energy =   210.5862678692
 Alpha Exchange  Energy =    -2.9933731507
 Beta  Exchange  Energy =    -2.9933731507
 DFT   Exchange  Energy =   -16.2449334461
 DFT Correlation Energy =    -1.0730979920
 Nuclear Repu.   Energy =   135.4391635133
 Nuclear Attr.   Energy =  -634.6874116841
 Kinetic         Energy =   155.4804348925
 SCF time:  CPU 339.55 s  wall 341.47 s
 Final Alpha MO Eigenvalues
            1           2           3           4           5           6
    1  -9.9421215  -9.9264331  -9.9264219  -9.9263970  -0.9240738  -0.7921253
            7           8           9          10          11          12
    1  -0.7921158  -0.6662807  -0.5784134  -0.5406775  -0.5406748  -0.4823183
           13          14          15          16          17          18
    1  -0.4823063  -0.4565058  -0.4263659  -0.4263135  -0.4152463   0.0311543
           19          20          21          22
    1   0.0505077   0.0509121   0.0509144   0.0737252
 Analysis of SCF Wavefunction
 
 --------------------------------------------------------------
                    Orbital Energies (a.u.)
 --------------------------------------------------------------
 
 Alpha MOs
 -- Occupied --
 -9.942  -9.926  -9.926  -9.926  -0.924  -0.792  -0.792  -0.666
 -0.578  -0.541  -0.541  -0.482  -0.482  -0.457  -0.426  -0.426
 -0.415
 -- Virtual --
  0.031   0.051   0.051   0.051   0.074   0.074   0.078   0.088
  0.088   0.109   0.123   0.147   0.147   0.157   0.157   0.163
  0.169   0.186   0.186   0.186   0.204   0.204   0.209   0.209
  0.222   0.225   0.271   0.271   0.275   0.287   0.287   0.312
  0.315   0.356   0.356   0.370   0.370   0.383   0.456   0.480
  0.480   0.551   0.552   0.552   0.568   0.579   0.580   0.630
  0.632   0.637   0.637   0.650   0.650   0.653   0.670   0.694
  0.694   0.723   0.726   0.726   0.765   0.765   0.786   0.802
  0.834   0.834   0.911   0.939   0.939   0.954   1.002   1.002
  1.056   1.058   1.108   1.108   1.159   1.159   1.195   1.219
  1.233   1.233   1.238   1.278   1.278   1.336   1.367   1.367
  1.382   1.382   1.411   1.431   1.431   1.439   1.440   1.440
  1.467   1.484   1.484   1.552   1.552   1.553   1.575   1.635
  1.660   1.660   1.685   1.688   1.700   1.700   1.736   1.736
  1.800   1.812   1.812   2.515   2.515   2.626   2.660   2.660
  2.675   2.757   2.817   2.817   2.831   2.832   2.869   2.920
  2.948   2.948   3.017   3.037   3.037   3.041   3.041   3.074
  3.129   3.129   3.155   3.221   3.221   3.264   3.357   3.366
  3.366   3.371   3.416   3.416   3.444   3.452   3.489   3.489
  3.556   3.564   3.564   3.648   3.652   3.652   3.681   3.681
  3.709   3.794   3.832   3.832   3.867   3.867   3.946   3.946
  3.997   4.045   4.045   4.068   4.078   4.095   4.095   4.133
  4.171   4.171   4.283   4.300   4.311   4.311   4.339   4.358
  4.358   4.377   4.377   4.398   4.504   4.509   4.509   4.601
  4.624   4.624   4.729   4.729   4.742   4.742   4.743   4.806
  4.878   4.878   4.907   4.991   4.991   5.425   5.519   5.519
  5.679   5.754   5.755   5.785   5.789   5.792   5.792  24.243
 24.408  24.408  24.566  27.736  27.736  28.032  28.184  28.184
 28.194  28.239  28.262  28.262  28.473  28.565  28.565  40.937
 40.969  40.976  40.981  40.999  41.006  41.016  41.022  41.263
 41.265  41.267  41.273  41.274  41.281  41.295  41.298  41.330
 41.355  41.366  41.416
 --------------------------------------------------------------
 
          Ground-State Mulliken Net Atomic Charges

     Atom                 Charge (a.u.)
  ----------------------------------------
      1 C                     0.089199
      2 H                     0.115137
      3 C                    -0.445062
      4 H                     0.130232
      5 H                     0.123388
      6 H                     0.123388
      7 C                    -0.445085
      8 H                     0.130217
      9 H                     0.123416
     10 H                     0.123311
     11 C                    -0.445085
     12 H                     0.130217
     13 H                     0.123311
     14 H                     0.123416
  ----------------------------------------
  Sum of atomic charges =     0.000000

 -----------------------------------------------------------------
                    Cartesian Multipole Moments
 -----------------------------------------------------------------
    Charge (ESU x 10^10)
                 0.0000
    Dipole Moment (Debye)
         X       0.0001      Y       0.0000      Z       0.1418
       Tot       0.1418
    Quadrupole Moments (Debye-Ang)
        XX     -29.7129     XY       0.0000     YY     -29.7150
        XZ       0.0005     YZ       0.0000     ZZ     -29.1561
    Octapole Moments (Debye-Ang^2)
       XXX      -2.0908    XXY       0.0000    XYY       2.0863
       YYY       0.0000    XXZ      12.6170    XYZ       0.0000
       YYZ      12.6179    XZZ       0.0008    YZZ       0.0000
       ZZZ      31.6561
    Hexadecapole Moments (Debye-Ang^3)
      XXXX    -222.9788   XXXY       0.0000   XXYY     -74.3233
      XYYY       0.0000   YYYY    -222.9641   XXXZ      -0.4876
      XXYZ       0.0000   XYYZ       0.5063   YYYZ       0.0000
      XXZZ     -55.7673   XYZZ       0.0000   YYZZ     -55.7558
      XZZZ       0.0063   YZZZ       0.0000   ZZZZ     -93.8491
 -----------------------------------------------------------------
 Calculating analytic gradient of the SCF energy
 Gradient of AOints
            1           2           3           4           5           6
    1  -0.0077930   0.0018425  -4.3379652  -0.7999802  -2.1038517  -2.1038522
    2   0.0000005  -0.0000000   0.0000000   0.0000002  -2.5370354   2.5370349
    3  -1.4356768  -3.8445535   0.3400152   3.3241441  -0.9513345  -0.9513348
            7           8           9          10          11          12
    1   2.1724438   0.3988991  -1.1451451   3.2496022   2.1724437   0.3988994
    2   3.7535701   0.6949730   3.0903735   0.5531433  -3.7535701  -0.6949731
    3   0.3373520   3.3237159  -0.9523660  -0.9493319   0.3373523   3.3237159
           13          14
    1   3.2496022  -1.1451455
    2  -0.5531436  -3.0903733
    3  -0.9493321  -0.9523660
 Gradient of XC Energy
            1           2           3           4           5           6
    1   0.0001256  -0.0000374  -0.0306890   0.0090175   0.0783503   0.0783504
    2  -0.0000000   0.0000000  -0.0000000  -0.0000000   0.1264306  -0.1264305
    3  -0.0165341   0.1528298   0.0085385  -0.1541807   0.0500878   0.0500878
            7           8           9          10          11          12
    1   0.0152680  -0.0044710   0.0703054  -0.1486611   0.0152680  -0.0044710
    2   0.0266848  -0.0078806  -0.1311090  -0.0045946  -0.0266848   0.0078806
    3   0.0085623  -0.1541548   0.0501623   0.0500157   0.0085623  -0.1541548
           13          14
    1  -0.1486611   0.0703054
    2   0.0045946   0.1311090
    3   0.0500157   0.0501623
 Gradient of SCF Energy
            1           2           3           4           5           6
    1   0.0000070  -0.0000024   0.0000534  -0.0001179  -0.0006551  -0.0006551
    2  -0.0000000   0.0000000  -0.0000000  -0.0000000   0.0000347  -0.0000347
    3   0.0021528  -0.0006179  -0.0014466   0.0002725   0.0003227   0.0003227
            7           8           9          10          11          12
    1   0.0000010   0.0000491   0.0003521   0.0002828   0.0000010   0.0000491
    2  -0.0000206   0.0001095   0.0005436   0.0005936   0.0000205  -0.0001095
    3  -0.0014476   0.0002870   0.0003287   0.0003288  -0.0014477   0.0002870
           13          14
    1   0.0002828   0.0003521
    2  -0.0005936  -0.0005436
    3   0.0003288   0.0003287
 Max gradient component =       2.153E-03
 RMS gradient           =       5.934E-04
 Gradient time:  CPU 173.88 s  wall 174.18 s
 Geometry Optimization Parameters
   NAtoms,    NIC,     NZ,  NCons,   NDum,   NFix, NCnnct, MaxDiis
       14      92      17       0       0       0       0       0

 Cartesian Hessian Update
 Hessian Updated using BFGS Update


** GEOMETRY OPTIMIZATION IN DELOCALIZED INTERNAL COORDINATES **
   Searching for a Minimum

   Optimization Cycle:   2

                       Coordinates (Angstroms)
     ATOM              X           Y           Z
    1  C           0.000138    0.000000    0.007264
    2  H           0.000125    0.000000    1.111795
    3  C           1.435881    0.000000   -0.466822
    4  H           1.476100    0.000000   -1.569026
    5  H           1.974189    0.891654   -0.109590
    6  H           1.974189   -0.891654   -0.109590
    7  C          -0.717950   -1.243373   -0.466540
    8  H          -0.737748   -1.278733   -1.568742
    9  H          -0.215115   -2.155271   -0.108891
   10  H          -1.759498   -1.263495   -0.109720
   11  C          -0.717950    1.243373   -0.466540
   12  H          -0.737748    1.278733   -1.568742
   13  H          -1.759498    1.263495   -0.109720
   14  H          -0.215115    2.155271   -0.108891
   Point Group: c1    Number of degrees of freedom:  36


   Energy is   -156.486323149

 Hessian Updated using BFGS Update

 16 Hessian modes will be used to form the next step
  Hessian Eigenvalues:
     0.004505    0.036775    0.048893    0.054697    0.055083    0.055785
     0.157601    0.163447    0.168917    0.289361    0.314136    0.333177
     0.337610    0.338950    0.339910    0.340549

 Minimum Search - Taking Simple RFO Step
 Searching for Lamda that Minimizes Along All modes
 Value Taken    Lamda =  -0.00006895
 Step Taken.  Stepsize is  0.024834

                             Maximum     Tolerance    Cnvgd?
         Gradient           0.002581      0.000300      NO
         Displacement       0.018877      0.001200      NO
         Energy change     -0.000988      0.000001      NO


 New Cartesian Coordinates Obtained by Inverse Iteration

 Displacement from previous Coordinates is:  0.031972
 Writing REM_CC_EA           14
 ----------------------------------------------------
       Standard Nuclear Orientation (Angstroms)
    I     Atom         X            Y            Z
 ----------------------------------------------------
    1      C      -0.000004     0.000000     0.005666
    2      H       0.000021     0.000000     1.111195
    3      C       1.438232     0.000000    -0.465013
    4      H       1.478733     0.000000    -1.567734
    5      H       1.980023     0.891195    -0.110734
    6      H       1.980023    -0.891195    -0.110734
    7      C      -0.719184    -1.245669    -0.464769
    8      H      -0.739111    -1.281338    -1.567503
    9      H      -0.218196    -2.160200    -0.110105
   10      H      -1.762023    -1.269362    -0.110826
   11      C      -0.719184     1.245669    -0.464769
   12      H      -0.739111     1.281338    -1.567503
   13      H      -1.762023     1.269362    -0.110826
   14      H      -0.218196     2.160200    -0.110105
 ----------------------------------------------------
 Nuclear Repulsion Energy =   135.2820591884 hartrees
 There are       17 alpha and       17 beta electrons
 Applying Cartesian multipole field
    Component          Value
    ---------          -----
     (2,0,0)        1.00000E-11
     (0,2,0)        2.00000E-11
     (0,0,2)       -3.00000E-11
 Nucleus-field energy     =     0.0000000025 hartrees
 Requested basis set is G3large
 There are 100 shells and 268 basis functions
 A cutoff of  1.0D-11 yielded   4864 shell pairs
 There are  35020 function pairs ( 41722 Cartesian)
Evaluating contribution to one-electron hamiltonian from nuclear
 Smallest overlap matrix eigenvalue = 2.96E-05
 Multipole matrices computed through 2nd order
 Guess MOs from SCF MO coefficient file
Reading MOs from coefficient file
Reading MOs from coefficient file
 A restricted hybrid HF-DFT SCF calculation will be
 performed using Pulay DIIS extrapolation
 Exchange:     1.0000 Hartree-Fock + 1.0000 BNL
 Correlation:  1.0000 LYP
 Using SG-1 standard quadrature grid
 SCF converges when DIIS error is below 1.0E-08
 ---------------------------------------
  Cycle       Energy         DIIS Error
 ---------------------------------------
    1    -156.4874482081      6.80E-05
    2    -156.4863584689      7.56E-06
    3    -156.4863590667      3.45E-06
    4    -156.4863592574      1.09E-06
    5    -156.4863591752      2.17E-07
    6    -156.4863592020      5.70E-08
    7    -156.4863591995      1.85E-08
    8    -156.4863592014      3.70E-09 Convergence criterion met
 ---------------------------------------
 One-Electron    Energy =  -478.8962234385
 Total Coulomb   Energy =   210.4285410094
 Alpha Exchange  Energy =    -2.9931687703
 Beta  Exchange  Energy =    -2.9931687703
 DFT   Exchange  Energy =   -16.2415659677
 DFT Correlation Energy =    -1.0728324550
 Nuclear Repu.   Energy =   135.2820591909
 Nuclear Attr.   Energy =  -634.3611864833
 Kinetic         Energy =   155.4649630448
 SCF time:  CPU 266.37 s  wall 267.90 s
 Final Alpha MO Eigenvalues
            1           2           3           4           5           6
    1  -9.9427758  -9.9267581  -9.9267521  -9.9267268  -0.9233529  -0.7920543
            7           8           9          10          11          12
    1  -0.7920369  -0.6664074  -0.5781064  -0.5403657  -0.5403412  -0.4818255
           13          14          15          16          17          18
    1  -0.4818168  -0.4565994  -0.4270542  -0.4270153  -0.4142485   0.0311538
           19          20          21          22
    1   0.0505792   0.0508490   0.0508503   0.0736806
 Analysis of SCF Wavefunction
 
 --------------------------------------------------------------
                    Orbital Energies (a.u.)
 --------------------------------------------------------------
 
 Alpha MOs
 -- Occupied --
 -9.943  -9.927  -9.927  -9.927  -0.923  -0.792  -0.792  -0.666
 -0.578  -0.540  -0.540  -0.482  -0.482  -0.457  -0.427  -0.427
 -0.414
 -- Virtual --
  0.031   0.051   0.051   0.051   0.074   0.074   0.078   0.088
  0.088   0.109   0.123   0.147   0.147   0.157   0.157   0.163
  0.169   0.185   0.185   0.186   0.204   0.204   0.209   0.210
  0.222   0.225   0.271   0.271   0.275   0.287   0.287   0.312
  0.314   0.357   0.357   0.370   0.370   0.382   0.456   0.480
  0.480   0.551   0.551   0.551   0.569   0.580   0.580   0.630
  0.632   0.637   0.637   0.650   0.650   0.653   0.670   0.693
  0.693   0.723   0.726   0.726   0.765   0.765   0.786   0.802
  0.835   0.835   0.909   0.939   0.939   0.956   1.001   1.001
  1.056   1.057   1.106   1.106   1.159   1.159   1.193   1.219
  1.233   1.233   1.237   1.278   1.278   1.337   1.366   1.366
  1.381   1.381   1.411   1.430   1.430   1.437   1.437   1.438
  1.466   1.483   1.483   1.552   1.552   1.552   1.574   1.635
  1.660   1.660   1.684   1.687   1.702   1.702   1.736   1.736
  1.803   1.812   1.812   2.512   2.512   2.626   2.657   2.658
  2.677   2.756   2.816   2.816   2.832   2.832   2.866   2.915
  2.947   2.947   3.016   3.036   3.036   3.040   3.040   3.074
  3.132   3.132   3.153   3.223   3.223   3.263   3.354   3.365
  3.365   3.371   3.415   3.415   3.445   3.450   3.490   3.490
  3.555   3.567   3.567   3.643   3.653   3.653   3.679   3.679
  3.708   3.791   3.831   3.831   3.862   3.862   3.940   3.940
  3.995   4.042   4.042   4.066   4.078   4.093   4.093   4.134
  4.168   4.168   4.286   4.301   4.308   4.308   4.339   4.359
  4.359   4.377   4.377   4.397   4.496   4.503   4.503   4.594
  4.623   4.624   4.726   4.726   4.737   4.743   4.743   4.804
  4.874   4.874   4.908   4.989   4.989   5.422   5.514   5.514
  5.676   5.754   5.754   5.784   5.787   5.792   5.792  24.242
 24.404  24.404  24.560  27.734  27.734  28.030  28.182  28.182
 28.194  28.237  28.259  28.260  28.469  28.567  28.567  40.937
 40.969  40.975  40.980  40.998  41.006  41.015  41.021  41.262
 41.265  41.266  41.272  41.274  41.280  41.294  41.297  41.328
 41.354  41.365  41.414
 --------------------------------------------------------------
 
          Ground-State Mulliken Net Atomic Charges

     Atom                 Charge (a.u.)
  ----------------------------------------
      1 C                     0.094418
      2 H                     0.113502
      3 C                    -0.446824
      4 H                     0.130052
      5 H                     0.123764
      6 H                     0.123764
      7 C                    -0.446868
      8 H                     0.130023
      9 H                     0.123799
     10 H                     0.123709
     11 C                    -0.446868
     12 H                     0.130023
     13 H                     0.123709
     14 H                     0.123799
  ----------------------------------------
  Sum of atomic charges =     0.000000

 -----------------------------------------------------------------
                    Cartesian Multipole Moments
 -----------------------------------------------------------------
    Charge (ESU x 10^10)
                 0.0000
    Dipole Moment (Debye)
         X       0.0001      Y       0.0000      Z       0.1379
       Tot       0.1379
    Quadrupole Moments (Debye-Ang)
        XX     -29.6741     XY       0.0000     YY     -29.6757
        XZ       0.0005     YZ       0.0000     ZZ     -29.1964
    Octapole Moments (Debye-Ang^2)
       XXX      -2.0248    XXY       0.0000    XYY       2.0236
       YYY       0.0000    XXZ      12.5844    XYZ       0.0000
       YYZ      12.5843    XZZ       0.0018    YZZ       0.0000
       ZZZ      31.6611
    Hexadecapole Moments (Debye-Ang^3)
      XXXX    -223.3227   XXXY       0.0000   XXYY     -74.4456
      XYYY       0.0000   YYYY    -223.3780   XXXZ      -0.4909
      XXYZ       0.0000   XYYZ       0.5067   YYYZ       0.0000
      XXZZ     -55.9044   XYZZ       0.0000   YYZZ     -55.9025
      XZZZ       0.0052   YZZZ       0.0000   ZZZZ     -93.8372
 -----------------------------------------------------------------
 Calculating analytic gradient of the SCF energy
 Gradient of AOints
            1           2           3           4           5           6
    1  -0.0058075   0.0015596  -4.3250357  -0.7983727  -2.1222364  -2.1222367
    2  -0.0000001  -0.0000001   0.0000004   0.0000001  -2.5301116   2.5301114
    3  -1.3367464  -3.8371159   0.2817399   3.3140294  -0.9350534  -0.9350538
            7           8           9          10          11          12
    1   2.1664902   0.3978708  -1.1308940   3.2525977   2.1664902   0.3978709
    2   3.7422752   0.6940085   3.1023107   0.5735933  -3.7422750  -0.6940085
    3   0.2797911   3.3135949  -0.9358276  -0.9334582   0.2797911   3.3135949
           13          14
    1   3.2525976  -1.1308940
    2  -0.5735935  -3.1023107
    3  -0.9334585  -0.9358275
 Gradient of XC Energy
            1           2           3           4           5           6
    1   0.0000697  -0.0000269  -0.0313788   0.0089889   0.0791106   0.0791106
    2   0.0000000   0.0000000  -0.0000000  -0.0000000   0.1262197  -0.1262196
    3  -0.0191368   0.1526328   0.0105005  -0.1539418   0.0494592   0.0494592
            7           8           9          10          11          12
    1   0.0155823  -0.0044495   0.0697871  -0.1488570   0.0155823  -0.0044495
    2   0.0273063  -0.0078691  -0.1316386  -0.0054135  -0.0273063   0.0078691
    3   0.0105053  -0.1539168   0.0495237   0.0494013   0.0105053  -0.1539168
           13          14
    1  -0.1488570   0.0697871
    2   0.0054135   0.1316386
    3   0.0494013   0.0495237
 Gradient of SCF Energy
            1           2           3           4           5           6
    1   0.0000126   0.0000047   0.0003360  -0.0001416  -0.0000413  -0.0000413
    2   0.0000000   0.0000000  -0.0000000   0.0000000   0.0000870  -0.0000869
    3  -0.0001157  -0.0001303  -0.0002301   0.0001013   0.0001026   0.0001026
            7           8           9          10          11          12
    1  -0.0001639   0.0000660   0.0000916  -0.0000583  -0.0001639   0.0000660
    2  -0.0002955   0.0001224  -0.0000098   0.0000760   0.0002955  -0.0001224
    3  -0.0002277   0.0001050   0.0001027   0.0001048  -0.0002276   0.0001050
           13          14
    1  -0.0000583   0.0000916
    2  -0.0000760   0.0000098
    3   0.0001048   0.0001027
 Max gradient component =       3.360E-04
 RMS gradient           =       1.325E-04
 Gradient time:  CPU 191.90 s  wall 192.18 s
 Geometry Optimization Parameters
   NAtoms,    NIC,     NZ,  NCons,   NDum,   NFix, NCnnct, MaxDiis
       14      92      17       0       0       0       0       0

 Cartesian Hessian Update
 Hessian Updated using BFGS Update


** GEOMETRY OPTIMIZATION IN DELOCALIZED INTERNAL COORDINATES **
   Searching for a Minimum

   Optimization Cycle:   3

                       Coordinates (Angstroms)
     ATOM              X           Y           Z
    1  C          -0.000004    0.000000    0.005666
    2  H           0.000021    0.000000    1.111195
    3  C           1.438232    0.000000   -0.465013
    4  H           1.478733    0.000000   -1.567734
    5  H           1.980023    0.891195   -0.110734
    6  H           1.980023   -0.891195   -0.110734
    7  C          -0.719184   -1.245669   -0.464769
    8  H          -0.739111   -1.281338   -1.567503
    9  H          -0.218196   -2.160200   -0.110105
   10  H          -1.762023   -1.269362   -0.110826
   11  C          -0.719184    1.245669   -0.464769
   12  H          -0.739111    1.281338   -1.567503
   13  H          -1.762023    1.269362   -0.110826
   14  H          -0.218196    2.160200   -0.110105
   Point Group: c1    Number of degrees of freedom:  36


   Energy is   -156.486359201

 Hessian Updated using BFGS Update

 18 Hessian modes will be used to form the next step
  Hessian Eigenvalues:
     0.004505    0.039613    0.048894    0.053850    0.055083    0.055784
     0.137054    0.160000    0.163403    0.168913    0.289360    0.320094
     0.330661    0.337273    0.338949    0.340545    0.340546    0.349570

 Minimum Search - Taking Simple RFO Step
 Searching for Lamda that Minimizes Along All modes
 Value Taken    Lamda =  -0.00000298
 Step Taken.  Stepsize is  0.005768

                             Maximum     Tolerance    Cnvgd?
         Gradient           0.000411      0.000300      NO
         Displacement       0.003887      0.001200      NO
         Energy change     -0.000036      0.000001      NO


 New Cartesian Coordinates Obtained by Inverse Iteration

 Displacement from previous Coordinates is:  0.006266
 Writing REM_CC_EA           14
 ----------------------------------------------------
       Standard Nuclear Orientation (Angstroms)
    I     Atom         X            Y            Z
 ----------------------------------------------------
    1      C      -0.000039     0.000000     0.006951
    2      H      -0.000039     0.000000     1.112747
    3      C       1.437760     0.000000    -0.464649
    4      H       1.478308     0.000000    -1.567577
    5      H       1.980540     0.890912    -0.111517
    6      H       1.980540    -0.890912    -0.111517
    7      C      -0.718963    -1.245292    -0.464390
    8      H      -0.738865    -1.281068    -1.567331
    9      H      -0.218665    -2.160480    -0.110791
   10      H      -1.762041    -1.269976    -0.111586
   11      C      -0.718963     1.245292    -0.464390
   12      H      -0.738865     1.281068    -1.567331
   13      H      -1.762041     1.269976    -0.111586
   14      H      -0.218665     2.160480    -0.110791
 ----------------------------------------------------
 Nuclear Repulsion Energy =   135.2895208405 hartrees
 There are       17 alpha and       17 beta electrons
 Applying Cartesian multipole field
    Component          Value
    ---------          -----
     (2,0,0)        1.00000E-11
     (0,2,0)        2.00000E-11
     (0,0,2)       -3.00000E-11
 Nucleus-field energy     =     0.0000000025 hartrees
 Requested basis set is G3large
 There are 100 shells and 268 basis functions
 A cutoff of  1.0D-11 yielded   4864 shell pairs
 There are  35020 function pairs ( 41722 Cartesian)
Evaluating contribution to one-electron hamiltonian from nuclear
 Smallest overlap matrix eigenvalue = 2.95E-05
 Multipole matrices computed through 2nd order
 Guess MOs from SCF MO coefficient file
Reading MOs from coefficient file
Reading MOs from coefficient file
 A restricted hybrid HF-DFT SCF calculation will be
 performed using Pulay DIIS extrapolation
 Exchange:     1.0000 Hartree-Fock + 1.0000 BNL
 Correlation:  1.0000 LYP
 Using SG-1 standard quadrature grid
 SCF converges when DIIS error is below 1.0E-08
 ---------------------------------------
  Cycle       Energy         DIIS Error
 ---------------------------------------
    1    -156.4861736108      1.90E-05
    2    -156.4863604076      2.83E-06
    3    -156.4863603613      1.89E-06
    4    -156.4863605432      3.07E-07
    5    -156.4863605276      1.11E-07
    6    -156.4863605357      2.62E-08
    7    -156.4863605306      9.86E-09 Convergence criterion met
 ---------------------------------------
 One-Electron    Energy =  -478.9110390721
 Total Coulomb   Energy =   210.4359662494
 Alpha Exchange  Energy =    -2.9931696975
 Beta  Exchange  Energy =    -2.9931696975
 DFT   Exchange  Energy =   -16.2416292756
 DFT Correlation Energy =    -1.0728398803
 Nuclear Repu.   Energy =   135.2895208430
 Nuclear Attr.   Energy =  -634.3762838573
 Kinetic         Energy =   155.4652447853
 SCF time:  CPU 235.19 s  wall 236.52 s
 Final Alpha MO Eigenvalues
            1           2           3           4           5           6
    1  -9.9428489  -9.9267366  -9.9267295  -9.9267044  -0.9233842  -0.7920524
            7           8           9          10          11          12
    1  -0.7920296  -0.6665207  -0.5781096  -0.5403923  -0.5403690  -0.4816901
           13          14          15          16          17          18
    1  -0.4816728  -0.4565520  -0.4270853  -0.4270488  -0.4143478   0.0311568
           19          20          21          22
    1   0.0505736   0.0508355   0.0508370   0.0736769
 Analysis of SCF Wavefunction
 
 --------------------------------------------------------------
                    Orbital Energies (a.u.)
 --------------------------------------------------------------
 
 Alpha MOs
 -- Occupied --
 -9.943  -9.927  -9.927  -9.927  -0.923  -0.792  -0.792  -0.667
 -0.578  -0.540  -0.540  -0.482  -0.482  -0.457  -0.427  -0.427
 -0.414
 -- Virtual --
  0.031   0.051   0.051   0.051   0.074   0.074   0.078   0.088
  0.088   0.109   0.123   0.147   0.147   0.157   0.157   0.163
  0.169   0.185   0.185   0.186   0.204   0.204   0.209   0.210
  0.222   0.225   0.270   0.271   0.275   0.287   0.287   0.312
  0.314   0.357   0.357   0.370   0.370   0.382   0.456   0.480
  0.480   0.551   0.551   0.551   0.569   0.580   0.580   0.630
  0.633   0.637   0.637   0.650   0.650   0.653   0.670   0.693
  0.693   0.722   0.726   0.726   0.765   0.765   0.786   0.802
  0.835   0.835   0.908   0.939   0.939   0.956   1.001   1.002
  1.056   1.057   1.106   1.106   1.159   1.159   1.193   1.220
  1.234   1.234   1.238   1.278   1.278   1.336   1.366   1.366
  1.381   1.381   1.411   1.430   1.430   1.437   1.437   1.438
  1.466   1.483   1.483   1.552   1.552   1.552   1.574   1.635
  1.660   1.660   1.684   1.688   1.703   1.703   1.737   1.737
  1.803   1.812   1.812   2.512   2.512   2.626   2.657   2.657
  2.678   2.757   2.816   2.816   2.831   2.831   2.865   2.915
  2.947   2.947   3.015   3.036   3.036   3.040   3.040   3.074
  3.133   3.133   3.153   3.223   3.223   3.263   3.355   3.366
  3.366   3.372   3.414   3.415   3.445   3.451   3.490   3.490
  3.555   3.566   3.567   3.642   3.652   3.653   3.679   3.679
  3.707   3.790   3.831   3.831   3.862   3.862   3.940   3.940
  3.995   4.043   4.043   4.066   4.078   4.093   4.093   4.134
  4.167   4.168   4.286   4.302   4.309   4.309   4.340   4.360
  4.360   4.378   4.378   4.397   4.496   4.502   4.503   4.593
  4.623   4.623   4.726   4.726   4.737   4.744   4.744   4.804
  4.874   4.874   4.909   4.988   4.989   5.422   5.514   5.514
  5.675   5.754   5.754   5.784   5.788   5.794   5.794  24.241
 24.404  24.405  24.560  27.734  27.735  28.030  28.182  28.182
 28.194  28.237  28.260  28.260  28.470  28.567  28.567  40.937
 40.969  40.975  40.981  40.998  41.005  41.015  41.021  41.262
 41.265  41.266  41.272  41.274  41.280  41.294  41.297  41.328
 41.354  41.365  41.414
 --------------------------------------------------------------
 
          Ground-State Mulliken Net Atomic Charges

     Atom                 Charge (a.u.)
  ----------------------------------------
      1 C                     0.096015
      2 H                     0.113248
      3 C                    -0.447547
      4 H                     0.130129
      5 H                     0.123865
      6 H                     0.123865
      7 C                    -0.447592
      8 H                     0.130094
      9 H                     0.123902
     10 H                     0.123809
     11 C                    -0.447592
     12 H                     0.130094
     13 H                     0.123809
     14 H                     0.123902
  ----------------------------------------
  Sum of atomic charges =     0.000000

 -----------------------------------------------------------------
                    Cartesian Multipole Moments
 -----------------------------------------------------------------
    Charge (ESU x 10^10)
                 0.0000
    Dipole Moment (Debye)
         X       0.0002      Y       0.0000      Z       0.1362
       Tot       0.1362
    Quadrupole Moments (Debye-Ang)
        XX     -29.6684     XY       0.0000     YY     -29.6703
        XZ       0.0003     YZ       0.0000     ZZ     -29.1968
    Octapole Moments (Debye-Ang^2)
       XXX      -2.0081    XXY       0.0000    XYY       2.0085
       YYY       0.0000    XXZ      12.5589    XYZ       0.0000
       YYZ      12.5587    XZZ       0.0021    YZZ       0.0000
       ZZZ      31.6385
    Hexadecapole Moments (Debye-Ang^3)
      XXXX    -223.2051   XXXY       0.0000   XXYY     -74.4079
      XYYY       0.0000   YYYY    -223.2709   XXXZ      -0.4989
      XXYZ       0.0000   XYYZ       0.5155   YYYZ       0.0000
      XXZZ     -55.8879   XYZZ       0.0000   YYZZ     -55.8861
      XZZZ       0.0058   YZZZ       0.0000   ZZZZ     -93.8307
 -----------------------------------------------------------------
 Calculating analytic gradient of the SCF energy
 Gradient of AOints
            1           2           3           4           5           6
    1  -0.0057068   0.0017544  -4.3159576  -0.8017267  -2.1268508  -2.1268508
    2   0.0000000  -0.0000003   0.0000002   0.0000001  -2.5286849   2.5286848
    3  -1.3576818  -3.8403306   0.2788226   3.3136342  -0.9293585  -0.9293589
            7           8           9          10          11          12
    1   2.1623172   0.3993085  -1.1275896   3.2536330   2.1623173   0.3993087
    2   3.7345435   0.6971271   3.1053359   0.5782066  -3.7345436  -0.6971271
    3   0.2772999   3.3131957  -0.9304390  -0.9279200   0.2773000   3.3131956
           13          14
    1   3.2536330  -1.1275898
    2  -0.5782066  -3.1053359
    3  -0.9279204  -0.9304389
 Gradient of XC Energy
            1           2           3           4           5           6
    1   0.0000695  -0.0000328  -0.0318137   0.0090855   0.0793096   0.0793096
    2  -0.0000000   0.0000000  -0.0000000  -0.0000000   0.1261776  -0.1261776
    3  -0.0185819   0.1527008   0.0106847  -0.1539066   0.0492461   0.0492461
            7           8           9          10          11          12
    1   0.0157850  -0.0044891   0.0696602  -0.1489200   0.0157850  -0.0044891
    2   0.0276790  -0.0079625  -0.1317792  -0.0056050  -0.0276790   0.0079625
    3   0.0106724  -0.1538814   0.0493229   0.0491915   0.0106724  -0.1538814
           13          14
    1  -0.1489200   0.0696602
    2   0.0056050   0.1317792
    3   0.0491915   0.0493229
 Gradient of SCF Energy
            1           2           3           4           5           6
    1  -0.0000003   0.0000021   0.0000781  -0.0000116  -0.0000075  -0.0000075
    2   0.0000000   0.0000000  -0.0000000   0.0000000  -0.0000026   0.0000026
    3  -0.0000006   0.0000570  -0.0000312  -0.0000093   0.0000063   0.0000063
            7           8           9          10          11          12
    1  -0.0000370   0.0000032   0.0000011   0.0000060  -0.0000370   0.0000032
    2  -0.0000644   0.0000090   0.0000078   0.0000034   0.0000644  -0.0000090
    3  -0.0000240  -0.0000073   0.0000079   0.0000092  -0.0000240  -0.0000073
           13          14
    1   0.0000060   0.0000011
    2  -0.0000034  -0.0000078
    3   0.0000092   0.0000079
 Max gradient component =       7.810E-05
 RMS gradient           =       2.378E-05
 Gradient time:  CPU 191.20 s  wall 191.49 s
 Geometry Optimization Parameters
   NAtoms,    NIC,     NZ,  NCons,   NDum,   NFix, NCnnct, MaxDiis
       14      92      17       0       0       0       0       0

 Cartesian Hessian Update
 Hessian Updated using BFGS Update


** GEOMETRY OPTIMIZATION IN DELOCALIZED INTERNAL COORDINATES **
   Searching for a Minimum

   Optimization Cycle:   4

                       Coordinates (Angstroms)
     ATOM              X           Y           Z
    1  C          -0.000039    0.000000    0.006951
    2  H          -0.000039    0.000000    1.112747
    3  C           1.437760    0.000000   -0.464649
    4  H           1.478308    0.000000   -1.567577
    5  H           1.980540    0.890912   -0.111517
    6  H           1.980540   -0.890912   -0.111517
    7  C          -0.718963   -1.245292   -0.464390
    8  H          -0.738865   -1.281068   -1.567331
    9  H          -0.218665   -2.160480   -0.110791
   10  H          -1.762041   -1.269976   -0.111586
   11  C          -0.718963    1.245292   -0.464390
   12  H          -0.738865    1.281068   -1.567331
   13  H          -1.762041    1.269976   -0.111586
   14  H          -0.218665    2.160480   -0.110791
   Point Group: c1    Number of degrees of freedom:  36


   Energy is   -156.486360531

 Hessian Updated using BFGS Update

 23 Hessian modes will be used to form the next step
  Hessian Eigenvalues:
     0.004505    0.040317    0.048893    0.053103    0.055083    0.055785
     0.055785    0.055786    0.126489    0.159996    0.160005    0.163173
     0.168915    0.168917    0.289364    0.289376    0.318948    0.335881
     0.338945    0.339427    0.340545    0.340557    0.350504

 Minimum Search - Taking Simple RFO Step
 Searching for Lamda that Minimizes Along All modes
 Value Taken    Lamda =   0.00000000
 Step Taken.  Stepsize is  0.000641

                             Maximum     Tolerance    Cnvgd?
         Gradient           0.000070      0.000300     YES
         Displacement       0.000458      0.001200     YES
         Energy change     -0.000001      0.000001      NO


                       Distance Matrix (Angstroms)
             C (  1)   H (  2)   C (  3)   H (  4)   H (  5)   H (  6)
   H (  2)  1.105796
   C (  3)  1.513166  2.134348
   H (  4)  2.159779  3.060987  1.103673
   H (  5)  2.174959  2.493037  1.101379  1.779345
   H (  6)  2.174959  2.493037  1.101379  1.779345  1.781823
   C (  7)  1.513197  2.134236  2.490422  2.756043  3.460520  2.745436
   H (  8)  2.159946  3.061016  2.755855  2.560662  3.772539  3.109145
   H (  9)  2.174704  2.492493  2.745293  3.109600  3.761315  2.539351
   H ( 10)  2.175211  2.493288  3.460667  3.772613  4.321614  3.761729
   C ( 11)  1.513197  2.134236  2.490422  2.756043  2.745436  3.460520
   H ( 12)  2.159946  3.061016  2.755856  2.560662  3.109145  3.772540
   H ( 13)  2.175211  2.493288  3.460667  3.772613  3.761729  4.321614
   H ( 14)  2.174704  2.492493  2.745293  3.109600  2.539351  3.761315
             C (  7)   H (  8)   H (  9)   H ( 10)   C ( 11)   H ( 12)
   H (  8)  1.103701
   H (  9)  1.101318  1.779180
   H ( 10)  1.101405  1.779383  1.781856
   C ( 11)  2.490583  2.756695  3.460435  2.745734
   H ( 12)  2.756695  2.562136  3.773112  3.110290  1.103701
   H ( 13)  2.745734  3.110291  3.761654  2.539952  1.101405  1.779383
   H ( 14)  3.460435  3.773112  4.320961  3.761654  1.101318  1.779180
             H ( 13)
   H ( 14)  1.781856
 


 ******************************
 **  OPTIMIZATION CONVERGED  **
 ******************************
 Analysis of SCF Wavefunction
 
 --------------------------------------------------------------
                    Orbital Energies (a.u.)
 --------------------------------------------------------------
 
 Alpha MOs
 -- Occupied --
 -9.943  -9.927  -9.927  -9.927  -0.923  -0.792  -0.792  -0.667
 -0.578  -0.540  -0.540  -0.482  -0.482  -0.457  -0.427  -0.427
 -0.414
 -- Virtual --
  0.031   0.051   0.051   0.051   0.074   0.074   0.078   0.088
  0.088   0.109   0.123   0.147   0.147   0.157   0.157   0.163
  0.169   0.185   0.185   0.186   0.204   0.204   0.209   0.210
  0.222   0.225   0.270   0.271   0.275   0.287   0.287   0.312
  0.314   0.357   0.357   0.370   0.370   0.382   0.456   0.480
  0.480   0.551   0.551   0.551   0.569   0.580   0.580   0.630
  0.633   0.637   0.637   0.650   0.650   0.653   0.670   0.693
  0.693   0.722   0.726   0.726   0.765   0.765   0.786   0.802
  0.835   0.835   0.908   0.939   0.939   0.956   1.001   1.002
  1.056   1.057   1.106   1.106   1.159   1.159   1.193   1.220
  1.234   1.234   1.238   1.278   1.278   1.336   1.366   1.366
  1.381   1.381   1.411   1.430   1.430   1.437   1.437   1.438
  1.466   1.483   1.483   1.552   1.552   1.552   1.574   1.635
  1.660   1.660   1.684   1.688   1.703   1.703   1.737   1.737
  1.803   1.812   1.812   2.512   2.512   2.626   2.657   2.657
  2.678   2.757   2.816   2.816   2.831   2.831   2.865   2.915
  2.947   2.947   3.015   3.036   3.036   3.040   3.040   3.074
  3.133   3.133   3.153   3.223   3.223   3.263   3.355   3.366
  3.366   3.372   3.414   3.415   3.445   3.451   3.490   3.490
  3.555   3.566   3.567   3.642   3.652   3.653   3.679   3.679
  3.707   3.790   3.831   3.831   3.862   3.862   3.940   3.940
  3.995   4.043   4.043   4.066   4.078   4.093   4.093   4.134
  4.167   4.168   4.286   4.302   4.309   4.309   4.340   4.360
  4.360   4.378   4.378   4.397   4.496   4.502   4.503   4.593
  4.623   4.623   4.726   4.726   4.737   4.744   4.744   4.804
  4.874   4.874   4.909   4.988   4.989   5.422   5.514   5.514
  5.675   5.754   5.754   5.784   5.788   5.794   5.794  24.241
 24.404  24.405  24.560  27.734  27.735  28.030  28.182  28.182
 28.194  28.237  28.260  28.260  28.470  28.567  28.567  40.937
 40.969  40.975  40.981  40.998  41.005  41.015  41.021  41.262
 41.265  41.266  41.272  41.274  41.280  41.294  41.297  41.328
 41.354  41.365  41.414
 --------------------------------------------------------------
 
          Ground-State Mulliken Net Atomic Charges

     Atom                 Charge (a.u.)
  ----------------------------------------
      1 C                     0.096015
      2 H                     0.113248
      3 C                    -0.447547
      4 H                     0.130129
      5 H                     0.123865
      6 H                     0.123865
      7 C                    -0.447592
      8 H                     0.130094
      9 H                     0.123902
     10 H                     0.123809
     11 C                    -0.447592
     12 H                     0.130094
     13 H                     0.123809
     14 H                     0.123902
  ----------------------------------------
  Sum of atomic charges =     0.000000

 -----------------------------------------------------------------
                    Cartesian Multipole Moments
 -----------------------------------------------------------------
    Charge (ESU x 10^10)
                 0.0000
    Dipole Moment (Debye)
         X       0.0002      Y       0.0000      Z       0.1362
       Tot       0.1362
    Quadrupole Moments (Debye-Ang)
        XX     -29.6684     XY       0.0000     YY     -29.6703
        XZ       0.0003     YZ       0.0000     ZZ     -29.1968
    Octapole Moments (Debye-Ang^2)
       XXX      -2.0081    XXY       0.0000    XYY       2.0085
       YYY       0.0000    XXZ      12.5589    XYZ       0.0000
       YYZ      12.5587    XZZ       0.0021    YZZ       0.0000
       ZZZ      31.6385
    Hexadecapole Moments (Debye-Ang^3)
      XXXX    -223.2051   XXXY       0.0000   XXYY     -74.4079
      XYYY       0.0000   YYYY    -223.2709   XXXZ      -0.4989
      XXYZ       0.0000   XYYZ       0.5155   YYYZ       0.0000
      XXZZ     -55.8879   XYZZ       0.0000   YYZZ     -55.8861
      XZZZ       0.0058   YZZZ       0.0000   ZZZZ     -93.8307
 -----------------------------------------------------------------
 Total job time:  1984.79s(wall), 1976.20s(cpu) 
 Sat Apr 23 18:06:41 2011

        *************************************************************
        *                                                           *
        *  Thank you very much for using Q-Chem.  Have a nice day.  *
        *                                                           *
        *************************************************************


0 sent ACK to 0 
now end server 0 ... 
 
**********************************************************************
Job 2 of 2 
**********************************************************************
 
Process 0 of 1 is on cl257.stfx.acenet.ca - thread support 1
initial socket setup ...start
initial socket setup ...done 
now start server 0 ... 

cmd = /usr/bin/ssh clhead /usr/local/qchem/bin/get_hostid 457396635 > /scratch/tmp/4506632.1.long.q/qchem19248/lic.dat
                  Welcome to Q-Chem
     A Quantum Leap Into The Future Of Chemistry

 Y. Shao, L. Fusti-Molnar, Y. Jung, J. Kussmann, C. Ochsenfeld,
 S. T. Brown, A. T. B. Gilbert, L. V. Slipchenko,S. V. Levchenko,
 D. P. O'Neill, R. A. DiStasio Jr., R. C. Lochan, T. Wang,
 G. J. O. Beran, N. A. Besley, J. M. Herbert, C. Y. Lin,
 T. Van Voorhis, S. H. Chien, A. Sodt, R. P. Steele, 
 V. A. Rassolov, P. E. Maslen, P. P. Korambath, R. D. Adamson,
 B. Austin, J. Baker, E. F. C. Byrd, H. Dachsel, R. J. Doerksen,
 A. Dreuw, B. D. Dunietz, A. D. Dutoi, T. R. Furlani,
 S. R. Gwaltney, A. Heyden, S. Hirata, C.-P. Hsu, G. Kedziora,
 R. Z. Khaliullin, P. Klunzinger, A. M. Lee, M. S. Lee, W. Liang,
 I. Lotan, N. Nair, B. Peters, E. I. Proynov, P. A. Pieniazek, 
 Y. M. Rhee, J. Ritchie, E. Rosta, C. D. Sherrill, 
 A. C. Simmonett, J. E. Subotnik, H. L. Woodcock III,
 W. Zhang, A. T. Bell, A. K. Chakraborty, D. M. Chipman,
 F. J. Keil, A. Warshel, W. J. Hehre, H. F. Schaefer III,
 J. Kong, A. I. Krylov, P. M. W. Gill, M. Head-Gordon,
 Q-Chem, Version 3.1, Q-Chem, Inc., Pittsburgh, PA (2007).

 Additional authors for Version 3.1: 
 Z. Gan, Y. Zhao, N. E. Schultz, D. Truhlar, E. Epifanovsky and M. Oana.

 Additional authors for Version 3.2: 
 R. Baer, B. R. Brooks, D. Casanova, J.-D. Chai, C.-L. Cheng, 
 C. Cramer, D. Crittenden, A. Ghysels, G. Hawkins, E. G. Hohenstein, 
 C. Kelley, W. Kurlancheek, D. Liotard, E. Livshits, P. Manohar, 
 A. Marenich, D. Neuhauser, R. Olson, M. A. Rohrdanz, K. S. Thanthiriwatte, 
 A. J. W. Thom, V. Vanovschi, C. F. Williams, Q. Wu and Z.-Q. You. 


 Intel X86 Linux Version

 Q-chem begins on Sat Apr 23 18:06:44 2011  

 Parallel job on  1  processors
Processing $rem in /usr/local/qchem/config/preferences.

theFileMan(): MAXOPENFILES=974 MAX_SUB_FILE_NUM=16
Maximum size of a physical file is 2.0 GB, maximum size of a tmp-file is 32.0 GB


--------------------------------------------------------------
User input:
--------------------------------------------------------------

$molecule 
READ 
$end 

$xc_functional
   X HF 1.0
   X BNL 1.0
   C LYP 1.0
$end

$rem
SYMMETRY_DECOMPOSITION	0
exchange 		general
BASIS                   g3large
omega			350 
JOBTYPE                 freq
IDERIV 1
SCF_GUESS READ
separate_jk		true
mem_static              760
max_scf_cycles          200
scf_final_print         1
sym_ignore              true
$end

--------------------------------------------------------------
 Writing REM_CC_EA           14
 ----------------------------------------------------
       Standard Nuclear Orientation (Angstroms)
    I     Atom         X            Y            Z
 ----------------------------------------------------
    1      C      -0.000039     0.000000     0.006951
    2      H      -0.000039     0.000000     1.112747
    3      C       1.437760     0.000000    -0.464649
    4      H       1.478308     0.000000    -1.567577
    5      H       1.980540     0.890912    -0.111517
    6      H       1.980540    -0.890912    -0.111517
    7      C      -0.718963    -1.245292    -0.464390
    8      H      -0.738865    -1.281068    -1.567331
    9      H      -0.218665    -2.160480    -0.110791
   10      H      -1.762041    -1.269976    -0.111586
   11      C      -0.718963     1.245292    -0.464390
   12      H      -0.738865     1.281068    -1.567331
   13      H      -1.762041     1.269976    -0.111586
   14      H      -0.218665     2.160480    -0.110791
 ----------------------------------------------------
 Nuclear Repulsion Energy =   135.2895208405 hartrees
 There are       17 alpha and       17 beta electrons
 Requested basis set is G3large
 There are 100 shells and 268 basis functions

Total QAlloc Memory Limit   2000 MB
Mega-Array Size       759 MB
MEM_STATIC part       760 MB

                       Distance Matrix (Angstroms)
             C (  1)   H (  2)   C (  3)   H (  4)   H (  5)   H (  6)
   H (  2)  1.105796
   C (  3)  1.513166  2.134348
   H (  4)  2.159779  3.060987  1.103673
   H (  5)  2.174959  2.493037  1.101379  1.779345
   H (  6)  2.174959  2.493037  1.101379  1.779345  1.781823
   C (  7)  1.513197  2.134236  2.490422  2.756043  3.460520  2.745436
   H (  8)  2.159946  3.061016  2.755855  2.560662  3.772539  3.109145
   H (  9)  2.174704  2.492493  2.745293  3.109600  3.761315  2.539351
   H ( 10)  2.175211  2.493288  3.460667  3.772613  4.321614  3.761729
   C ( 11)  1.513197  2.134236  2.490422  2.756043  2.745436  3.460520
   H ( 12)  2.159946  3.061016  2.755856  2.560662  3.109145  3.772540
   H ( 13)  2.175211  2.493288  3.460667  3.772613  3.761729  4.321614
   H ( 14)  2.174704  2.492493  2.745293  3.109600  2.539351  3.761315
             C (  7)   H (  8)   H (  9)   H ( 10)   C ( 11)   H ( 12)
   H (  8)  1.103701
   H (  9)  1.101318  1.779180
   H ( 10)  1.101405  1.779383  1.781856
   C ( 11)  2.490583  2.756695  3.460435  2.745734
   H ( 12)  2.756695  2.562136  3.773112  3.110290  1.103701
   H ( 13)  2.745734  3.110291  3.761654  2.539952  1.101405  1.779383
   H ( 14)  3.460435  3.773112  4.320961  3.761654  1.101318  1.779180
             H ( 13)
   H ( 14)  1.781856
 
 A cutoff of  1.0D-11 yielded   4864 shell pairs
 There are  35020 function pairs ( 41722 Cartesian)
Evaluating contribution to one-electron hamiltonian from nuclear
 Smallest overlap matrix eigenvalue = 2.95E-05
 Multipole matrices computed through 2nd order
 Guess MOs from SCF MO coefficient file
Reading MOs from coefficient file
Reading MOs from coefficient file
 A restricted hybrid HF-DFT SCF calculation will be
 performed using Pulay DIIS extrapolation
 Exchange:     1.0000 Hartree-Fock + 1.0000 BNL
 Correlation:  1.0000 LYP
 Using SG-1 standard quadrature grid
 SCF converges when DIIS error is below 1.0E-08
 ---------------------------------------
  Cycle       Energy         DIIS Error
 ---------------------------------------
    1    -156.4863605473      1.88E-09
    2    -156.4863605448      1.16E-09 Convergence criterion met
 ---------------------------------------
 One-Electron    Energy =  -478.9110293177
 Total Coulomb   Energy =   210.4359556538
 Alpha Exchange  Energy =    -2.9931696591
 Beta  Exchange  Energy =    -2.9931696591
 DFT   Exchange  Energy =   -16.2416285560
 DFT Correlation Energy =    -1.0728398472
 Nuclear Repu.   Energy =   135.2895208405
 Nuclear Attr.   Energy =  -634.3762686898
 Kinetic         Energy =   155.4652393721
 SCF time:  CPU 81.40 s  wall 81.89 s
 Final Alpha MO Eigenvalues
            1           2           3           4           5           6
    1  -9.9428489  -9.9267367  -9.9267296  -9.9267045  -0.9233842  -0.7920525
            7           8           9          10          11          12
    1  -0.7920297  -0.6665207  -0.5781096  -0.5403923  -0.5403691  -0.4816901
           13          14          15          16          17          18
    1  -0.4816728  -0.4565520  -0.4270853  -0.4270489  -0.4143478   0.0311568
           19          20          21          22
    1   0.0505736   0.0508355   0.0508370   0.0736770
 Analysis of SCF Wavefunction
 
 --------------------------------------------------------------
                    Orbital Energies (a.u.)
 --------------------------------------------------------------
 
 Alpha MOs
 -- Occupied --
 -9.943  -9.927  -9.927  -9.927  -0.923  -0.792  -0.792  -0.667
 -0.578  -0.540  -0.540  -0.482  -0.482  -0.457  -0.427  -0.427
 -0.414
 -- Virtual --
  0.031   0.051   0.051   0.051   0.074   0.074   0.078   0.088
  0.088   0.109   0.123   0.147   0.147   0.157   0.157   0.163
  0.169   0.185   0.185   0.186   0.204   0.204   0.209   0.210
  0.222   0.225   0.270   0.271   0.275   0.287   0.287   0.312
  0.314   0.357   0.357   0.370   0.370   0.382   0.456   0.480
  0.480   0.551   0.551   0.551   0.569   0.580   0.580   0.630
  0.633   0.637   0.637   0.650   0.650   0.653   0.670   0.693
  0.693   0.722   0.726   0.726   0.765   0.765   0.786   0.802
  0.835   0.835   0.908   0.939   0.939   0.956   1.001   1.002
  1.056   1.057   1.106   1.106   1.159   1.159   1.193   1.220
  1.234   1.234   1.238   1.278   1.278   1.336   1.366   1.366
  1.381   1.381   1.411   1.430   1.430   1.437   1.437   1.438
  1.466   1.483   1.483   1.552   1.552   1.552   1.574   1.635
  1.660   1.660   1.684   1.688   1.703   1.703   1.737   1.737
  1.803   1.812   1.812   2.512   2.512   2.626   2.657   2.657
  2.678   2.757   2.816   2.816   2.831   2.831   2.865   2.915
  2.947   2.947   3.015   3.036   3.036   3.040   3.040   3.074
  3.133   3.133   3.153   3.223   3.223   3.263   3.355   3.366
  3.366   3.372   3.414   3.415   3.445   3.451   3.490   3.490
  3.555   3.566   3.567   3.642   3.652   3.653   3.679   3.679
  3.707   3.790   3.831   3.831   3.862   3.862   3.940   3.940
  3.995   4.043   4.043   4.066   4.078   4.093   4.093   4.134
  4.167   4.168   4.286   4.302   4.309   4.309   4.340   4.360
  4.360   4.378   4.378   4.397   4.496   4.502   4.503   4.593
  4.623   4.623   4.726   4.726   4.737   4.744   4.744   4.804
  4.874   4.874   4.909   4.988   4.989   5.422   5.514   5.514
  5.675   5.754   5.754   5.784   5.788   5.794   5.794  24.241
 24.404  24.405  24.560  27.734  27.735  28.030  28.182  28.182
 28.194  28.237  28.260  28.260  28.470  28.567  28.567  40.937
 40.969  40.975  40.981  40.998  41.005  41.015  41.021  41.262
 41.265  41.266  41.272  41.274  41.280  41.294  41.297  41.328
 41.354  41.365  41.414
 --------------------------------------------------------------
 
          Ground-State Mulliken Net Atomic Charges

     Atom                 Charge (a.u.)
  ----------------------------------------
      1 C                     0.096015
      2 H                     0.113248
      3 C                    -0.447547
      4 H                     0.130129
      5 H                     0.123865
      6 H                     0.123865
      7 C                    -0.447592
      8 H                     0.130094
      9 H                     0.123901
     10 H                     0.123809
     11 C                    -0.447592
     12 H                     0.130094
     13 H                     0.123809
     14 H                     0.123901
  ----------------------------------------
  Sum of atomic charges =     0.000000

 -----------------------------------------------------------------
                    Cartesian Multipole Moments
 -----------------------------------------------------------------
    Charge (ESU x 10^10)
                 0.0000
    Dipole Moment (Debye)
         X       0.0002      Y       0.0000      Z       0.1362
       Tot       0.1362
    Quadrupole Moments (Debye-Ang)
        XX     -29.6684     XY       0.0000     YY     -29.6703
        XZ       0.0003     YZ       0.0000     ZZ     -29.1968
    Octapole Moments (Debye-Ang^2)
       XXX      -2.0081    XXY       0.0000    XYY       2.0085
       YYY       0.0000    XXZ      12.5589    XYZ       0.0000
       YYZ      12.5587    XZZ       0.0021    YZZ       0.0000
       ZZZ      31.6385
    Hexadecapole Moments (Debye-Ang^3)
      XXXX    -223.2050   XXXY       0.0000   XXYY     -74.4079
      XYYY       0.0000   YYYY    -223.2709   XXXZ      -0.4989
      XXYZ       0.0000   XYYZ       0.5155   YYYZ       0.0000
      XXZZ     -55.8879   XYZZ       0.0000   YYZZ     -55.8861
      XZZZ       0.0058   YZZZ       0.0000   ZZZZ     -93.8307
 -----------------------------------------------------------------
 Calculating analytic gradient of the SCF energy
 Gradient of AOints
            1           2           3           4           5           6
    1  -0.0057077   0.0017545  -4.3159563  -0.8017277  -2.1268509  -2.1268510
    2  -0.0000001  -0.0000002   0.0000003   0.0000000  -2.5286852   2.5286852
    3  -1.3576770  -3.8403311   0.2788217   3.3136347  -0.9293590  -0.9293594
            7           8           9          10          11          12
    1   2.1623168   0.3993092  -1.1275898   3.2536333   2.1623170   0.3993093
    2   3.7345419   0.6971280   3.1053363   0.5782066  -3.7345419  -0.6971280
    3   0.2772991   3.3131961  -0.9304394  -0.9279206   0.2772991   3.3131961
           13          14
    1   3.2536333  -1.1275899
    2  -0.5782066  -3.1053363
    3  -0.9279210  -0.9304393
 Gradient of XC Energy
            1           2           3           4           5           6
    1   0.0000695  -0.0000328  -0.0318138   0.0090856   0.0793096   0.0793096
    2   0.0000000   0.0000000  -0.0000000  -0.0000000   0.1261776  -0.1261776
    3  -0.0185820   0.1527009   0.0106847  -0.1539066   0.0492461   0.0492461
            7           8           9          10          11          12
    1   0.0157850  -0.0044891   0.0696602  -0.1489200   0.0157850  -0.0044891
    2   0.0276791  -0.0079625  -0.1317792  -0.0056050  -0.0276791   0.0079625
    3   0.0106724  -0.1538814   0.0493229   0.0491915   0.0106724  -0.1538814
           13          14
    1  -0.1489200   0.0696602
    2   0.0056050   0.1317792
    3   0.0491915   0.0493229
 Gradient of SCF Energy
            1           2           3           4           5           6
    1  -0.0000003   0.0000021   0.0000781  -0.0000116  -0.0000075  -0.0000075
    2   0.0000000   0.0000000  -0.0000000   0.0000000  -0.0000026   0.0000026
    3  -0.0000006   0.0000570  -0.0000312  -0.0000093   0.0000063   0.0000063
            7           8           9          10          11          12
    1  -0.0000370   0.0000032   0.0000011   0.0000060  -0.0000370   0.0000032
    2  -0.0000644   0.0000090   0.0000078   0.0000034   0.0000644  -0.0000090
    3  -0.0000240  -0.0000073   0.0000079   0.0000092  -0.0000240  -0.0000073
           13          14
    1   0.0000060   0.0000011
    2  -0.0000034  -0.0000078
    3   0.0000092   0.0000079
 Max gradient component =       7.810E-05
 RMS gradient           =       2.378E-05
 Gradient time:  CPU 182.91 s  wall 183.23 s
 ######################################################
 ######################################################
 # Starting finite difference calculation for IDERIV  #
 Finite diff step size: 1.89e-03 a.u.
 Writing REM_CC_EA           14
 ----------------------------------------------------
       Standard Nuclear Orientation (Angstroms)
    I     Atom         X            Y            Z
 ----------------------------------------------------
    1      C       0.000961     0.000000     0.006951
    2      H      -0.000039     0.000000     1.112747
    3      C       1.437760     0.000000    -0.464649
    4      H       1.478308     0.000000    -1.567577
    5      H       1.980540     0.890912    -0.111517
    6      H       1.980540    -0.890912    -0.111517
    7      C      -0.718963    -1.245292    -0.464390
    8      H      -0.738865    -1.281068    -1.567331
    9      H      -0.218665    -2.160480    -0.110791
   10      H      -1.762041    -1.269976    -0.111586
   11      C      -0.718963     1.245292    -0.464390
   12      H      -0.738865     1.281068    -1.567331
   13      H      -1.762041     1.269976    -0.111586
   14      H      -0.218665     2.160480    -0.110791
 ----------------------------------------------------
 Nuclear Repulsion Energy =   135.2895237549 hartrees
 There are       17 alpha and       17 beta electrons

                       Distance Matrix (Angstroms)
             C (  1)   H (  2)   C (  3)   H (  4)   H (  5)   H (  6)
   H (  2)  1.105796
   C (  3)  1.512216  2.134348
   H (  4)  2.159095  3.060987  1.103673
   H (  5)  2.174049  2.493037  1.101379  1.779345
   H (  6)  2.174049  2.493037  1.101379  1.779345  1.781823
   C (  7)  1.513672  2.134236  2.490422  2.756043  3.460520  2.745436
   H (  8)  2.160288  3.061016  2.755855  2.560662  3.772539  3.109145
   H (  9)  2.174805  2.492493  2.745293  3.109600  3.761315  2.539351
   H ( 10)  2.176021  2.493288  3.460667  3.772613  4.321614  3.761729
   C ( 11)  1.513672  2.134236  2.490422  2.756043  2.745436  3.460520
   H ( 12)  2.160288  3.061016  2.755856  2.560662  3.109145  3.772540
   H ( 13)  2.176021  2.493288  3.460667  3.772613  3.761729  4.321614
   H ( 14)  2.174805  2.492493  2.745293  3.109600  2.539351  3.761315
             C (  7)   H (  8)   H (  9)   H ( 10)   C ( 11)   H ( 12)
   H (  8)  1.103701
   H (  9)  1.101318  1.779180
   H ( 10)  1.101405  1.779383  1.781856
   C ( 11)  2.490583  2.756695  3.460435  2.745734
   H ( 12)  2.756695  2.562136  3.773112  3.110290  1.103701
   H ( 13)  2.745734  3.110291  3.761654  2.539952  1.101405  1.779383
   H ( 14)  3.460435  3.773112  4.320961  3.761654  1.101318  1.779180
             H ( 13)
   H ( 14)  1.781856
 
 Requested basis set is G3large
 There are 100 shells and 268 basis functions
 A cutoff of  1.0D-11 yielded   4864 shell pairs
 There are  35020 function pairs ( 41722 Cartesian)
Evaluating contribution to one-electron hamiltonian from nuclear
 Smallest overlap matrix eigenvalue = 2.95E-05
 Multipole matrices computed through 2nd order
 Guess MOs from SCF MO coefficient file
Reading MOs from coefficient file
Reading MOs from coefficient file
 A restricted hybrid HF-DFT SCF calculation will be
 performed using Pulay DIIS extrapolation
 Exchange:     1.0000 Hartree-Fock + 1.0000 BNL
 Correlation:  1.0000 LYP
 Using SG-1 standard quadrature grid
 SCF converges when DIIS error is below 1.0E-08
 ---------------------------------------
  Cycle       Energy         DIIS Error
 ---------------------------------------
    1    -156.4863591253      2.29E-05
    2    -156.4863595234      2.53E-06
    3    -156.4863595690      1.48E-06
    4    -156.4863595908      3.01E-07
    5    -156.4863595907      7.05E-08
    6    -156.4863596284      9.09E-09 Convergence criterion met
 ---------------------------------------
 One-Electron    Energy =  -478.9110310532
 Total Coulomb   Energy =   210.4359554123
 Alpha Exchange  Energy =    -2.9931695973
 Beta  Exchange  Energy =    -2.9931695973
 DFT   Exchange  Energy =   -16.2416286669
 DFT Correlation Energy =    -1.0728398809
 Nuclear Repu.   Energy =   135.2895237549
 Nuclear Attr.   Energy =  -634.3762718007
 Kinetic         Energy =   155.4652407475
 SCF time:  CPU 207.03 s  wall 208.22 s
 Final Alpha MO Eigenvalues
            1           2           3           4           5           6
    1  -9.9428491  -9.9267392  -9.9267297  -9.9267019  -0.9233845  -0.7920903
            7           8           9          10          11          12
    1  -0.7919919  -0.6665207  -0.5781098  -0.5404475  -0.5403140  -0.4817127
           13          14          15          16          17          18
    1  -0.4816503  -0.4565521  -0.4272773  -0.4268577  -0.4143466   0.0311569
           19          20          21          22
    1   0.0505736   0.0508320   0.0508404   0.0736763
 Analysis of SCF Wavefunction
 
 --------------------------------------------------------------
                    Orbital Energies (a.u.)
 --------------------------------------------------------------
 
 Alpha MOs
 -- Occupied --
 -9.943  -9.927  -9.927  -9.927  -0.923  -0.792  -0.792  -0.667
 -0.578  -0.540  -0.540  -0.482  -0.482  -0.457  -0.427  -0.427
 -0.414
 -- Virtual --
  0.031   0.051   0.051   0.051   0.074   0.074   0.078   0.088
  0.088   0.109   0.123   0.147   0.147   0.157   0.157   0.163
  0.169   0.185   0.185   0.186   0.204   0.204   0.209   0.210
  0.222   0.225   0.270   0.271   0.275   0.287   0.287   0.312
[...]
 H          0.194 -0.086 -0.015   -0.120 -0.184 -0.008    0.228 -0.383 -0.049
 H          0.130  0.130 -0.052   -0.113 -0.447 -0.023   -0.009 -0.004 -0.217
 H          0.290 -0.135 -0.032   -0.382  0.022 -0.024    0.004  0.006 -0.210
 TransDip   0.000  0.001  0.000   -0.001  0.000  0.000    0.000  0.000 -0.020

 Mode:                 7                      8                      9
 Frequency:       830.02                 908.34                 908.61
 Force Cnst:      1.0342                 0.5643                 0.5639
 Red. Mass:       2.5478                 1.1609                 1.1593
 IR Active:          YES                    YES                    YES
 IR Intens:        1.241                  2.163                  2.208
 Raman Active:       YES                    YES                    YES
               X      Y      Z        X      Y      Z        X      Y      Z
 C          0.001  0.000  0.141   -0.026  0.001  0.001   -0.001 -0.026  0.000
 H         -0.002  0.000  0.140    0.382 -0.021  0.001    0.021  0.385  0.000
 C          0.198  0.000 -0.016   -0.006  0.002 -0.089    0.000 -0.034 -0.005
 H         -0.038  0.000 -0.027    0.547 -0.005 -0.063    0.030  0.085 -0.003
 H          0.320  0.000 -0.194   -0.149 -0.046  0.260   -0.167  0.043  0.063
 H          0.320  0.000 -0.194   -0.167  0.041  0.266    0.150  0.047 -0.034
 C         -0.099 -0.174 -0.017   -0.026  0.011  0.040    0.010 -0.012  0.078
 H          0.018  0.032 -0.028    0.191  0.178  0.028    0.214  0.442  0.055
 H         -0.161 -0.280 -0.192    0.083  0.027 -0.075   -0.088 -0.190 -0.254
 H         -0.159 -0.273 -0.190   -0.088 -0.189 -0.162   -0.085 -0.031 -0.211
 C         -0.099  0.174 -0.017   -0.025 -0.009  0.048   -0.013 -0.013 -0.073
 H          0.018 -0.032 -0.028    0.213 -0.225  0.034   -0.192  0.420 -0.052
 H         -0.159  0.273 -0.190   -0.096  0.191 -0.184    0.075 -0.010  0.192
 H         -0.161  0.280 -0.192    0.073 -0.006 -0.102    0.097 -0.192  0.244
 TransDip   0.000  0.000 -0.036    0.047 -0.003  0.000    0.003  0.048  0.000

 Mode:                10                     11                     12
 Frequency:       935.27                 986.03                 987.41
 Force Cnst:      0.6229                 0.9530                 0.9526
 Red. Mass:       1.2087                 1.6636                 1.6584
 IR Active:          YES                    YES                    YES
 IR Intens:        0.000                  0.904                  0.989
 Raman Active:       YES                    YES                    YES
               X      Y      Z        X      Y      Z        X      Y      Z
 C          0.000  0.001  0.000    0.000 -0.108  0.000   -0.109  0.000  0.001
 H          0.000  0.004  0.000    0.000 -0.296  0.000   -0.291  0.000  0.001
 C          0.000  0.079  0.000    0.000 -0.114  0.000    0.136  0.000 -0.011
 H          0.000 -0.167  0.000    0.000  0.155  0.000   -0.005  0.000 -0.021
 H          0.364 -0.113 -0.082   -0.416  0.104  0.096    0.225  0.007 -0.156
 H         -0.364 -0.113  0.081    0.417  0.104 -0.097    0.224 -0.007 -0.156
 C          0.067 -0.040  0.001    0.110  0.073  0.009   -0.053  0.107  0.006
 H         -0.146  0.086  0.000   -0.078  0.031  0.018    0.120 -0.071  0.010
 H         -0.277 -0.258 -0.083   -0.061  0.013  0.084    0.316  0.368  0.158
 H          0.082  0.364  0.079    0.163  0.377  0.184   -0.046 -0.267 -0.009
 C         -0.067 -0.040 -0.001   -0.110  0.073 -0.009   -0.053 -0.107  0.006
 H          0.146  0.087  0.000    0.078  0.031 -0.018    0.120  0.071  0.011
 H         -0.082  0.364 -0.079   -0.163  0.377 -0.184   -0.046  0.266 -0.009
 H          0.277 -0.258  0.084    0.062  0.012 -0.084    0.316 -0.367  0.159
 TransDip   0.000  0.000  0.000    0.000  0.030  0.000    0.032  0.000 -0.001

 Mode:                13                     14                     15
 Frequency:      1189.76                1189.90                1192.49
 Force Cnst:      1.3167                 1.3236                 1.6777
 Red. Mass:       1.5787                 1.5867                 2.0024
 IR Active:          YES                    YES                    YES
 IR Intens:        1.174                  1.283                  0.649
 Raman Active:       YES                    YES                    YES
               X      Y      Z        X      Y      Z        X      Y      Z
 C          0.002  0.163  0.000    0.163 -0.002 -0.021    0.020  0.000  0.228
 H          0.008  0.684  0.000    0.682 -0.008 -0.022    0.078  0.000  0.233
 C          0.000 -0.087  0.001   -0.045  0.001  0.094   -0.017  0.000 -0.101
 H         -0.004  0.183  0.001   -0.388 -0.002  0.083    0.352  0.000 -0.074
 H         -0.253  0.067  0.023   -0.059  0.058 -0.041   -0.066 -0.087  0.211
 H          0.252  0.066 -0.024   -0.065 -0.059 -0.040   -0.066  0.087  0.211
 C          0.017 -0.056 -0.074   -0.078  0.017 -0.031   -0.003  0.013 -0.116
 H         -0.235 -0.222 -0.066    0.075 -0.197 -0.029   -0.196 -0.375 -0.087
 H         -0.159 -0.120  0.009    0.131  0.138  0.008   -0.038  0.114  0.215
 H          0.042  0.049  0.029   -0.066 -0.260 -0.030    0.102 -0.032  0.211
 C         -0.019 -0.056  0.073   -0.078 -0.016 -0.032   -0.003 -0.013 -0.116
 H          0.237 -0.218  0.065    0.069  0.201 -0.030   -0.196  0.375 -0.087
 H         -0.044  0.055 -0.030   -0.066  0.259 -0.030    0.102  0.032  0.210
 H          0.162 -0.123 -0.009    0.128 -0.135  0.008   -0.037 -0.114  0.215
 TransDip   0.000  0.035  0.000    0.036  0.000 -0.003    0.003  0.000  0.026

 Mode:                16                     17                     18
 Frequency:      1333.78                1334.60                1373.59
 Force Cnst:      1.4019                 1.3848                 1.7168
 Red. Mass:       1.3375                 1.3196                 1.5444
 IR Active:          YES                    YES                    YES
 IR Intens:        0.817                  1.081                 26.573
 Raman Active:       YES                    YES                    YES
               X      Y      Z        X      Y      Z        X      Y      Z
 C          0.000 -0.147  0.000   -0.140  0.000  0.000    0.000  0.130  0.000
 H          0.001  0.690  0.000    0.675 -0.001  0.000   -0.001 -0.340  0.000
 C          0.000  0.039  0.000   -0.028  0.000  0.062    0.000 -0.038  0.000
 H          0.000 -0.146  0.000    0.218  0.000  0.059    0.001  0.218  0.000
 H          0.072 -0.032  0.049    0.269 -0.050 -0.242   -0.036  0.032 -0.103
 H         -0.070 -0.032 -0.050    0.269  0.050 -0.242    0.037  0.033  0.103
 C         -0.026 -0.007 -0.053    0.022 -0.026 -0.031   -0.044 -0.115 -0.016
 H          0.143  0.109 -0.050   -0.056  0.147 -0.029    0.090  0.377 -0.028
 H          0.179  0.200  0.180    0.027  0.062  0.161    0.257  0.134  0.168
 H          0.076  0.178  0.227    0.052  0.185  0.078   -0.023  0.338  0.064
 C          0.026 -0.007  0.053    0.022  0.026 -0.031    0.043 -0.114  0.016
 H         -0.143  0.109  0.049   -0.055 -0.147 -0.029   -0.089  0.377  0.028
 H         -0.075  0.177 -0.227    0.053 -0.185  0.079    0.023  0.337 -0.064
 H         -0.179  0.200 -0.179    0.028 -0.063  0.162   -0.256  0.133 -0.169
 TransDip   0.000  0.029  0.000    0.033  0.000 -0.001    0.000  0.165  0.000

 Mode:                19                     20                     21
 Frequency:      1374.69                1386.85                1425.18
 Force Cnst:      1.7389                 1.4424                 1.2499
 Red. Mass:       1.5618                 1.2728                 1.0445
 IR Active:          YES                    YES                    YES
 IR Intens:       25.924                  9.223                  0.027
 Raman Active:       YES                    YES                    YES
               X      Y      Z        X      Y      Z        X      Y      Z
 C         -0.136  0.000  0.000   -0.002  0.000 -0.012    0.000 -0.003  0.000
 H          0.370 -0.001  0.001    0.004  0.000 -0.017    0.000  0.012  0.000
 C          0.143  0.000 -0.016   -0.079  0.000  0.031    0.000 -0.034  0.000
 H         -0.438  0.000 -0.031    0.326  0.000  0.041    0.000  0.426  0.000
 H         -0.303  0.204  0.127    0.227 -0.097 -0.179    0.092  0.029 -0.273
 H         -0.303 -0.204  0.127    0.227  0.097 -0.179   -0.092  0.030  0.273
 C          0.063  0.041  0.007    0.042  0.074  0.034   -0.029  0.016  0.002
 H         -0.263 -0.077  0.013   -0.173 -0.305  0.044    0.343 -0.223  0.002
 H         -0.194 -0.088  0.033   -0.208 -0.160 -0.200    0.006 -0.085 -0.281
 H          0.005 -0.129 -0.146   -0.033 -0.261 -0.196    0.061  0.085  0.243
 C          0.063 -0.041  0.007    0.042 -0.074  0.034    0.029  0.016 -0.002
 H         -0.263  0.079  0.013   -0.173  0.305  0.044   -0.343 -0.223 -0.002
 H          0.005  0.130 -0.146   -0.033  0.261 -0.196   -0.061  0.085 -0.243
 H         -0.195  0.088  0.032   -0.208  0.160 -0.200   -0.005 -0.085  0.281
 TransDip  -0.163  0.000  0.003   -0.003  0.000 -0.097    0.000  0.005  0.000

 Mode:                22                     23                     24
 Frequency:      1433.26                1434.97                1456.14
 Force Cnst:      1.2555                 1.2585                 1.3796
 Red. Mass:       1.0373                 1.0373                 1.1043
 IR Active:          YES                    YES                    YES
 IR Intens:        0.649                  0.785                  6.326
 Raman Active:       YES                    YES                    YES
               X      Y      Z        X      Y      Z        X      Y      Z
 C          0.000 -0.005  0.000    0.012  0.000  0.000   -0.001 -0.079  0.000
 H          0.000  0.063  0.000   -0.077  0.000  0.000    0.001  0.145  0.000
 C          0.000  0.014  0.000    0.012  0.000  0.038    0.000 -0.027  0.000
 H          0.000 -0.178  0.000    0.320  0.000  0.034   -0.001  0.513  0.000
 H         -0.041 -0.013  0.114   -0.267  0.303 -0.319    0.159  0.027 -0.353
 H          0.042 -0.013 -0.113   -0.267 -0.303 -0.319   -0.159  0.028  0.354
 C         -0.010 -0.009  0.032   -0.005  0.011 -0.018    0.025  0.013  0.011
 H         -0.090 -0.258  0.029    0.176  0.075 -0.016   -0.298  0.037  0.015
 H          0.336  0.054 -0.305   -0.201 -0.066  0.084    0.089  0.095  0.112
 H         -0.102  0.337 -0.242    0.083 -0.175  0.229   -0.073 -0.007 -0.270
 C          0.010 -0.009 -0.032   -0.005 -0.011 -0.019   -0.025  0.012 -0.011
 H          0.090 -0.257 -0.029    0.176 -0.076 -0.016    0.304  0.042 -0.014
 H          0.102  0.336  0.242    0.083  0.176  0.229    0.075 -0.009  0.275
 H         -0.336  0.054  0.305   -0.201  0.066  0.085   -0.089  0.097 -0.117
 TransDip   0.000  0.026  0.000   -0.028  0.000 -0.002    0.001  0.081  0.000

 Mode:                25                     26                     27
 Frequency:      1456.58                1462.84                2983.66
 Force Cnst:      1.3793                 1.3223                 5.6766
 Red. Mass:       1.1034                 1.0488                 1.0823
 IR Active:          YES                    YES                    YES
 IR Intens:        6.456                 29.044                  5.216
 Raman Active:       YES                    YES                    YES
               X      Y      Z        X      Y      Z        X      Y      Z
 C          0.079 -0.001 -0.004    0.005  0.000  0.043    0.000  0.000 -0.078
 H         -0.146  0.001 -0.005   -0.009  0.000  0.050    0.000  0.000  0.928
 C         -0.029  0.000  0.009    0.015  0.000  0.018   -0.001  0.000  0.013
 H          0.102  0.004  0.014    0.237  0.000  0.020    0.004  0.000 -0.155
 H         -0.020  0.021 -0.062   -0.212  0.226 -0.212    0.003 -0.001  0.002
 H         -0.022 -0.021 -0.056   -0.212 -0.226 -0.212    0.003  0.001  0.002
 C          0.016 -0.022 -0.006   -0.007 -0.017  0.017    0.002  0.004  0.016
 H         -0.365  0.294 -0.008   -0.144 -0.175  0.018   -0.003 -0.005 -0.222
 H         -0.003  0.122  0.371    0.302  0.080 -0.179    0.020 -0.041  0.018
 H         -0.080 -0.167 -0.270   -0.095  0.289 -0.231   -0.044 -0.003  0.018
 C          0.016  0.022 -0.006   -0.007  0.017  0.017    0.002 -0.004  0.016
 H         -0.360 -0.293 -0.008   -0.144  0.175  0.018   -0.003  0.004 -0.221
 H         -0.079  0.167 -0.265   -0.095 -0.289 -0.231   -0.043  0.003  0.017
 H         -0.005 -0.121  0.369    0.302 -0.080 -0.180    0.019  0.041  0.018
 TransDip  -0.080  0.001  0.012   -0.007  0.000 -0.172    0.010  0.000 -0.072

 Mode:                28                     29                     30
 Frequency:      2986.67                2987.18                2991.73
 Force Cnst:      5.4542                 5.4563                 5.4903
 Red. Mass:       1.0378                 1.0378                 1.0411
 IR Active:          YES                    YES                    YES
 IR Intens:       19.033                 19.287                 14.570
 Raman Active:       YES                    YES                    YES
               X      Y      Z        X      Y      Z        X      Y      Z
 C         -0.002  0.000  0.005    0.000 -0.002  0.000    0.000  0.000 -0.024
 H          0.003  0.000 -0.064    0.000  0.002 -0.001    0.000  0.000  0.280
 C          0.037  0.000 -0.024    0.000  0.000  0.000    0.025  0.000 -0.012
 H         -0.011  0.000  0.572    0.000  0.001  0.000   -0.010  0.000  0.336
 H         -0.205 -0.352 -0.146    0.002  0.002  0.000   -0.141 -0.240 -0.098
 H         -0.205  0.352 -0.146   -0.002  0.002  0.000   -0.141  0.240 -0.098
 C          0.008  0.015  0.011    0.015  0.027  0.021   -0.012 -0.023 -0.014
 H         -0.002 -0.005 -0.258   -0.005 -0.008 -0.489    0.005  0.009  0.364
 H          0.095 -0.166  0.068    0.171 -0.298  0.123   -0.143  0.251 -0.102
 H         -0.183  0.000  0.066   -0.334 -0.001  0.119    0.282  0.002 -0.099
 C          0.008 -0.015  0.011   -0.015  0.027 -0.021   -0.012  0.023 -0.014
 H         -0.002  0.004 -0.258    0.005 -0.008  0.490    0.005 -0.009  0.364
 H         -0.183  0.000  0.066    0.335 -0.001 -0.119    0.282 -0.002 -0.099
 H          0.095  0.166  0.068   -0.171 -0.298 -0.124   -0.143 -0.251 -0.102
 TransDip   0.140  0.000  0.005    0.000  0.141  0.000   -0.001  0.000 -0.122

 Mode:                31                     32                     33
 Frequency:      3059.72                3060.03                3066.93
 Force Cnst:      6.0777                 6.0772                 6.0978
 Red. Mass:       1.1019                 1.1015                 1.1003
 IR Active:          YES                    YES                    YES
 IR Intens:        5.028                  6.611                 48.548
 Raman Active:       YES                    YES                    YES
               X      Y      Z        X      Y      Z        X      Y      Z
 C          0.000  0.000  0.000    0.000  0.000  0.000    0.000  0.000 -0.020
 H         -0.003  0.000 -0.005    0.000  0.003  0.000    0.000  0.000  0.207
 C         -0.029  0.000 -0.068    0.000 -0.003  0.000   -0.022  0.000 -0.049
 H         -0.020  0.000  0.584    0.000 -0.002 -0.003   -0.020  0.000  0.425
 H          0.184  0.318  0.115    0.010  0.017  0.008    0.136  0.230  0.084
 H          0.184 -0.318  0.115   -0.012  0.020 -0.009    0.137 -0.232  0.085
 C         -0.005 -0.015  0.035    0.011  0.025 -0.060    0.008  0.020 -0.046
 H         -0.004 -0.010 -0.297    0.009  0.015  0.503    0.009  0.016  0.394
 H         -0.110  0.191 -0.071    0.177 -0.308  0.112    0.138 -0.245  0.090
 H          0.172  0.000 -0.052   -0.310  0.000  0.097   -0.238 -0.002  0.074
 C         -0.005  0.016  0.036   -0.011  0.025  0.059    0.008 -0.020 -0.046
 H         -0.004  0.010 -0.301   -0.009  0.015 -0.500    0.009 -0.016  0.394
 H          0.175  0.000 -0.053    0.309  0.000 -0.096   -0.237  0.002  0.074
 H         -0.111 -0.193 -0.072   -0.176 -0.306 -0.111    0.138  0.246  0.090
 TransDip  -0.072  0.000  0.004    0.000  0.082  0.000   -0.008  0.000 -0.223

 Mode:                34                     35                     36
 Frequency:      3073.44                3076.46                3077.13
 Force Cnst:      6.1453                 6.1525                 6.1541
 Red. Mass:       1.1042                 1.1033                 1.1031
 IR Active:          YES                    YES                    YES
 IR Intens:        5.020                 21.410                 28.232
 Raman Active:       YES                    YES                    YES
               X      Y      Z        X      Y      Z        X      Y      Z
 C          0.000 -0.001  0.000    0.000  0.002  0.000   -0.002  0.000  0.001
 H          0.000  0.000  0.000    0.000 -0.001  0.000    0.001  0.000 -0.009
 C          0.000 -0.080  0.000    0.000  0.048  0.000    0.000  0.000 -0.001
 H          0.000 -0.014  0.001    0.000  0.009  0.000    0.000  0.000  0.007
 H          0.297  0.485  0.201   -0.180 -0.293 -0.121    0.006  0.006  0.003
 H         -0.296  0.484 -0.200    0.180 -0.292  0.121    0.006 -0.006  0.003
 C         -0.031  0.016  0.003   -0.050  0.027  0.001   -0.058  0.031  0.004
 H         -0.005  0.002 -0.022   -0.009  0.005 -0.009   -0.011  0.005 -0.029
 H          0.107 -0.195  0.079    0.186 -0.346  0.139    0.210 -0.387  0.156
 H          0.263  0.006 -0.092    0.413  0.009 -0.145    0.494  0.014 -0.173
 C          0.030  0.016 -0.003    0.049  0.027 -0.001   -0.058 -0.031  0.004
 H          0.005  0.002  0.023    0.009  0.005  0.009   -0.011 -0.005 -0.029
 H         -0.262  0.006  0.092   -0.410  0.009  0.144    0.496 -0.014 -0.174
 H         -0.106 -0.193 -0.079   -0.185 -0.344 -0.139    0.211  0.389  0.157
 TransDip   0.000 -0.072  0.000    0.000  0.148  0.000   -0.170  0.000  0.010

 STANDARD THERMODYNAMIC QUANTITIES AT   298.18 K  AND     1.00 ATM

   This Molecule has  0 Imaginary Frequencies
   Zero point vibrational energy:       81.261 kcal/mol

   Atom    1 Element C  Has Mass   12.00000
   Atom    2 Element H  Has Mass    1.00783
   Atom    3 Element C  Has Mass   12.00000
   Atom    4 Element H  Has Mass    1.00783
   Atom    5 Element H  Has Mass    1.00783
   Atom    6 Element H  Has Mass    1.00783
   Atom    7 Element C  Has Mass   12.00000
   Atom    8 Element H  Has Mass    1.00783
   Atom    9 Element H  Has Mass    1.00783
   Atom   10 Element H  Has Mass    1.00783
   Atom   11 Element C  Has Mass   12.00000
   Atom   12 Element H  Has Mass    1.00783
   Atom   13 Element H  Has Mass    1.00783
   Atom   14 Element H  Has Mass    1.00783
   Molecular Mass:    58.078300 amu
   Principal axes and moments of inertia in atomic units:
                             1           2           3
    Eigenvalues --      227.66304   227.69757   391.24892
          X              -0.00012     1.00000     0.00012
          Y               1.00000     0.00012     0.00000
          Z               0.00000    -0.00012     1.00000
   Rotational Symmetry Number is   1
   The Molecule is an Asymmetric Top
   Translational Enthalpy:        0.889 kcal/mol
   Rotational Enthalpy:           0.889 kcal/mol
   Vibrational Enthalpy:         83.090 kcal/mol
   gas constant (RT):             0.593 kcal/mol
   Translational Entropy:        38.099  cal/mol.K
   Rotational Entropy:           24.521  cal/mol.K
   Vibrational Entropy:           9.646  cal/mol.K

   Total Enthalpy:               85.460 kcal/mol
   Total Entropy:                72.265  cal/mol.K
 Total job time:  34362.62s(wall), 34199.36s(cpu) 
 Sun Apr 24 03:39:26 2011

        *************************************************************
        *                                                           *
        *  Thank you very much for using Q-Chem.  Have a nice day.  *
        *                                                           *
        *************************************************************


0 sent ACK to 0 
now end server 0 ... 
