Process 0 of 1 is on cl093.stfx.acenet.ca - thread support 1
initial socket setup ...start
initial socket setup ...done 
now start server 0 ... 

cmd = /usr/bin/ssh clhead /usr/local/qchem/bin/get_hostid 1151754195 > /scratch/tmp/5956759.1.short.q/qchem14448/lic.dat
                  Welcome to Q-Chem
     A Quantum Leap Into The Future Of Chemistry

 Y. Shao, L. Fusti-Molnar, Y. Jung, J. Kussmann, C. Ochsenfeld,
 S. T. Brown, A. T. B. Gilbert, L. V. Slipchenko,S. V. Levchenko,
 D. P. O'Neill, R. A. DiStasio Jr., R. C. Lochan, T. Wang,
 G. J. O. Beran, N. A. Besley, J. M. Herbert, C. Y. Lin,
 T. Van Voorhis, S. H. Chien, A. Sodt, R. P. Steele, 
 V. A. Rassolov, P. E. Maslen, P. P. Korambath, R. D. Adamson,
 B. Austin, J. Baker, E. F. C. Byrd, H. Dachsel, R. J. Doerksen,
 A. Dreuw, B. D. Dunietz, A. D. Dutoi, T. R. Furlani,
 S. R. Gwaltney, A. Heyden, S. Hirata, C.-P. Hsu, G. Kedziora,
 R. Z. Khaliullin, P. Klunzinger, A. M. Lee, M. S. Lee, W. Liang,
 I. Lotan, N. Nair, B. Peters, E. I. Proynov, P. A. Pieniazek, 
 Y. M. Rhee, J. Ritchie, E. Rosta, C. D. Sherrill, 
 A. C. Simmonett, J. E. Subotnik, H. L. Woodcock III,
 W. Zhang, A. T. Bell, A. K. Chakraborty, D. M. Chipman,
 F. J. Keil, A. Warshel, W. J. Hehre, H. F. Schaefer III,
 J. Kong, A. I. Krylov, P. M. W. Gill, M. Head-Gordon,
 Q-Chem, Version 3.1, Q-Chem, Inc., Pittsburgh, PA (2007).

 Additional authors for Version 3.1: 
 Z. Gan, Y. Zhao, N. E. Schultz, D. Truhlar, E. Epifanovsky and M. Oana.

 Additional authors for Version 3.2: 
 R. Baer, B. R. Brooks, D. Casanova, J.-D. Chai, C.-L. Cheng, 
 C. Cramer, D. Crittenden, A. Ghysels, G. Hawkins, E. G. Hohenstein, 
 C. Kelley, W. Kurlancheek, D. Liotard, E. Livshits, P. Manohar, 
 A. Marenich, D. Neuhauser, R. Olson, M. A. Rohrdanz, K. S. Thanthiriwatte, 
 A. J. W. Thom, V. Vanovschi, C. F. Williams, Q. Wu and Z.-Q. You. 


 Intel X86 Linux Version

 Q-chem begins on Wed May  1 12:26:19 2013  

 Parallel job on  1  processors
Processing $rem in /usr/local/qchem/config/preferences.

theFileMan(): MAXOPENFILES=974 MAX_SUB_FILE_NUM=16
Maximum size of a physical file is 2.0 GB, maximum size of a tmp-file is 32.0 GB


--------------------------------------------------------------
User input:
--------------------------------------------------------------

$molecule
0,1
C
C,1,R1
X,1,1.,2,90.
C,1,R2,3,90.,2,180.,0
X,2,1.,1,90.,3,0.,0
H,2,R3,5,90.,1,180.,0
H,4,R4,1,THETA1,3,0.,0
H,4,R4,1,THETA1,7,120.,0
H,4,R4,1,THETA1,7,-120.,0

 R1=1.20716163
 R2=1.46072439
 R3=1.06604906
 R4=1.09647694
 THETA1=111.17437048

$end

$comment
neutral
$end

$xc_functional
C PBE   1.00
X wPBE  1.00
$end


$rem
SYMMETRY_DECOMPOSITION	0
LRC_DFT                 true
exchange 		general
BASIS                   g3large
omega			360 
JOBTYPE                 opt
mem_static              760
max_scf_cycles          200
scf_final_print         1
sym_ignore              true
$end


--------------------------------------------------------------
 Writing REM_CC_EA            7
 ----------------------------------------------------
       Standard Nuclear Orientation (Angstroms)
    I     Atom         X            Y            Z
 ----------------------------------------------------
    1      C       0.000000     0.000000     0.000000
    2      C       0.000000     0.000000     1.207162
    3      C       0.000000     0.000000    -1.460724
    4      H       0.000000     0.000000     2.273211
    5      H       1.022449     0.000000    -1.856780
    6      H      -0.511224    -0.885467    -1.856780
    7      H      -0.511224     0.885467    -1.856780
 ----------------------------------------------------
 Nuclear Repulsion Energy =    58.5881883668 hartrees
 There are       11 alpha and       11 beta electrons
 Requested basis set is G3large
 There are 54 shells and 166 basis functions

Total QAlloc Memory Limit   2000 MB
Mega-Array Size       743 MB
MEM_STATIC part       760 MB
 A cutoff of  1.0D-11 yielded   1421 shell pairs
 There are  13582 function pairs ( 16777 Cartesian)
Evaluating contribution to one-electron hamiltonian from nuclear
 Smallest overlap matrix eigenvalue = 1.80E-06

 Q-Chem warning in module mkSTV.C, line 194:

 Overlap eigenvalue is smaller than square root of threshold

 Multipole matrices computed through 2nd order

  Scale SEOQF with 1.000000e-01/1.000000e-01/1.000000e-01

 Standard Electronic Orientation quadrupole field applied
 Nucleus-field energy     =    -0.0000000038 hartrees
 Guess from superposition of atomic densities
 Warning:  Energy on first SCF cycle will be non-variational
 Long-range K will be added via erf
 Coulomb attenuation parameter = 0.36 bohr**(-1)
 A restricted Kohn-Sham SCF calculation will be
 performed using Pulay DIIS extrapolation
 Exchange:  wPBE + LR-HF      Correlation:  PBE
 Using SG-1 standard quadrature grid
 SCF converges when DIIS error is below 1.0E-08
 Requested basis set is G3large
 There are 54 shells and 166 basis functions
 A cutoff of  1.0D-11 yielded   1421 shell pairs
 There are  13582 function pairs ( 16777 Cartesian)
 ---------------------------------------
  Cycle       Energy         DIIS Error
 ---------------------------------------
    1    -117.2067178318      3.34E-02
    2    -116.5499174161      3.41E-03
    3    -116.5814918963      1.65E-03
    4    -116.5901721356      3.04E-04
    5    -116.5903867924      2.26E-04
    6    -116.5905527871      3.54E-05
    7    -116.5905601467      1.08E-05
    8    -116.5905610678      4.07E-06
    9    -116.5905613861      1.36E-06
   10    -116.5905614124      3.50E-07
   11    -116.5905614150      6.82E-08
   12    -116.5905614205      1.03E-08
   13    -116.5905614187      1.76E-09 Convergence criterion met
 ---------------------------------------
 One-Electron    Energy =  -271.4270965142
 Total Coulomb   Energy =   113.8451783278
 Alpha Exchange  Energy =    -1.9899496690
 Beta  Exchange  Energy =    -1.9899496690
 DFT   Exchange  Energy =   -12.9241089262
 DFT Correlation Energy =    -0.6928233310
 Nuclear Repu.   Energy =    58.5881883630
 Nuclear Attr.   Energy =  -387.4114882109
 Kinetic         Energy =   115.9843916967
 SCF time:  CPU 92.88 s  wall 96.51 s
 Final Alpha MO Eigenvalues
            1           2           3           4           5           6
    1 -10.1038692 -10.0878000 -10.0708490  -0.9114518  -0.8272884  -0.6458986
            7           8           9          10          11          12
    1  -0.5680690  -0.5494703  -0.5494691  -0.3813015  -0.3813014   0.0370334
           13          14          15          16
    1   0.0492864   0.0697993   0.0698007   0.1060157
 Analysis of SCF Wavefunction
 
 --------------------------------------------------------------
                    Orbital Energies (a.u.)
 --------------------------------------------------------------
 
 Alpha MOs
 -- Occupied --
-10.104 -10.088 -10.071  -0.911  -0.827  -0.646  -0.568  -0.549
 -0.549  -0.381  -0.381
 -- Virtual --
  0.037   0.049   0.070   0.070   0.106   0.111   0.111   0.143
  0.148   0.148   0.162   0.162   0.173   0.183   0.208   0.208
  0.253   0.270   0.270   0.285   0.296   0.354   0.399   0.523
  0.523   0.529   0.593   0.593   0.601   0.651   0.651   0.686
  0.686   0.712   0.712   0.729   0.743   0.743   0.762   0.784
  0.887   0.939   0.947   0.947   0.960   1.012   1.012   1.065
  1.107   1.172   1.172   1.256   1.256   1.375   1.375   1.393
  1.430   1.484   1.484   1.550   1.550   1.617   1.645   1.747
  1.747   1.868   2.175   2.467   2.467   2.669   2.693   2.744
  2.744   2.755   2.777   2.845   2.845   2.857   2.857   2.967
  3.003   3.073   3.090   3.090   3.162   3.176   3.178   3.178
  3.227   3.227   3.303   3.303   3.350   3.377   3.377   3.444
  3.444   3.499   3.500   3.515   3.646   3.646   3.688   3.855
  3.855   3.943   3.992   3.992   4.126   4.126   4.137   4.314
  4.320   4.320   4.457   4.545   4.555   4.555   4.842   4.842
  4.969   5.496   5.683   5.683   5.798   5.799   6.500   7.051
 23.544  24.327  25.469  27.369  27.369  27.636  27.636  27.980
 28.071  28.071  28.497  29.539  40.835  40.871  40.914  40.925
 41.096  41.103  41.112  41.116  41.138  41.168  41.204  41.233
 41.403  41.403  41.640
 --------------------------------------------------------------
 
          Ground-State Mulliken Net Atomic Charges

     Atom                 Charge (a.u.)
  ----------------------------------------
      1 C                     1.055739
      2 C                    -0.985090
      3 C                    -0.486473
      4 H                     0.107906
      5 H                     0.102650
      6 H                     0.102633
      7 H                     0.102633
  ----------------------------------------
  Sum of atomic charges =     0.000000

 -----------------------------------------------------------------
                    Cartesian Multipole Moments
 -----------------------------------------------------------------
    Charge (ESU x 10^10)
                 0.0000
    Dipole Moment (Debye)
         X       0.0000      Y       0.0000      Z      -0.8359
       Tot       0.8359
    Quadrupole Moments (Debye-Ang)
        XX     -19.6565     XY       0.0000     YY     -19.6564
        XZ       0.0000     YZ       0.0000     ZZ     -13.3549
    Octapole Moments (Debye-Ang^2)
       XXX       0.7871    XXY       0.0000    XYY      -0.7873
       YYY       0.0000    XXZ       1.0725    XYZ       0.0000
       YYZ       1.0724    XZZ      -0.0001    YZZ       0.0000
       ZZZ      17.7142
    Hexadecapole Moments (Debye-Ang^3)
      XXXX     -29.3774   XXXY       0.0000   XXYY      -9.7924
      XYYY       0.0000   YYYY     -29.3772   XXXZ      -1.5424
      XXYZ       0.0000   XYYZ       1.5424   YYYZ       0.0000
      XXZZ     -37.3106   XYZZ       0.0000   YYZZ     -37.3106
      XZZZ       0.0001   YZZZ       0.0000   ZZZZ    -169.5306
 -----------------------------------------------------------------
 Calculating analytic gradient of the SCF energy
 Gradient of AOints
            1           2           3           4           5           6
    1   0.0025545  -0.0033565   0.0011464  -0.0001434  -2.8354706   1.4176348
    2  -0.0000003  -0.0000002   0.0000006  -0.0000001  -0.0000000   2.4554608
    3   7.4365730 -10.4336344   2.6206482  -4.0873949   1.4878971   1.4879555
            7
    1   1.4176348
    2  -2.4554608
    3   1.4879556
 Gradient of XC Energy
            1           2           3           4           5           6
    1  -0.0000625   0.0000841  -0.0000354   0.0000039   0.1665942  -0.0832921
    2   0.0000000   0.0000000  -0.0000000   0.0000000   0.0000000  -0.1442596
    3  -0.2766924   0.2126697   0.0550949   0.2138379  -0.0683143  -0.0682979
            7
    1  -0.0832921
    2   0.1442596
    3  -0.0682979
 Gradient of SCF Energy
            1           2           3           4           5           6
    1   0.0000022  -0.0000008  -0.0000030   0.0000001   0.0026210  -0.0013097
    2  -0.0000000   0.0000000  -0.0000000   0.0000000   0.0000000  -0.0022602
    3  -0.0197732   0.0247886   0.0027254  -0.0006445  -0.0023776  -0.0023594
            7
    1  -0.0013097
    2   0.0022602
    3  -0.0023594
 Max gradient component =       2.479E-02
 RMS gradient           =       7.073E-03
 Gradient time:  CPU 34.16 s  wall 34.64 s
 Geometry Optimization Parameters
   NAtoms,    NIC,     NZ,  NCons,   NDum,   NFix, NCnnct, MaxDiis
        7      32       9       0       0       0       0       0


** GEOMETRY OPTIMIZATION IN DELOCALIZED INTERNAL COORDINATES **
   Searching for a Minimum

   Optimization Cycle:   1

                       Coordinates (Angstroms)
     ATOM              X           Y           Z
    1  C           0.000000    0.000000    0.000000
    2  C           0.000000    0.000000    1.207162
    3  C           0.000000    0.000000   -1.460724
    4  H           0.000000    0.000000    2.273211
    5  H           1.022449    0.000000   -1.856780
    6  H          -0.511224   -0.885467   -1.856780
    7  H          -0.511224    0.885467   -1.856780
   Point Group: c1    Number of degrees of freedom:  15


   Energy is   -116.590561419


 Attempting to Generate Delocalized Internal Coordinates

 15 Hessian modes will be used to form the next step
  Hessian Eigenvalues:
     0.160000    0.160000    0.160000    0.160000    0.160000    0.200000
     0.200000    0.200000    0.200000    0.340747    0.340747    0.340747
     0.368738    0.377339    1.013054

 Minimum Search - Taking Simple RFO Step
 Searching for Lamda that Minimizes Along All modes
 Value Taken    Lamda =  -0.00078300
 Step Taken.  Stepsize is  0.036902

                             Maximum     Tolerance    Cnvgd?
         Gradient           0.017599      0.000300      NO
         Displacement       0.029731      0.001200      NO
         Energy change     *********      0.000001      NO


 New Cartesian Coordinates Obtained by Inverse Iteration

 Displacement from previous Coordinates is:  0.059124
 Writing REM_CC_EA            7
 ----------------------------------------------------
       Standard Nuclear Orientation (Angstroms)
    I     Atom         X            Y            Z
 ----------------------------------------------------
    1      C      -0.000022     0.000000    -0.004248
    2      C       0.000005     0.000000     1.190311
    3      C      -0.000041     0.000000    -1.458713
    4      H       0.000051     0.000000     2.257262
    5      H       1.020671     0.000000    -1.844991
    6      H      -0.510332    -0.883957    -1.845157
    7      H      -0.510332     0.883957    -1.845157
 ----------------------------------------------------
 Nuclear Repulsion Energy =    58.9720318439 hartrees
 There are       11 alpha and       11 beta electrons
 Applying Cartesian multipole field
    Component          Value
    ---------          -----
     (2,0,0)        1.00000E-11
     (0,2,0)        2.00000E-11
     (0,0,2)       -3.00000E-11
 Nucleus-field energy     =    -0.0000000038 hartrees
 Requested basis set is G3large
 There are 54 shells and 166 basis functions
 A cutoff of  1.0D-11 yielded   1421 shell pairs
 There are  13582 function pairs ( 16777 Cartesian)
Evaluating contribution to one-electron hamiltonian from nuclear
 Smallest overlap matrix eigenvalue = 1.65E-06

 Q-Chem warning in module mkSTV.C, line 194:

 Overlap eigenvalue is smaller than square root of threshold

 Multipole matrices computed through 2nd order
 Guess MOs from SCF MO coefficient file
Reading MOs from coefficient file
Reading MOs from coefficient file
 Long-range K will be added via erf
 Coulomb attenuation parameter = 0.36 bohr**(-1)
 A restricted Kohn-Sham SCF calculation will be
 performed using Pulay DIIS extrapolation
 Exchange:  wPBE + LR-HF      Correlation:  PBE
 Using SG-1 standard quadrature grid
 SCF converges when DIIS error is below 1.0E-08
 Requested basis set is G3large
 There are 54 shells and 166 basis functions
 A cutoff of  1.0D-11 yielded   1421 shell pairs
 There are  13582 function pairs ( 16777 Cartesian)
 ---------------------------------------
  Cycle       Energy         DIIS Error
 ---------------------------------------
    1    -116.5751349861      6.59E-04
    2    -116.5908594229      1.33E-04
    3    -116.5908628338      1.42E-04
    4    -116.5909237745      1.83E-05
    5    -116.5909247229      4.62E-06
    6    -116.5909247910      8.20E-07
    7    -116.5909247682      2.80E-07
    8    -116.5909247764      4.79E-08
    9    -116.5909247870      7.71E-09 Convergence criterion met
 ---------------------------------------
 One-Electron    Energy =  -272.1903730411
 Total Coulomb   Energy =   114.2456645176
 Alpha Exchange  Energy =    -1.9912522099
 Beta  Exchange  Energy =    -1.9912522099
 DFT   Exchange  Energy =   -12.9419568226
 DFT Correlation Energy =    -0.6937868612
 Nuclear Repu.   Energy =    58.9720318401
 Nuclear Attr.   Energy =  -388.2652582899
 Kinetic         Energy =   116.0748852488
 SCF time:  CPU 65.84 s  wall 67.83 s
 Final Alpha MO Eigenvalues
            1           2           3           4           5           6
    1 -10.1010138 -10.0832851 -10.0668790  -0.9133757  -0.8286262  -0.6442645
            7           8           9          10          11          12
    1  -0.5676841  -0.5514002  -0.5513993  -0.3827546  -0.3827524   0.0371787
           13          14          15          16
    1   0.0494242   0.0699289   0.0699323   0.1060420
 Analysis of SCF Wavefunction
 
 --------------------------------------------------------------
                    Orbital Energies (a.u.)
 --------------------------------------------------------------
 
 Alpha MOs
 -- Occupied --
-10.101 -10.083 -10.067  -0.913  -0.829  -0.644  -0.568  -0.551
 -0.551  -0.383  -0.383
 -- Virtual --
  0.037   0.049   0.070   0.070   0.106   0.113   0.113   0.144
  0.149   0.149   0.162   0.162   0.173   0.183   0.209   0.209
  0.253   0.272   0.272   0.285   0.299   0.356   0.401   0.523
  0.523   0.531   0.593   0.593   0.601   0.652   0.652   0.687
  0.687   0.713   0.713   0.731   0.745   0.745   0.761   0.786
  0.886   0.938   0.951   0.951   0.961   1.017   1.017   1.071
  1.119   1.177   1.177   1.258   1.258   1.383   1.383   1.400
  1.432   1.488   1.488   1.553   1.553   1.623   1.650   1.740
  1.740   1.870   2.182   2.468   2.468   2.666   2.687   2.742
  2.742   2.752   2.775   2.854   2.854   2.857   2.857   2.967
  3.004   3.078   3.101   3.101   3.168   3.177   3.177   3.183
  3.222   3.222   3.310   3.310   3.356   3.379   3.380   3.454
  3.454   3.503   3.504   3.512   3.653   3.653   3.697   3.869
  3.869   3.954   4.006   4.006   4.149   4.149   4.151   4.322
  4.322   4.330   4.479   4.562   4.574   4.574   4.860   4.861
  4.974   5.531   5.705   5.705   5.834   5.834   6.541   7.059
 23.539  24.362  25.569  27.383  27.383  27.652  27.652  27.986
 28.083  28.083  28.458  29.613  40.839  40.876  40.920  40.931
 41.107  41.109  41.115  41.118  41.144  41.173  41.209  41.240
 41.425  41.425  41.669
 --------------------------------------------------------------
 
          Ground-State Mulliken Net Atomic Charges

     Atom                 Charge (a.u.)
  ----------------------------------------
      1 C                     1.081459
      2 C                    -1.013811
      3 C                    -0.483624
      4 H                     0.105930
      5 H                     0.103367
      6 H                     0.103339
      7 H                     0.103339
  ----------------------------------------
  Sum of atomic charges =     0.000000

 -----------------------------------------------------------------
                    Cartesian Multipole Moments
 -----------------------------------------------------------------
    Charge (ESU x 10^10)
                 0.0000
    Dipole Moment (Debye)
         X       0.0000      Y       0.0000      Z      -0.8182
       Tot       0.8182
    Quadrupole Moments (Debye-Ang)
        XX     -19.5729     XY       0.0000     YY     -19.5727
        XZ       0.0003     YZ       0.0000     ZZ     -13.4693
    Octapole Moments (Debye-Ang^2)
       XXX       0.7855    XXY       0.0000    XYY      -0.7843
       YYY       0.0000    XXZ       1.1908    XYZ       0.0000
       YYZ       1.1903    XZZ       0.0001    YZZ       0.0000
       ZZZ      17.9705
    Hexadecapole Moments (Debye-Ang^3)
      XXXX     -29.1088   XXXY       0.0000   XXYY      -9.7030
      XYYY       0.0000   YYYY     -29.1089   XXXZ      -1.5233
      XXYZ       0.0000   XYYZ       1.5213   YYYZ       0.0000
      XXZZ     -36.8465   XYZZ       0.0000   YYZZ     -36.8451
      XZZZ       0.0009   YZZZ       0.0000   ZZZZ    -168.4364
 -----------------------------------------------------------------
 Calculating analytic gradient of the SCF energy
 Gradient of AOints
            1           2           3           4           5           6
    1   0.0024218  -0.0033682   0.0019990  -0.0003114  -2.8628220   1.4310404
    2   0.0000001   0.0000006  -0.0000006  -0.0000000  -0.0000001   2.4790952
    3   7.5700823 -10.5222956   2.6798658  -4.0996137   1.4568761   1.4575426
            7
    1   1.4310404
    2  -2.4790952
    3   1.4575425
 Gradient of XC Energy
            1           2           3           4           5           6
    1  -0.0000569   0.0000805  -0.0000796   0.0000134   0.1680096  -0.0839835
    2  -0.0000000  -0.0000000   0.0000000   0.0000000   0.0000000  -0.1454806
    3  -0.2784841   0.2118183   0.0526553   0.2138580  -0.0666048  -0.0666213
            7
    1  -0.0839835
    2   0.1454806
    3  -0.0666213
 Gradient of SCF Energy
            1           2           3           4           5           6
    1   0.0000133  -0.0000023  -0.0000049   0.0000005  -0.0000155   0.0000045
    2   0.0000000  -0.0000000   0.0000000  -0.0000000   0.0000000   0.0000094
    3   0.0012990  -0.0025377   0.0013212   0.0001752  -0.0000863  -0.0000857
            7
    1   0.0000045
    2  -0.0000094
    3  -0.0000857
 Max gradient component =       2.538E-03
 RMS gradient           =       6.875E-04
 Gradient time:  CPU 34.54 s  wall 35.19 s
 Geometry Optimization Parameters
   NAtoms,    NIC,     NZ,  NCons,   NDum,   NFix, NCnnct, MaxDiis
        7      32       9       0       0       0       0       0

 Cartesian Hessian Update
 Hessian Updated using BFGS Update


** GEOMETRY OPTIMIZATION IN DELOCALIZED INTERNAL COORDINATES **
   Searching for a Minimum

   Optimization Cycle:   2

                       Coordinates (Angstroms)
     ATOM              X           Y           Z
    1  C          -0.000022    0.000000   -0.004248
    2  C           0.000005    0.000000    1.190311
    3  C          -0.000041    0.000000   -1.458713
    4  H           0.000051    0.000000    2.257262
    5  H           1.020671    0.000000   -1.844991
    6  H          -0.510332   -0.883957   -1.845157
    7  H          -0.510332    0.883957   -1.845157
   Point Group: c1    Number of degrees of freedom:  15


   Energy is   -116.590924787

 Hessian Updated using BFGS Update

  9 Hessian modes will be used to form the next step
  Hessian Eigenvalues:
     0.157597    0.160000    0.200000    0.200000    0.336815    0.340748
     0.376315    0.379274    1.099485

 Minimum Search - Taking Simple RFO Step
 Searching for Lamda that Minimizes Along All modes
 Value Taken    Lamda =  -0.00000800
 Step Taken.  Stepsize is  0.003599

                             Maximum     Tolerance    Cnvgd?
         Gradient           0.001819      0.000300      NO
         Displacement       0.002490      0.001200      NO
         Energy change     -0.000363      0.000001      NO


 New Cartesian Coordinates Obtained by Inverse Iteration

 Displacement from previous Coordinates is:  0.004437
 Writing REM_CC_EA            7
 ----------------------------------------------------
       Standard Nuclear Orientation (Angstroms)
    I     Atom         X            Y            Z
 ----------------------------------------------------
    1      C      -0.000033     0.000000    -0.003969
    2      C       0.000003     0.000000     1.191681
    3      C      -0.000042     0.000000    -1.459818
    4      H       0.000060     0.000000     2.258409
    5      H       1.020828     0.000000    -1.845547
    6      H      -0.510408    -0.884088    -1.845724
    7      H      -0.510408     0.884088    -1.845724
 ----------------------------------------------------
 Nuclear Repulsion Energy =    58.9344976938 hartrees
 There are       11 alpha and       11 beta electrons
 Applying Cartesian multipole field
    Component          Value
    ---------          -----
     (2,0,0)        1.00000E-11
     (0,2,0)        2.00000E-11
     (0,0,2)       -3.00000E-11
 Nucleus-field energy     =    -0.0000000038 hartrees
 Requested basis set is G3large
 There are 54 shells and 166 basis functions
 A cutoff of  1.0D-11 yielded   1421 shell pairs
 There are  13582 function pairs ( 16777 Cartesian)
Evaluating contribution to one-electron hamiltonian from nuclear
 Smallest overlap matrix eigenvalue = 1.67E-06

 Q-Chem warning in module mkSTV.C, line 194:

 Overlap eigenvalue is smaller than square root of threshold

 Multipole matrices computed through 2nd order
 Guess MOs from SCF MO coefficient file
Reading MOs from coefficient file
Reading MOs from coefficient file
 Long-range K will be added via erf
 Coulomb attenuation parameter = 0.36 bohr**(-1)
 A restricted Kohn-Sham SCF calculation will be
 performed using Pulay DIIS extrapolation
 Exchange:  wPBE + LR-HF      Correlation:  PBE
 Using SG-1 standard quadrature grid
 SCF converges when DIIS error is below 1.0E-08
 Requested basis set is G3large
 There are 54 shells and 166 basis functions
 A cutoff of  1.0D-11 yielded   1421 shell pairs
 There are  13582 function pairs ( 16777 Cartesian)
 ---------------------------------------
  Cycle       Energy         DIIS Error
 ---------------------------------------
    1    -116.5930989782      7.02E-05
    2    -116.5909283177      1.46E-05
    3    -116.5909283779      1.51E-05
    4    -116.5909290483      1.99E-06
    5    -116.5909291200      5.24E-07
    6    -116.5909291213      1.16E-07
    7    -116.5909291260      3.25E-08
    8    -116.5909291205      6.93E-09 Convergence criterion met
 ---------------------------------------
 One-Electron    Energy =  -272.1156055919
 Total Coulomb   Energy =   114.2068080897
 Alpha Exchange  Energy =    -1.9911640675
 Beta  Exchange  Energy =    -1.9911640675
 DFT   Exchange  Energy =   -12.9406016616
 DFT Correlation Energy =    -0.6936995117
 Nuclear Repu.   Energy =    58.9344976900
 Nuclear Attr.   Energy =  -388.1833312088
 Kinetic         Energy =   116.0677256170
 SCF time:  CPU 56.97 s  wall 57.85 s
 Final Alpha MO Eigenvalues
            1           2           3           4           5           6
    1 -10.1012062 -10.0836974 -10.0671915  -0.9131515  -0.8285466  -0.6443834
            7           8           9          10          11          12
    1  -0.5674714  -0.5513869  -0.5513858  -0.3826608  -0.3826586   0.0371707
           13          14          15          16
    1   0.0494205   0.0699302   0.0699335   0.1060326
 Analysis of SCF Wavefunction
 
 --------------------------------------------------------------
                    Orbital Energies (a.u.)
 --------------------------------------------------------------
 
 Alpha MOs
 -- Occupied --
-10.101 -10.084 -10.067  -0.913  -0.829  -0.644  -0.567  -0.551
 -0.551  -0.383  -0.383
 -- Virtual --
  0.037   0.049   0.070   0.070   0.106   0.113   0.113   0.144
  0.149   0.149   0.162   0.162   0.173   0.183   0.209   0.209
  0.253   0.272   0.272   0.285   0.299   0.356   0.401   0.523
  0.523   0.531   0.593   0.593   0.601   0.652   0.652   0.687
  0.687   0.713   0.713   0.731   0.745   0.745   0.761   0.786
  0.886   0.938   0.951   0.951   0.961   1.017   1.017   1.071
  1.117   1.176   1.176   1.258   1.258   1.383   1.383   1.400
  1.432   1.488   1.488   1.553   1.553   1.623   1.650   1.740
  1.740   1.870   2.181   2.467   2.467   2.665   2.687   2.742
  2.742   2.753   2.775   2.854   2.854   2.857   2.857   2.967
  3.004   3.078   3.100   3.100   3.168   3.177   3.177   3.182
  3.222   3.222   3.310   3.310   3.355   3.379   3.379   3.453
  3.453   3.503   3.503   3.512   3.653   3.653   3.696   3.868
  3.868   3.954   4.005   4.005   4.147   4.147   4.150   4.321
  4.321   4.329   4.480   4.561   4.573   4.573   4.857   4.858
  4.974   5.528   5.704   5.704   5.830   5.830   6.537   7.058
 23.539  24.359  25.561  27.381  27.381  27.651  27.651  27.983
 28.083  28.083  28.462  29.605  40.839  40.876  40.920  40.931
 41.107  41.107  41.114  41.118  41.144  41.172  41.209  41.240
 41.423  41.423  41.666
 --------------------------------------------------------------
 
          Ground-State Mulliken Net Atomic Charges

     Atom                 Charge (a.u.)
  ----------------------------------------
      1 C                     1.077520
      2 C                    -1.011042
      3 C                    -0.482685
      4 H                     0.106112
      5 H                     0.103383
      6 H                     0.103356
      7 H                     0.103356
  ----------------------------------------
  Sum of atomic charges =     0.000000

 -----------------------------------------------------------------
                    Cartesian Multipole Moments
 -----------------------------------------------------------------
    Charge (ESU x 10^10)
                 0.0000
    Dipole Moment (Debye)
         X       0.0001      Y       0.0000      Z      -0.8200
       Tot       0.8200
    Quadrupole Moments (Debye-Ang)
        XX     -19.5782     XY       0.0000     YY     -19.5780
        XZ       0.0003     YZ       0.0000     ZZ     -13.4637
    Octapole Moments (Debye-Ang^2)
       XXX       0.7866    XXY       0.0000    XYY      -0.7852
       YYY       0.0000    XXZ       1.1821    XYZ       0.0000
       YYZ       1.1816    XZZ       0.0002    YZZ       0.0000
       ZZZ      17.9702
    Hexadecapole Moments (Debye-Ang^3)
      XXXX     -29.1239   XXXY       0.0000   XXYY      -9.7080
      XYYY       0.0000   YYYY     -29.1240   XXXZ      -1.5254
      XXYZ       0.0000   XYYZ       1.5234   YYYZ       0.0000
      XXZZ     -36.8897   XYZZ       0.0000   YYZZ     -36.8883
      XZZZ       0.0011   YZZZ       0.0000   ZZZZ    -168.6206
 -----------------------------------------------------------------
 Calculating analytic gradient of the SCF energy
 Gradient of AOints
            1           2           3           4           5           6
    1   0.0027189  -0.0035715   0.0019601  -0.0003545  -2.8632862   1.4312666
    2  -0.0000001   0.0000002  -0.0000002  -0.0000000  -0.0000000   2.4794802
    3   7.5640677 -10.5198932   2.6887704  -4.0987304   1.4547922   1.4554966
            7
    1   1.4312666
    2  -2.4794802
    3   1.4554966
 Gradient of XC Energy
            1           2           3           4           5           6
    1  -0.0000661   0.0000852  -0.0000776   0.0000156   0.1680618  -0.0840095
    2   0.0000000  -0.0000000   0.0000000   0.0000000   0.0000000  -0.1455254
    3  -0.2785610   0.2121525   0.0521038   0.2138753  -0.0665109  -0.0665299
            7
    1  -0.0840095
    2   0.1455254
    3  -0.0665299
 Gradient of SCF Energy
            1           2           3           4           5           6
    1   0.0000122  -0.0000021  -0.0000067   0.0000007  -0.0000142   0.0000050
    2   0.0000000  -0.0000000  -0.0000000   0.0000000   0.0000000   0.0000109
    3  -0.0001598   0.0000199   0.0003397  -0.0000081  -0.0000649  -0.0000634
            7
    1   0.0000050
    2  -0.0000109
    3  -0.0000634
 Max gradient component =       3.397E-04
 RMS gradient           =       8.573E-05
 Gradient time:  CPU 34.07 s  wall 34.34 s
 Geometry Optimization Parameters
   NAtoms,    NIC,     NZ,  NCons,   NDum,   NFix, NCnnct, MaxDiis
        7      32       9       0       0       0       0       0

 Cartesian Hessian Update
 Hessian Updated using BFGS Update


** GEOMETRY OPTIMIZATION IN DELOCALIZED INTERNAL COORDINATES **
   Searching for a Minimum

   Optimization Cycle:   3

                       Coordinates (Angstroms)
     ATOM              X           Y           Z
    1  C          -0.000033    0.000000   -0.003969
    2  C           0.000003    0.000000    1.191681
    3  C          -0.000042    0.000000   -1.459818
    4  H           0.000060    0.000000    2.258409
    5  H           1.020828    0.000000   -1.845547
    6  H          -0.510408   -0.884088   -1.845724
    7  H          -0.510408    0.884088   -1.845724
   Point Group: c1    Number of degrees of freedom:  15


   Energy is   -116.590929120

 Hessian Updated using BFGS Update

 10 Hessian modes will be used to form the next step
  Hessian Eigenvalues:
     0.148267    0.160000    0.160000    0.199988    0.200000    0.334809
     0.340747    0.355178    0.378204    1.160649

 Minimum Search - Taking Simple RFO Step
 Searching for Lamda that Minimizes Along All modes
 Value Taken    Lamda =   0.00000000
 Step Taken.  Stepsize is  0.001231

                             Maximum     Tolerance    Cnvgd?
         Gradient           0.000179      0.000300     YES
         Displacement       0.000838      0.001200     YES
         Energy change     -0.000004      0.000001      NO


                       Distance Matrix (Angstroms)
             C (  1)   C (  2)   C (  3)   H (  4)   H (  5)   H (  6)
   C (  2)  1.195650
   C (  3)  1.455849  2.651499
   H (  4)  2.262377  1.066728  3.718227
   H (  5)  2.105604  3.204191  1.091313  4.228998
   H (  6)  2.105743  3.204365  1.091333  4.229195  1.768134
   H (  7)  2.105743  3.204365  1.091333  4.229195  1.768134  1.768176

 


 ******************************
 **  OPTIMIZATION CONVERGED  **
 ******************************
 Analysis of SCF Wavefunction
 
 --------------------------------------------------------------
                    Orbital Energies (a.u.)
 --------------------------------------------------------------
 
 Alpha MOs
 -- Occupied --
-10.101 -10.084 -10.067  -0.913  -0.829  -0.644  -0.567  -0.551
 -0.551  -0.383  -0.383
 -- Virtual --
  0.037   0.049   0.070   0.070   0.106   0.113   0.113   0.144
  0.149   0.149   0.162   0.162   0.173   0.183   0.209   0.209
  0.253   0.272   0.272   0.285   0.299   0.356   0.401   0.523
  0.523   0.531   0.593   0.593   0.601   0.652   0.652   0.687
  0.687   0.713   0.713   0.731   0.745   0.745   0.761   0.786
  0.886   0.938   0.951   0.951   0.961   1.017   1.017   1.071
  1.117   1.176   1.176   1.258   1.258   1.383   1.383   1.400
  1.432   1.488   1.488   1.553   1.553   1.623   1.650   1.740
  1.740   1.870   2.181   2.467   2.467   2.665   2.687   2.742
  2.742   2.753   2.775   2.854   2.854   2.857   2.857   2.967
  3.004   3.078   3.100   3.100   3.168   3.177   3.177   3.182
  3.222   3.222   3.310   3.310   3.355   3.379   3.379   3.453
  3.453   3.503   3.503   3.512   3.653   3.653   3.696   3.868
  3.868   3.954   4.005   4.005   4.147   4.147   4.150   4.321
  4.321   4.329   4.480   4.561   4.573   4.573   4.857   4.858
  4.974   5.528   5.704   5.704   5.830   5.830   6.537   7.058
 23.539  24.359  25.561  27.381  27.381  27.651  27.651  27.983
 28.083  28.083  28.462  29.605  40.839  40.876  40.920  40.931
 41.107  41.107  41.114  41.118  41.144  41.172  41.209  41.240
 41.423  41.423  41.666
 --------------------------------------------------------------
 
          Ground-State Mulliken Net Atomic Charges

     Atom                 Charge (a.u.)
  ----------------------------------------
      1 C                     1.077520
      2 C                    -1.011042
      3 C                    -0.482685
      4 H                     0.106112
      5 H                     0.103383
      6 H                     0.103356
      7 H                     0.103356
  ----------------------------------------
  Sum of atomic charges =     0.000000

 -----------------------------------------------------------------
                    Cartesian Multipole Moments
 -----------------------------------------------------------------
    Charge (ESU x 10^10)
                 0.0000
    Dipole Moment (Debye)
         X       0.0001      Y       0.0000      Z      -0.8200
       Tot       0.8200
    Quadrupole Moments (Debye-Ang)
        XX     -19.5782     XY       0.0000     YY     -19.5780
        XZ       0.0003     YZ       0.0000     ZZ     -13.4637
    Octapole Moments (Debye-Ang^2)
       XXX       0.7866    XXY       0.0000    XYY      -0.7852
       YYY       0.0000    XXZ       1.1821    XYZ       0.0000
       YYZ       1.1816    XZZ       0.0002    YZZ       0.0000
       ZZZ      17.9702
    Hexadecapole Moments (Debye-Ang^3)
      XXXX     -29.1239   XXXY       0.0000   XXYY      -9.7080
      XYYY       0.0000   YYYY     -29.1240   XXXZ      -1.5254
      XXYZ       0.0000   XYYZ       1.5234   YYYZ       0.0000
      XXZZ     -36.8897   XYZZ       0.0000   YYZZ     -36.8883
      XZZZ       0.0011   YZZZ       0.0000   ZZZZ    -168.6206
 -----------------------------------------------------------------
 Total job time:  326.87s(wall), 318.93s(cpu) 
 Wed May  1 12:31:45 2013

        *************************************************************
        *                                                           *
        *  Thank you very much for using Q-Chem.  Have a nice day.  *
        *                                                           *
        *************************************************************


0 sent ACK to 0 
now end server 0 ... 
 
**********************************************************************
Job 2 of 2 
**********************************************************************
 
Process 0 of 1 is on cl093.stfx.acenet.ca - thread support 1
initial socket setup ...start
initial socket setup ...done 
now start server 0 ... 

cmd = /usr/bin/ssh clhead /usr/local/qchem/bin/get_hostid 1720212464 > /scratch/tmp/5956759.1.short.q/qchem14448/lic.dat
                  Welcome to Q-Chem
     A Quantum Leap Into The Future Of Chemistry

 Y. Shao, L. Fusti-Molnar, Y. Jung, J. Kussmann, C. Ochsenfeld,
 S. T. Brown, A. T. B. Gilbert, L. V. Slipchenko,S. V. Levchenko,
 D. P. O'Neill, R. A. DiStasio Jr., R. C. Lochan, T. Wang,
 G. J. O. Beran, N. A. Besley, J. M. Herbert, C. Y. Lin,
 T. Van Voorhis, S. H. Chien, A. Sodt, R. P. Steele, 
 V. A. Rassolov, P. E. Maslen, P. P. Korambath, R. D. Adamson,
 B. Austin, J. Baker, E. F. C. Byrd, H. Dachsel, R. J. Doerksen,
 A. Dreuw, B. D. Dunietz, A. D. Dutoi, T. R. Furlani,
 S. R. Gwaltney, A. Heyden, S. Hirata, C.-P. Hsu, G. Kedziora,
 R. Z. Khaliullin, P. Klunzinger, A. M. Lee, M. S. Lee, W. Liang,
 I. Lotan, N. Nair, B. Peters, E. I. Proynov, P. A. Pieniazek, 
 Y. M. Rhee, J. Ritchie, E. Rosta, C. D. Sherrill, 
 A. C. Simmonett, J. E. Subotnik, H. L. Woodcock III,
 W. Zhang, A. T. Bell, A. K. Chakraborty, D. M. Chipman,
 F. J. Keil, A. Warshel, W. J. Hehre, H. F. Schaefer III,
 J. Kong, A. I. Krylov, P. M. W. Gill, M. Head-Gordon,
 Q-Chem, Version 3.1, Q-Chem, Inc., Pittsburgh, PA (2007).

 Additional authors for Version 3.1: 
 Z. Gan, Y. Zhao, N. E. Schultz, D. Truhlar, E. Epifanovsky and M. Oana.

 Additional authors for Version 3.2: 
 R. Baer, B. R. Brooks, D. Casanova, J.-D. Chai, C.-L. Cheng, 
 C. Cramer, D. Crittenden, A. Ghysels, G. Hawkins, E. G. Hohenstein, 
 C. Kelley, W. Kurlancheek, D. Liotard, E. Livshits, P. Manohar, 
 A. Marenich, D. Neuhauser, R. Olson, M. A. Rohrdanz, K. S. Thanthiriwatte, 
 A. J. W. Thom, V. Vanovschi, C. F. Williams, Q. Wu and Z.-Q. You. 


 Intel X86 Linux Version

 Q-chem begins on Wed May  1 12:31:48 2013  

 Parallel job on  1  processors
Processing $rem in /usr/local/qchem/config/preferences.

theFileMan(): MAXOPENFILES=974 MAX_SUB_FILE_NUM=16
Maximum size of a physical file is 2.0 GB, maximum size of a tmp-file is 32.0 GB


--------------------------------------------------------------
User input:
--------------------------------------------------------------

$molecule 
READ 
$end 

$xc_functional
C PBE   1.00
X wPBE  1.00
$end


$rem
SYMMETRY_DECOMPOSITION	0
LRC_DFT                 true
exchange 		general
BASIS                   g3large
omega			360 
JOBTYPE                 freq
IDERIV 1
SCF_GUESS READ
mem_static              760
max_scf_cycles          200
scf_final_print         1
sym_ignore              true
$end

--------------------------------------------------------------
 Writing REM_CC_EA            7
 ----------------------------------------------------
       Standard Nuclear Orientation (Angstroms)
    I     Atom         X            Y            Z
 ----------------------------------------------------
    1      C      -0.000033     0.000000    -0.003969
    2      C       0.000003     0.000000     1.191681
    3      C      -0.000042     0.000000    -1.459818
    4      H       0.000060     0.000000     2.258409
    5      H       1.020828     0.000000    -1.845547
    6      H      -0.510408    -0.884088    -1.845724
    7      H      -0.510408     0.884088    -1.845724
 ----------------------------------------------------
 Nuclear Repulsion Energy =    58.9344976938 hartrees
 There are       11 alpha and       11 beta electrons
 Requested basis set is G3large
 There are 54 shells and 166 basis functions

Total QAlloc Memory Limit   2000 MB
Mega-Array Size       759 MB
MEM_STATIC part       760 MB

                       Distance Matrix (Angstroms)
             C (  1)   C (  2)   C (  3)   H (  4)   H (  5)   H (  6)
   C (  2)  1.195650
   C (  3)  1.455849  2.651499
   H (  4)  2.262377  1.066728  3.718227
   H (  5)  2.105604  3.204191  1.091313  4.228998
   H (  6)  2.105743  3.204365  1.091333  4.229195  1.768134
   H (  7)  2.105743  3.204365  1.091333  4.229195  1.768134  1.768176

 
 A cutoff of  1.0D-11 yielded   1421 shell pairs
 There are  13582 function pairs ( 16777 Cartesian)
Evaluating contribution to one-electron hamiltonian from nuclear
 Smallest overlap matrix eigenvalue = 1.67E-06

 Q-Chem warning in module mkSTV.C, line 194:

 Overlap eigenvalue is smaller than square root of threshold

 Multipole matrices computed through 2nd order
 Guess MOs from SCF MO coefficient file
Reading MOs from coefficient file
Reading MOs from coefficient file
 Long-range K will be added via erf
 Coulomb attenuation parameter = 0.36 bohr**(-1)
 A restricted Kohn-Sham SCF calculation will be
 performed using Pulay DIIS extrapolation
 Exchange:  wPBE + LR-HF      Correlation:  PBE
 Using SG-1 standard quadrature grid
 SCF converges when DIIS error is below 1.0E-08
 ---------------------------------------
  Cycle       Energy         DIIS Error
 ---------------------------------------
    1    -116.5909290654      1.23E-09
    2    -116.5909290648      4.49E-10 Convergence criterion met
 ---------------------------------------
 One-Electron    Energy =  -272.1156027376
 Total Coulomb   Energy =   114.2068049652
 Alpha Exchange  Energy =    -1.9911640540
 Beta  Exchange  Energy =    -1.9911640540
 DFT   Exchange  Energy =   -12.9406013885
 DFT Correlation Energy =    -0.6936994899
 Nuclear Repu.   Energy =    58.9344976938
 Nuclear Attr.   Energy =  -388.1833267137
 Kinetic         Energy =   116.0677239762
 SCF time:  CPU 15.42 s  wall 15.56 s
 Final Alpha MO Eigenvalues
            1           2           3           4           5           6
    1 -10.1012062 -10.0836974 -10.0671915  -0.9131515  -0.8285466  -0.6443834
            7           8           9          10          11          12
    1  -0.5674715  -0.5513869  -0.5513858  -0.3826608  -0.3826586   0.0371707
           13          14          15          16
    1   0.0494205   0.0699302   0.0699335   0.1060326
 Analysis of SCF Wavefunction
 
 --------------------------------------------------------------
                    Orbital Energies (a.u.)
 --------------------------------------------------------------
 
 Alpha MOs
 -- Occupied --
-10.101 -10.084 -10.067  -0.913  -0.829  -0.644  -0.567  -0.551
 -0.551  -0.383  -0.383
 -- Virtual --
  0.037   0.049   0.070   0.070   0.106   0.113   0.113   0.144
  0.149   0.149   0.162   0.162   0.173   0.183   0.209   0.209
  0.253   0.272   0.272   0.285   0.299   0.356   0.401   0.523
  0.523   0.531   0.593   0.593   0.601   0.652   0.652   0.687
  0.687   0.713   0.713   0.731   0.745   0.745   0.761   0.786
  0.886   0.938   0.951   0.951   0.961   1.017   1.017   1.071
  1.117   1.176   1.176   1.258   1.258   1.383   1.383   1.400
  1.432   1.488   1.488   1.553   1.553   1.623   1.650   1.740
  1.740   1.870   2.181   2.467   2.467   2.665   2.687   2.742
  2.742   2.753   2.775   2.854   2.854   2.857   2.857   2.967
  3.004   3.078   3.100   3.100   3.168   3.177   3.177   3.182
  3.222   3.222   3.310   3.310   3.355   3.379   3.379   3.453
  3.453   3.503   3.503   3.512   3.653   3.653   3.696   3.868
  3.868   3.954   4.005   4.005   4.147   4.147   4.150   4.321
  4.321   4.329   4.480   4.561   4.573   4.573   4.857   4.858
  4.974   5.528   5.704   5.704   5.830   5.830   6.537   7.058
 23.539  24.359  25.561  27.381  27.381  27.651  27.651  27.983
 28.083  28.083  28.462  29.605  40.839  40.876  40.920  40.931
 41.107  41.107  41.114  41.118  41.144  41.172  41.209  41.240
 41.423  41.423  41.666
 --------------------------------------------------------------
 
          Ground-State Mulliken Net Atomic Charges

     Atom                 Charge (a.u.)
  ----------------------------------------
      1 C                     1.077519
      2 C                    -1.011041
      3 C                    -0.482685
      4 H                     0.106112
      5 H                     0.103383
      6 H                     0.103356
      7 H                     0.103356
  ----------------------------------------
  Sum of atomic charges =     0.000000

 -----------------------------------------------------------------
                    Cartesian Multipole Moments
 -----------------------------------------------------------------
    Charge (ESU x 10^10)
                 0.0000
    Dipole Moment (Debye)
         X       0.0001      Y       0.0000      Z      -0.8200
       Tot       0.8200
    Quadrupole Moments (Debye-Ang)
        XX     -19.5782     XY       0.0000     YY     -19.5780
        XZ       0.0003     YZ       0.0000     ZZ     -13.4637
    Octapole Moments (Debye-Ang^2)
       XXX       0.7866    XXY       0.0000    XYY      -0.7852
       YYY       0.0000    XXZ       1.1821    XYZ       0.0000
       YYZ       1.1816    XZZ       0.0002    YZZ       0.0000
       ZZZ      17.9702
    Hexadecapole Moments (Debye-Ang^3)
      XXXX     -29.1239   XXXY       0.0000   XXYY      -9.7080
      XYYY       0.0000   YYYY     -29.1240   XXXZ      -1.5254
      XXYZ       0.0000   XYYZ       1.5234   YYYZ       0.0000
      XXZZ     -36.8897   XYZZ       0.0000   YYZZ     -36.8883
      XZZZ       0.0011   YZZZ       0.0000   ZZZZ    -168.6206
 -----------------------------------------------------------------
 Calculating analytic gradient of the SCF energy
 Gradient of AOints
            1           2           3           4           5           6
    1   0.0027188  -0.0035713   0.0019600  -0.0003545  -2.8632863   1.4312666
    2  -0.0000001   0.0000001   0.0000000   0.0000000  -0.0000000   2.4794803
    3   7.5640677 -10.5198946   2.6887717  -4.0987303   1.4547923   1.4554966
            7
    1   1.4312666
    2  -2.4794803
    3   1.4554967
 Gradient of XC Energy
            1           2           3           4           5           6
    1  -0.0000661   0.0000852  -0.0000776   0.0000156   0.1680619  -0.0840095
    2   0.0000000  -0.0000000  -0.0000000  -0.0000000   0.0000000  -0.1455254
    3  -0.2785610   0.2121525   0.0521038   0.2138753  -0.0665109  -0.0665299
            7
    1  -0.0840095
    2   0.1455254
    3  -0.0665299
 Gradient of SCF Energy
            1           2           3           4           5           6
    1   0.0000122  -0.0000021  -0.0000067   0.0000007  -0.0000142   0.0000050
    2   0.0000000  -0.0000000  -0.0000000   0.0000000   0.0000000   0.0000109
    3  -0.0001598   0.0000199   0.0003397  -0.0000081  -0.0000649  -0.0000634
            7
    1   0.0000050
    2  -0.0000109
    3  -0.0000634
 Max gradient component =       3.397E-04
 RMS gradient           =       8.572E-05
 Gradient time:  CPU 32.63 s  wall 33.57 s
 ######################################################
 ######################################################
 # Starting finite difference calculation for IDERIV  #
 Finite diff step size: 1.89e-03 a.u.
 Writing REM_CC_EA            7
 ----------------------------------------------------
       Standard Nuclear Orientation (Angstroms)
    I     Atom         X            Y            Z
 ----------------------------------------------------
    1      C       0.000967     0.000000    -0.003969
    2      C       0.000003     0.000000     1.191681
    3      C      -0.000042     0.000000    -1.459818
    4      H       0.000060     0.000000     2.258409
    5      H       1.020828     0.000000    -1.845547
    6      H      -0.510408    -0.884088    -1.845724
    7      H      -0.510408     0.884088    -1.845724
 ----------------------------------------------------
 Nuclear Repulsion Energy =    58.9344890392 hartrees
 There are       11 alpha and       11 beta electrons

                       Distance Matrix (Angstroms)
             C (  1)   C (  2)   C (  3)   H (  4)   H (  5)   H (  6)
   C (  2)  1.195650
   C (  3)  1.455850  2.651499
   H (  4)  2.262378  1.066728  3.718227
   H (  5)  2.105120  3.204191  1.091313  4.228998
   H (  6)  2.105986  3.204365  1.091333  4.229195  1.768134
   H (  7)  2.105986  3.204365  1.091333  4.229195  1.768134  1.768176

 
 Requested basis set is G3large
 There are 54 shells and 166 basis functions
 A cutoff of  1.0D-11 yielded   1421 shell pairs
 There are  13582 function pairs ( 16777 Cartesian)
Evaluating contribution to one-electron hamiltonian from nuclear
 Smallest overlap matrix eigenvalue = 1.67E-06

 Q-Chem warning in module mkSTV.C, line 194:

 Overlap eigenvalue is smaller than square root of threshold

 Multipole matrices computed through 2nd order
 Guess MOs from SCF MO coefficient file
Reading MOs from coefficient file
Reading MOs from coefficient file
 Long-range K will be added via erf
 Coulomb attenuation parameter = 0.36 bohr**(-1)
 A restricted Kohn-Sham SCF calculation will be
 performed using Pulay DIIS extrapolation
 Exchange:  wPBE + LR-HF      Correlation:  PBE
 Using SG-1 standard quadrature grid
 SCF converges when DIIS error is below 1.0E-08
 ---------------------------------------
  Cycle       Energy         DIIS Error
 ---------------------------------------
    1    -116.5909294113      4.73E-05
    2    -116.5909288301      2.24E-06
    3    -116.5909288696      6.70E-07
    4    -116.5909288676      1.98E-07
    5    -116.5909288715      3.66E-08
    6    -116.5909288690      2.77E-08
    7    -116.5909288704      7.88E-09 Convergence criterion met
 ---------------------------------------
 One-Electron    Energy =  -272.1155843869
 Total Coulomb   Energy =   114.2067948939
 Alpha Exchange  Energy =    -1.9911640092
 Beta  Exchange  Energy =    -1.9911640092
 DFT   Exchange  Energy =   -12.9406009351
 DFT Correlation Energy =    -0.6936994631
 Nuclear Repu.   Energy =    58.9344890392
 Nuclear Attr.   Energy =  -388.1833064342
 Kinetic         Energy =   116.0677220472
 SCF time:  CPU 48.42 s  wall 50.17 s
 Final Alpha MO Eigenvalues
            1           2           3           4           5           6
    1 -10.1012063 -10.0836976 -10.0671917  -0.9131515  -0.8285466  -0.6443835
            7           8           9          10          11          12
    1  -0.5674717  -0.5513906  -0.5513816  -0.3826655  -0.3826537   0.0371708
           13          14          15          16
    1   0.0494205   0.0699281   0.0699355   0.1060322
 Analysis of SCF Wavefunction
 
 --------------------------------------------------------------
                    Orbital Energies (a.u.)
 --------------------------------------------------------------
 
 Alpha MOs
 -- Occupied --
-10.101 -10.084 -10.067  -0.913  -0.829  -0.644  -0.567  -0.551
 -0.551  -0.383  -0.383
 -- Virtual --
  0.037   0.049   0.070   0.070   0.106   0.113   0.113   0.144
  0.149   0.149   0.162   0.162   0.173   0.183   0.209   0.209
  0.253   0.272   0.272   0.285   0.299   0.356   0.401   0.523
  0.523   0.531   0.593   0.593   0.601   0.652   0.652   0.687
  0.687   0.713   0.713   0.731   0.745   0.745   0.761   0.786
  0.886   0.938   0.951   0.951   0.961   1.017   1.017   1.071
  1.117   1.176   1.176   1.258   1.258   1.383   1.383   1.400
  1.432   1.488   1.488   1.553   1.553   1.623   1.650   1.739
  1.740   1.870   2.181   2.467   2.468   2.665   2.687   2.742
  2.742   2.753   2.775   2.854   2.854   2.857   2.857   2.967
  3.004   3.078   3.100   3.101   3.168   3.177   3.177   3.182
  3.222   3.222   3.309   3.310   3.355   3.379   3.380   3.453
  3.453   3.503   3.503   3.512   3.653   3.653   3.696   3.868
  3.869   3.954   4.005   4.005   4.147   4.147   4.150   4.320
  4.321   4.329   4.480   4.561   4.572   4.573   4.857   4.858
  4.974   5.528   5.704   5.704   5.830   5.831   6.537   7.058
 23.539  24.359  25.561  27.381  27.381  27.651  27.651  27.983
 28.083  28.083  28.462  29.605  40.839  40.876  40.920  40.931
 41.107  41.107  41.114  41.118  41.144  41.172  41.209  41.240
 41.423  41.423  41.666
 --------------------------------------------------------------
 
          Ground-State Mulliken Net Atomic Charges

     Atom                 Charge (a.u.)
  ----------------------------------------
      1 C                     1.077434
      2 C                    -1.010968
      3 C                    -0.482676
      4 H                     0.106115
      5 H                     0.103398
      6 H                     0.103349
      7 H                     0.103349
  ----------------------------------------
  Sum of atomic charges =     0.000000

 -----------------------------------------------------------------
                    Cartesian Multipole Moments
 -----------------------------------------------------------------
    Charge (ESU x 10^10)
                 0.0000
    Dipole Moment (Debye)
         X      -0.0007      Y       0.0000      Z      -0.8200
       Tot       0.8200
    Quadrupole Moments (Debye-Ang)
        XX     -19.5782     XY       0.0000     YY     -19.5780
        XZ       0.0002     YZ       0.0000     ZZ     -13.4637
    Octapole Moments (Debye-Ang^2)
       XXX       0.7678    XXY       0.0000    XYY      -0.7914
       YYY       0.0000    XXZ       1.1821    XYZ       0.0000
       YYZ       1.1816    XZZ      -0.0095    YZZ       0.0000
       ZZZ      17.9702
    Hexadecapole Moments (Debye-Ang^3)
      XXXX     -29.1240   XXXY       0.0000   XXYY      -9.7081
      XYYY       0.0000   YYYY     -29.1239   XXXZ      -1.5266
      XXYZ       0.0000   XYYZ       1.5230   YYYZ       0.0000
      XXZZ     -36.8906   XYZZ       0.0000   YYZZ     -36.8875
      XZZZ       0.0084   YZZZ       0.0000   ZZZZ    -168.6206
 -----------------------------------------------------------------
 Calculating analytic gradient of the SCF energy
 Gradient of AOints
            1           2           3           4           5           6
    1  -0.0327697   0.0211315   0.0119390   0.0003869  -2.8631903   1.4312513
    2  -0.0000001   0.0000001   0.0000000   0.0000000  -0.0000000   2.4795452
    3   7.5641193 -10.5201627   2.6889851  -4.0987225   1.4537787   1.4560011
            7
    1   1.4312513
    2  -2.4795452
    3   1.4560011
 Gradient of XC Energy
            1           2           3           4           5           6
    1   0.0010461  -0.0006405  -0.0004626   0.0000046   0.1680634  -0.0840055
    2   0.0000000  -0.0000000  -0.0000000  -0.0000000   0.0000000  -0.1455269
    3  -0.2785669   0.2121657   0.0520967   0.2138750  -0.0664678  -0.0665514
            7
    1  -0.0840055
    2   0.1455269
    3  -0.0665514
 Gradient of SCF Energy
            1           2           3           4           5           6
    1   0.0002047  -0.0000818  -0.0001355   0.0000090  -0.0000053   0.0000044
    2   0.0000000  -0.0000000  -0.0000000   0.0000000   0.0000000   0.0000163
    3  -0.0001603   0.0000205   0.0003397  -0.0000081  -0.0000020  -0.0000948
            7
    1   0.0000044
    2  -0.0000163
    3  -0.0000948
 Max gradient component =       3.397E-04
 RMS gradient           =       1.040E-04
 Gradient time:  CPU 32.66 s  wall 32.95 s
 Writing REM_CC_EA            7
 ----------------------------------------------------
       Standard Nuclear Orientation (Angstroms)
    I     Atom         X            Y            Z
 ----------------------------------------------------
    1      C      -0.001033     0.000000    -0.003969
    2      C       0.000003     0.000000     1.191681
    3      C      -0.000042     0.000000    -1.459818
    4      H       0.000060     0.000000     2.258409
    5      H       1.020828     0.000000    -1.845547
    6      H      -0.510408    -0.884088    -1.845724
    7      H      -0.510408     0.884088    -1.845724
 ----------------------------------------------------
 Nuclear Repulsion Energy =    58.9344880945 hartrees
 There are       11 alpha and       11 beta electrons

                       Distance Matrix (Angstroms)
             C (  1)   C (  2)   C (  3)   H (  4)   H (  5)   H (  6)
   C (  2)  1.195650
   C (  3)  1.455850  2.651499
   H (  4)  2.262378  1.066728  3.718227
   H (  5)  2.106089  3.204191  1.091313  4.228998
   H (  6)  2.105501  3.204365  1.091333  4.229195  1.768134
   H (  7)  2.105501  3.204365  1.091333  4.229195  1.768134  1.768176

 
 Requested basis set is G3large
 There are 54 shells and 166 basis functions
 A cutoff of  1.0D-11 yielded   1421 shell pairs
 There are  13582 function pairs ( 16777 Cartesian)
Evaluating contribution to one-electron hamiltonian from nuclear
 Smallest overlap matrix eigenvalue = 1.67E-06

 Q-Chem warning in module mkSTV.C, line 194:

 Overlap eigenvalue is smaller than square root of threshold

 Multipole matrices computed through 2nd order
 Guess MOs from SCF MO coefficient file
Reading MOs from coefficient file
Reading MOs from coefficient file
 Long-range K will be added via erf
 Coulomb attenuation parameter = 0.36 bohr**(-1)
 A restricted Kohn-Sham SCF calculation will be
 performed using Pulay DIIS extrapolation
 Exchange:  wPBE + LR-HF      Correlation:  PBE
 Using SG-1 standard quadrature grid
 SCF converges when DIIS error is below 1.0E-08
 ---------------------------------------
  Cycle       Energy         DIIS Error
 ---------------------------------------
    1    -116.5909317038      9.47E-05
    2    -116.5909287702      4.48E-06
    3    -116.5909288991      1.34E-06
    4    -116.5909289050      3.96E-07
    5    -116.5909289085      6.65E-08
    6    -116.5909289064      4.03E-08
    7    -116.5909289082      1.85E-08
    8    -116.5909289077      2.68E-09 Convergence criterion met
 ---------------------------------------
 One-Electron    Energy =  -272.1155834728
 Total Coulomb   Energy =   114.2067948574
 Alpha Exchange  Energy =    -1.9911640065
 Beta  Exchange  Energy =    -1.9911640065
 DFT   Exchange  Energy =   -12.9406009129
 DFT Correlation Energy =    -0.6936994610
 Nuclear Repu.   Energy =    58.9344880945
 Nuclear Attr.   Energy =  -388.1833054031
 Kinetic         Energy =   116.0677219304
 SCF time:  CPU 55.47 s  wall 56.61 s
 Final Alpha MO Eigenvalues
            1           2           3           4           5           6
    1 -10.1012062 -10.0836976 -10.0671917  -0.9131515  -0.8285466  -0.6443835
            7           8           9          10          11          12
    1  -0.5674716  -0.5513921  -0.5513802  -0.3826634  -0.3826559   0.0371708
           13          14          15          16
    1   0.0494205   0.0699314   0.0699323   0.1060322
 Analysis of SCF Wavefunction
 
 --------------------------------------------------------------
                    Orbital Energies (a.u.)
 --------------------------------------------------------------
 
 Alpha MOs
 -- Occupied --
-10.101 -10.084 -10.067  -0.913  -0.829  -0.644  -0.567  -0.551
 -0.551  -0.383  -0.383
 -- Virtual --
  0.037   0.049   0.070   0.070   0.106   0.113   0.113   0.144
  0.149   0.149   0.162   0.162   0.173   0.183   0.209   0.209
  0.253   0.272   0.272   0.285   0.299   0.356   0.401   0.523
  0.523   0.531   0.593   0.593   0.601   0.652   0.652   0.687
  0.687   0.713   0.713   0.731   0.745   0.745   0.761   0.786
  0.886   0.938   0.951   0.951   0.961   1.017   1.017   1.071
  1.117   1.176   1.176   1.258   1.258   1.383   1.383   1.400
  1.432   1.488   1.488   1.553   1.553   1.623   1.650   1.739
  1.740   1.870   2.181   2.467   2.468   2.665   2.687   2.742
  2.742   2.753   2.775   2.854   2.854   2.857   2.857   2.967
  3.004   3.078   3.100   3.101   3.168   3.177   3.177   3.182
  3.222   3.222   3.309   3.310   3.355   3.379   3.379   3.453
  3.453   3.503   3.503   3.512   3.653   3.653   3.696   3.868
  3.868   3.954   4.004   4.005   4.147   4.147   4.150   4.321
  4.321   4.329   4.480   4.561   4.573   4.573   4.857   4.858
  4.974   5.528   5.704   5.704   5.830   5.831   6.537   7.058
 23.539  24.359  25.561  27.381  27.381  27.651  27.651  27.983
 28.083  28.083  28.462  29.605  40.839  40.876  40.920  40.931
 41.107  41.107  41.114  41.118  41.144  41.172  41.209  41.240
 41.423  41.423  41.666
 --------------------------------------------------------------
 
          Ground-State Mulliken Net Atomic Charges

     Atom                 Charge (a.u.)
  ----------------------------------------
      1 C                     1.077438
      2 C                    -1.010974
      3 C                    -0.482673
      4 H                     0.106115
      5 H                     0.103368
      6 H                     0.103363
      7 H                     0.103363
  ----------------------------------------
  Sum of atomic charges =     0.000000

 -----------------------------------------------------------------
                    Cartesian Multipole Moments
 -----------------------------------------------------------------
    Charge (ESU x 10^10)
                 0.0000
    Dipole Moment (Debye)
         X       0.0008      Y       0.0000      Z      -0.8200
       Tot       0.8200
    Quadrupole Moments (Debye-Ang)
        XX     -19.5781     XY       0.0000     YY     -19.5781
        XZ       0.0005     YZ       0.0000     ZZ     -13.4637
    Octapole Moments (Debye-Ang^2)
       XXX       0.8054    XXY       0.0000    XYY      -0.7789
       YYY       0.0000    XXZ       1.1820    XYZ       0.0000
       YYZ       1.1817    XZZ       0.0099    YZZ       0.0000
       ZZZ      17.9702
    Hexadecapole Moments (Debye-Ang^3)
      XXXX     -29.1239   XXXY       0.0000   XXYY      -9.7080
      XYYY       0.0000   YYYY     -29.1241   XXXZ      -1.5241
      XXYZ       0.0000   XYYZ       1.5238   YYYZ       0.0000
      XXZZ     -36.8889   XYZZ       0.0000   YYZZ     -36.8892
      XZZZ      -0.0063   YZZZ       0.0000   ZZZZ    -168.6206
 -----------------------------------------------------------------
 Calculating analytic gradient of the SCF energy
 Gradient of AOints
            1           2           3           4           5           6
    1   0.0382003  -0.0282550  -0.0080317  -0.0010957  -2.8633838   1.4312829
    2  -0.0000001   0.0000001   0.0000000  -0.0000000  -0.0000000   2.4794160
    3   7.5641421 -10.5201769   2.6889763  -4.0987238   1.4557996   1.4549913
            7
    1   1.4312829
    2  -2.4794160
    3   1.4549914
 Gradient of XC Energy
            1           2           3           4           5           6
    1  -0.0011780   0.0008105   0.0003078   0.0000266   0.1680604  -0.0840136
    2   0.0000000  -0.0000000  -0.0000000   0.0000000   0.0000000  -0.1455240
    3  -0.2785677   0.2121662   0.0520969   0.2138751  -0.0665538  -0.0665084
            7
    1  -0.0840136
    2   0.1455240
    3  -0.0665084
 Gradient of SCF Energy
            1           2           3           4           5           6
    1  -0.0001802   0.0000776   0.0001221  -0.0000077  -0.0000231   0.0000056
    2   0.0000000  -0.0000000  -0.0000000   0.0000000   0.0000000   0.0000054
    3  -0.0001604   0.0000206   0.0003395  -0.0000081  -0.0001277  -0.0000320
            7
    1   0.0000056
    2  -0.0000054
    3  -0.0000320
 Max gradient component =       3.395E-04
 RMS gradient           =       1.009E-04
 Gradient time:  CPU 38.23 s  wall 38.65 s
 Writing REM_CC_EA            7
 ----------------------------------------------------
       Standard Nuclear Orientation (Angstroms)
    I     Atom         X            Y            Z
 ----------------------------------------------------
    1      C      -0.000033     0.001000    -0.003969
    2      C       0.000003     0.000000     1.191681
    3      C      -0.000042     0.000000    -1.459818
    4      H       0.000060     0.000000     2.258409
    5      H       1.020828     0.000000    -1.845547
    6      H      -0.510408    -0.884088    -1.845724
    7      H      -0.510408     0.884088    -1.845724
 ----------------------------------------------------
 Nuclear Repulsion Energy =    58.9344885668 hartrees
 There are       11 alpha and       11 beta electrons

                       Distance Matrix (Angstroms)
             C (  1)   C (  2)   C (  3)   H (  4)   H (  5)   H (  6)
   C (  2)  1.195650
   C (  3)  1.455850  2.651499
   H (  4)  2.262378  1.066728  3.718227
   H (  5)  2.105605  3.204191  1.091313  4.228998
   H (  6)  2.106164  3.204365  1.091333  4.229195  1.768134
   H (  7)  2.105324  3.204365  1.091333  4.229195  1.768134  1.768176

 
 Requested basis set is G3large
 There are 54 shells and 166 basis functions
 A cutoff of  1.0D-11 yielded   1421 shell pairs
 There are  13582 function pairs ( 16777 Cartesian)
Evaluating contribution to one-electron hamiltonian from nuclear
 Smallest overlap matrix eigenvalue = 1.67E-06

 Q-Chem warning in module mkSTV.C, line 194:

 Overlap eigenvalue is smaller than square root of threshold

 Multipole matrices computed through 2nd order
 Guess MOs from SCF MO coefficient file
Reading MOs from coefficient file
Reading MOs from coefficient file
 Long-range K will be added via erf
 Coulomb attenuation parameter = 0.36 bohr**(-1)
 A restricted Kohn-Sham SCF calculation will be
 performed using Pulay DIIS extrapolation
 Exchange:  wPBE + LR-HF      Correlation:  PBE
 Using SG-1 standard quadrature grid
 SCF converges when DIIS error is below 1.0E-08
 ---------------------------------------
  Cycle       Energy         DIIS Error
 ---------------------------------------
    1    -116.5909307198      6.69E-05
    2    -116.5909288147      3.17E-06
    3    -116.5909288747      9.47E-07
    4    -116.5909288821      2.80E-07
    5    -116.5909288822      4.64E-08
    6    -116.5909288812      2.68E-08
    7    -116.5909288823      1.34E-08
    8    -116.5909288811      1.86E-09 Convergence criterion met
 ---------------------------------------
 One-Electron    Energy =  -272.1155843928
 Total Coulomb   Energy =   114.2067953562
 Alpha Exchange  Energy =    -1.9911640086
 Beta  Exchange  Energy =    -1.9911640086
 DFT   Exchange  Energy =   -12.9406009317
 DFT Correlation Energy =    -0.6936994624
 Nuclear Repu.   Energy =    58.9344885668
 Nuclear Attr.   Energy =  -388.1833064909
 Kinetic         Energy =   116.0677220981
 SCF time:  CPU 56.32 s  wall 57.12 s
 Final Alpha MO Eigenvalues
            1           2           3           4           5           6
    1 -10.1012062 -10.0836976 -10.0671917  -0.9131515  -0.8285466  -0.6443835
            7           8           9          10          11          12
    1  -0.5674717  -0.5513914  -0.5513809  -0.3826646  -0.3826547   0.0371708
           13          14          15          16
    1   0.0494205   0.0699292   0.0699345   0.1060322
 Analysis of SCF Wavefunction
 
 --------------------------------------------------------------
                    Orbital Energies (a.u.)
 --------------------------------------------------------------
 
 Alpha MOs
 -- Occupied --
-10.101 -10.084 -10.067  -0.913  -0.829  -0.644  -0.567  -0.551
 -0.551  -0.383  -0.383
 -- Virtual --
  0.037   0.049   0.070   0.070   0.106   0.113   0.113   0.144
  0.149   0.149   0.162   0.162   0.173   0.183   0.209   0.209
  0.253   0.272   0.272   0.285   0.299   0.356   0.401   0.523
  0.523   0.531   0.593   0.593   0.601   0.652   0.652   0.687
  0.687   0.713   0.713   0.731   0.745   0.745   0.761   0.786
  0.886   0.938   0.951   0.951   0.961   1.017   1.017   1.071
  1.117   1.176   1.176   1.258   1.258   1.383   1.383   1.400
  1.432   1.488   1.488   1.553   1.553   1.623   1.650   1.739
  1.740   1.870   2.181   2.467   2.468   2.665   2.687   2.742
  2.742   2.753   2.775   2.854   2.854   2.857   2.857   2.967
  3.004   3.078   3.100   3.101   3.168   3.177   3.177   3.182
  3.222   3.222   3.309   3.310   3.355   3.379   3.379   3.453
  3.453   3.503   3.503   3.512   3.653   3.653   3.696   3.868
  3.869   3.954   4.004   4.005   4.147   4.147   4.150   4.320
  4.321   4.329   4.480   4.561   4.573   4.573   4.857   4.858
  4.974   5.528   5.704   5.704   5.830   5.831   6.537   7.058
 23.539  24.359  25.561  27.381  27.381  27.651  27.651  27.983
 28.083  28.083  28.462  29.605  40.839  40.876  40.920  40.931
 41.107  41.107  41.114  41.118  41.144  41.172  41.209  41.240
 41.423  41.423  41.666
 --------------------------------------------------------------
 
          Ground-State Mulliken Net Atomic Charges

     Atom                 Charge (a.u.)
  ----------------------------------------
      1 C                     1.077437
      2 C                    -1.010972
      3 C                    -0.482675
      4 H                     0.106115
      5 H                     0.103383
      6 H                     0.103343
      7 H                     0.103369
  ----------------------------------------
  Sum of atomic charges =     0.000000

 -----------------------------------------------------------------
                    Cartesian Multipole Moments
 -----------------------------------------------------------------
    Charge (ESU x 10^10)
                 0.0000
    Dipole Moment (Debye)
         X       0.0001      Y      -0.0008      Z      -0.8200
       Tot       0.8200
    Quadrupole Moments (Debye-Ang)
        XX     -19.5782     XY       0.0001     YY     -19.5780
        XZ       0.0003     YZ      -0.0001     ZZ     -13.4637
    Octapole Moments (Debye-Ang^2)
       XXX       0.7866    XXY      -0.0063    XYY      -0.7852
       YYY      -0.0188    XXZ       1.1821    XYZ      -0.0001
       YYZ       1.1816    XZZ       0.0002    YZZ      -0.0097
       ZZZ      17.9702
    Hexadecapole Moments (Debye-Ang^3)
      XXXX     -29.1239   XXXY       0.0001   XXYY      -9.7080
      XYYY       0.0000   YYYY     -29.1240   XXXZ      -1.5254
      XXYZ      -0.0004   XYYZ       1.5234   YYYZ      -0.0012
      XXZZ     -36.8897   XYZZ       0.0009   YYZZ     -36.8884
      XZZZ       0.0011   YZZZ       0.0073   ZZZZ    -168.6206
 -----------------------------------------------------------------
 Calculating analytic gradient of the SCF energy
 Gradient of AOints
            1           2           3           4           5           6
    1   0.0027202  -0.0035786   0.0019660  -0.0003544  -2.8632866   1.4313312
    2  -0.0354961   0.0247114   0.0099775   0.0007421  -0.0000528   2.4795399
    3   7.5641291 -10.5201656   2.6889781  -4.0987232   1.4547927   1.4563691
            7
    1   1.4312022
    2  -2.4794221
    3   1.4546198
 Gradient of XC Energy
            1           2           3           4           5           6
    1  -0.0000661   0.0000854  -0.0000777   0.0000156   0.1680619  -0.0840110
    2   0.0011123  -0.0007260  -0.0003849  -0.0000110   0.0000049  -0.1455231
    3  -0.2785672   0.2121658   0.0520969   0.2138750  -0.0665109  -0.0665671
            7
    1  -0.0840080
    2   0.1455278
    3  -0.0664925
 Gradient of SCF Energy
            1           2           3           4           5           6
    1   0.0000122  -0.0000021  -0.0000067   0.0000007  -0.0000142   0.0000105
    2   0.0001924  -0.0000797  -0.0001287   0.0000084  -0.0000038   0.0000166
    3  -0.0001604   0.0000205   0.0003396  -0.0000081  -0.0000649  -0.0001179
            7
    1  -0.0000004
    2  -0.0000051
    3  -0.0000089
 Max gradient component =       3.396E-04
 RMS gradient           =       1.025E-04
 Gradient time:  CPU 33.01 s  wall 33.32 s
 Writing REM_CC_EA            7
 ----------------------------------------------------
       Standard Nuclear Orientation (Angstroms)
    I     Atom         X            Y            Z
 ----------------------------------------------------
    1      C      -0.000033    -0.001000    -0.003969
    2      C       0.000003     0.000000     1.191681
    3      C      -0.000042     0.000000    -1.459818
    4      H       0.000060     0.000000     2.258409
    5      H       1.020828     0.000000    -1.845547
    6      H      -0.510408    -0.884088    -1.845724
    7      H      -0.510408     0.884088    -1.845724
 ----------------------------------------------------
 Nuclear Repulsion Energy =    58.9344885669 hartrees
 There are       11 alpha and       11 beta electrons

                       Distance Matrix (Angstroms)
             C (  1)   C (  2)   C (  3)   H (  4)   H (  5)   H (  6)
   C (  2)  1.195650
   C (  3)  1.455850  2.651499
   H (  4)  2.262378  1.066728  3.718227
   H (  5)  2.105605  3.204191  1.091313  4.228998
   H (  6)  2.105324  3.204365  1.091333  4.229195  1.768134
   H (  7)  2.106164  3.204365  1.091333  4.229195  1.768134  1.768176

 
 Requested basis set is G3large
 There are 54 shells and 166 basis functions
 A cutoff of  1.0D-11 yielded   1421 shell pairs
 There are  13582 function pairs ( 16777 Cartesian)
Evaluating contribution to one-electron hamiltonian from nuclear
 Smallest overlap matrix eigenvalue = 1.67E-06

 Q-Chem warning in module mkSTV.C, line 194:

 Overlap eigenvalue is smaller than square root of threshold

 Multipole matrices computed through 2nd order
 Guess MOs from SCF MO coefficient file
Reading MOs from coefficient file
Reading MOs from coefficient file
 Long-range K will be added via erf
 Coulomb attenuation parameter = 0.36 bohr**(-1)
 A restricted Kohn-Sham SCF calculation will be
 performed using Pulay DIIS extrapolation
 Exchange:  wPBE + LR-HF      Correlation:  PBE
 Using SG-1 standard quadrature grid
 SCF converges when DIIS error is below 1.0E-08
 ---------------------------------------
  Cycle       Energy         DIIS Error
 ---------------------------------------
    1    -116.5909321210      9.47E-05
    2    -116.5909287457      4.48E-06
    3    -116.5909288706      1.34E-06
    4    -116.5909288819      3.96E-07
    5    -116.5909288842      6.84E-08
    6    -116.5909288823      4.54E-08
    7    -116.5909288840      1.75E-08
    8    -116.5909288831      2.61E-09 Convergence criterion met
 ---------------------------------------
 One-Electron    Energy =  -272.1155844386
 Total Coulomb   Energy =   114.2067954065
 Alpha Exchange  Energy =    -1.9911640088
 Beta  Exchange  Energy =    -1.9911640088
 DFT   Exchange  Energy =   -12.9406009376
 DFT Correlation Energy =    -0.6936994627
 Nuclear Repu.   Energy =    58.9344885669
 Nuclear Attr.   Energy =  -388.1833065650
 Kinetic         Energy =   116.0677221264
 SCF time:  CPU 56.63 s  wall 58.16 s
 Final Alpha MO Eigenvalues
            1           2           3           4           5           6
    1 -10.1012062 -10.0836976 -10.0671917  -0.9131515  -0.8285466  -0.6443835
            7           8           9          10          11          12
    1  -0.5674717  -0.5513914  -0.5513808  -0.3826646  -0.3826547   0.0371708
           13          14          15          16
    1   0.0494205   0.0699292   0.0699345   0.1060322
 Analysis of SCF Wavefunction
 
 --------------------------------------------------------------
                    Orbital Energies (a.u.)
 --------------------------------------------------------------
 
 Alpha MOs
 -- Occupied --
-10.101 -10.084 -10.067  -0.913  -0.829  -0.644  -0.567  -0.551
 -0.551  -0.383  -0.383
 -- Virtual --
  0.037   0.049   0.070   0.070   0.106   0.113   0.113   0.144
  0.149   0.149   0.162   0.162   0.173   0.183   0.209   0.209
  0.253   0.272   0.272   0.285   0.299   0.356   0.401   0.523
  0.523   0.531   0.593   0.593   0.601   0.652   0.652   0.687
  0.687   0.713   0.713   0.731   0.745   0.745   0.761   0.786
  0.886   0.938   0.951   0.951   0.961   1.017   1.017   1.071
  1.117   1.176   1.176   1.258   1.258   1.383   1.383   1.400
  1.432   1.488   1.488   1.553   1.553   1.623   1.650   1.739
  1.740   1.870   2.181   2.467   2.468   2.665   2.687   2.742
  2.742   2.753   2.775   2.854   2.854   2.857   2.857   2.967
  3.004   3.078   3.100   3.101   3.168   3.177   3.177   3.182
  3.222   3.222   3.309   3.310   3.355   3.379   3.379   3.453
  3.453   3.503   3.503   3.512   3.653   3.653   3.696   3.868
  3.869   3.954   4.004   4.005   4.147   4.147   4.150   4.320
  4.321   4.329   4.480   4.561   4.573   4.573   4.857   4.858
  4.974   5.528   5.704   5.704   5.830   5.831   6.537   7.058
 23.539  24.359  25.561  27.381  27.381  27.651  27.651  27.983
 28.083  28.083  28.462  29.605  40.839  40.876  40.920  40.931
 41.107  41.107  41.114  41.118  41.144  41.172  41.209  41.240
 41.423  41.423  41.666
 --------------------------------------------------------------
 
          Ground-State Mulliken Net Atomic Charges

     Atom                 Charge (a.u.)
  ----------------------------------------
      1 C                     1.077436
      2 C                    -1.010971
      3 C                    -0.482675
      4 H                     0.106115
      5 H                     0.103383
      6 H                     0.103369
      7 H                     0.103343
  ----------------------------------------
  Sum of atomic charges =     0.000000

 -----------------------------------------------------------------
                    Cartesian Multipole Moments
 -----------------------------------------------------------------
    Charge (ESU x 10^10)
                 0.0000
    Dipole Moment (Debye)
         X       0.0001      Y       0.0008      Z      -0.8200
       Tot       0.8200
    Quadrupole Moments (Debye-Ang)
        XX     -19.5782     XY      -0.0001     YY     -19.5780
        XZ       0.0003     YZ       0.0001     ZZ     -13.4637
    Octapole Moments (Debye-Ang^2)
       XXX       0.7866    XXY       0.0063    XYY      -0.7852
       YYY       0.0188    XXZ       1.1821    XYZ       0.0001
       YYZ       1.1816    XZZ       0.0002    YZZ       0.0097
       ZZZ      17.9702
    Hexadecapole Moments (Debye-Ang^3)
      XXXX     -29.1239   XXXY      -0.0001   XXYY      -9.7080
      XYYY       0.0000   YYYY     -29.1240   XXXZ      -1.5254
      XXYZ       0.0004   XYYZ       1.5234   YYYZ       0.0012
      XXZZ     -36.8897   XYZZ      -0.0009   YYZZ     -36.8884
      XZZZ       0.0011   YZZZ      -0.0073   ZZZZ    -168.6206
 -----------------------------------------------------------------
 Calculating analytic gradient of the SCF energy
 Gradient of AOints
            1           2           3           4           5           6
    1   0.0027203  -0.0035797   0.0019672  -0.0003545  -2.8632866   1.4312022
    2   0.0354921  -0.0247115  -0.0099733  -0.0007423   0.0000528   2.4794220
    3   7.5641317 -10.5201695   2.6889795  -4.0987231   1.4547926   1.4546197
            7
    1   1.4313312
    2  -2.4795399
    3   1.4563691
 Gradient of XC Energy
            1           2           3           4           5           6
    1  -0.0000661   0.0000854  -0.0000778   0.0000156   0.1680619  -0.0840080
    2  -0.0011122   0.0007260   0.0003848   0.0000110  -0.0000049  -0.1455278
    3  -0.2785673   0.2121659   0.0520968   0.2138750  -0.0665109  -0.0664925
            7
    1  -0.0840110
    2   0.1455231
    3  -0.0665671
 Gradient of SCF Energy
            1           2           3           4           5           6
    1   0.0000122  -0.0000021  -0.0000067   0.0000007  -0.0000142  -0.0000004
    2  -0.0001924   0.0000797   0.0001287  -0.0000084   0.0000038   0.0000051
    3  -0.0001604   0.0000205   0.0003396  -0.0000081  -0.0000649  -0.0000089
            7
    1   0.0000105
    2  -0.0000166
    3  -0.0001179
 Max gradient component =       3.396E-04
[...]
    1   0.0047023  -0.0000003   0.0332569  -0.0003117   0.0029025  -0.0166378
    2  -0.0000005  -0.0020009   0.0000009   0.0028972   0.0030314  -0.0288306
    3   0.0018962  -0.0000019  -0.0170167  -0.0009607  -0.0016508  -0.0170482
    4  -0.0001497  -0.0000001  -0.0019759   0.0004912  -0.0003719   0.0009849
    5   0.0000002   0.0007054   0.0000000  -0.0003711   0.0000604   0.0017054
    6  -0.0015740   0.0000035  -0.0011520   0.0007908   0.0013665  -0.0011578
    7  -0.2899854   0.0000003   0.0896455  -0.1058267  -0.1063425  -0.0448396
    8   0.0000003  -0.0444220  -0.0000013  -0.1063538  -0.2285992  -0.0775635
    9   0.0887800  -0.0000018  -0.0771783  -0.0444138  -0.0768826  -0.0770932
   10  -0.0001042   0.0000001  -0.0011077   0.0000563  -0.0000928   0.0005537
   11  -0.0000002   0.0001093   0.0000000  -0.0000927  -0.0000511   0.0009588
   12   0.0000529  -0.0000000   0.0000556  -0.0000240  -0.0000453   0.0000523
   13   0.3102588   0.0000002  -0.0977204  -0.0123588   0.0012542   0.0042839
   14   0.0000002   0.0435313   0.0000005  -0.0244739   0.0010383   0.0102770
   15  -0.0977204   0.0000005   0.0875087  -0.0110488   0.0014240   0.0038907
   16  -0.0123588  -0.0244739  -0.0110488   0.1102023   0.1155227   0.0488899
   17   0.0012542   0.0010383   0.0014240   0.1155227   0.2435733   0.0846185
   18   0.0042839   0.0102770   0.0038907   0.0488899   0.0846185   0.0874689
   19  -0.0123592   0.0244733  -0.0110491   0.0077489  -0.0128719   0.0067655
   20  -0.0012536   0.0010390  -0.0014239   0.0128713  -0.0190532   0.0088323
   21   0.0042847  -0.0102767   0.0038905   0.0067645  -0.0088335   0.0038846
           19          20          21
    1  -0.0003153  -0.0029015  -0.0166368
    2  -0.0028990   0.0030316   0.0288298
    3  -0.0009581   0.0016545  -0.0170422
    4   0.0004913   0.0003716   0.0009844
    5   0.0003710   0.0000613  -0.0017047
    6   0.0007901  -0.0013700  -0.0011608
    7  -0.1058215   0.1063401  -0.0448401
    8   0.1063577  -0.2286005   0.0775622
    9  -0.0444140   0.0768826  -0.0770926
   10   0.0000559   0.0000928   0.0005533
   11   0.0000923  -0.0000509  -0.0009582
   12  -0.0000245   0.0000437   0.0000512
   13  -0.0123592  -0.0012536   0.0042847
   14   0.0244733   0.0010390  -0.0102767
   15  -0.0110491  -0.0014239   0.0038905
   16   0.0077489   0.0128713   0.0067645
   17  -0.0128719  -0.0190532  -0.0088335
   18   0.0067655   0.0088323   0.0038846
   19   0.1102021  -0.1155220   0.0488898
   20  -0.1155220   0.2435735  -0.0846176
   21   0.0488898  -0.0846176   0.0874693
 Writing REM_CC_EA            7
 ----------------------------------------------------
       Standard Nuclear Orientation (Angstroms)
    I     Atom         X            Y            Z
 ----------------------------------------------------
    1      C      -0.000033     0.000000    -0.003969
    2      C       0.000003     0.000000     1.191681
    3      C      -0.000042     0.000000    -1.459818
    4      H       0.000060     0.000000     2.258409
    5      H       1.020828     0.000000    -1.845547
    6      H      -0.510408    -0.884088    -1.845724
    7      H      -0.510408     0.884088    -1.845724
 ----------------------------------------------------
 Nuclear Repulsion Energy =    58.9344976938 hartrees
 There are       11 alpha and       11 beta electrons
 old dipole drv.
            1           2           3           4           5           6
    1  -0.1605385   0.0000005  -0.0000032  -0.2590123   0.0000033  -0.0000029
    2  -0.0000003  -0.1606062   0.0000054  -0.0000005  -0.2590191   0.0000315
    3  -0.0000018   0.0000023   0.3458312  -0.0000564  -0.0000011  -0.5319636
            7           8           9          10          11          12
    1   0.0889960   0.0000223   0.0000857   0.2221321  -0.0000161  -0.0000027
    2  -0.0000014   0.0889872  -0.0000036   0.0000001   0.2221290  -0.0000104
    3   0.0000790   0.0000018   0.0027277   0.0000059   0.0000000   0.2018430
           13          14          15          16          17          18
    1  -0.0331786  -0.0000135   0.0223726   0.0708569  -0.0600195  -0.0112063
    2   0.0000015   0.1054388  -0.0000052  -0.0600688   0.0014865  -0.0194227
    3   0.0618277  -0.0000171  -0.0061434  -0.0308961  -0.0535354  -0.0061793
           19          20          21
    1   0.0707761   0.0600258  -0.0111834
    2   0.0600133   0.0014610   0.0193751
    3  -0.0308969   0.0535168  -0.0061899
 New transposed dipole drv.
            1           2           3
    1  -0.1605385  -0.0000003  -0.0000018
    2   0.0000005  -0.1606062   0.0000023
    3  -0.0000032   0.0000054   0.3458312
    4  -0.2590123  -0.0000005  -0.0000564
    5   0.0000033  -0.2590191  -0.0000011
    6  -0.0000029   0.0000315  -0.5319636
    7   0.0889960  -0.0000014   0.0000790
    8   0.0000223   0.0889872   0.0000018
    9   0.0000857  -0.0000036   0.0027277
   10   0.2221321   0.0000001   0.0000059
   11  -0.0000161   0.2221290   0.0000000
   12  -0.0000027  -0.0000104   0.2018430
   13  -0.0331786   0.0000015   0.0618277
   14  -0.0000135   0.1054388  -0.0000171
   15   0.0223726  -0.0000052  -0.0061434
   16   0.0708569  -0.0600688  -0.0308961
   17  -0.0600195   0.0014865  -0.0535354
   18  -0.0112063  -0.0194227  -0.0061793
   19   0.0707761   0.0600133  -0.0308969
   20   0.0600258   0.0014610   0.0535168
   21  -0.0111834   0.0193751  -0.0061899
FINAL TENSOR RESULT:
Order 2, Length 21
Order 1, Length 21
   0.1018391   0.0000001   0.0000090  -0.0421702   0.0000002  -0.0000364  -0.0681644  -0.0000002   0.0000477   0.0044187  -0.0000004  -0.0000003   0.0047023  -0.0000003   0.0332569  -0.0003117   0.0029025  -0.0166378  -0.0003153  -0.0029015  -0.0166368
Order 1, Length 21
   0.0000001   0.1018132   0.0000004   0.0000001  -0.0421730   0.0000012   0.0000002  -0.0681252  -0.0000010  -0.0000001   0.0044193  -0.0000003  -0.0000005  -0.0020009   0.0000009   0.0028972   0.0030314  -0.0288306  -0.0028990   0.0030316   0.0288298
Order 1, Length 21
   0.0000090   0.0000004   1.4866114  -0.0000351   0.0000012  -1.1356401   0.0000296   0.0000003  -0.3039165  -0.0000009  -0.0000003   0.0040521   0.0018962  -0.0000019  -0.0170167  -0.0009607  -0.0016508  -0.0170482  -0.0009581   0.0016545  -0.0170422
Order 1, Length 21
  -0.0421702   0.0000001  -0.0000351   0.0572315   0.0000001   0.0000526   0.0092288  -0.0000001   0.0000097  -0.0251199   0.0000003  -0.0000218  -0.0001497  -0.0000001  -0.0019759   0.0004912  -0.0003719   0.0009849   0.0004913   0.0003716   0.0009844
Order 1, Length 21
   0.0000002  -0.0421730   0.0000012   0.0000001   0.0572330  -0.0000011  -0.0000003   0.0092347   0.0000006  -0.0000001  -0.0251197  -0.0000002   0.0000002   0.0007054   0.0000000  -0.0003711   0.0000604   0.0017054   0.0003710   0.0000613  -0.0017047
Order 1, Length 21
  -0.0000364   0.0000012  -1.1356401   0.0000526  -0.0000011   1.5575458   0.0000079  -0.0000002  -0.0053212  -0.0000206  -0.0000006  -0.4131192  -0.0015740   0.0000035  -0.0011520   0.0007908   0.0013665  -0.0011578   0.0007901  -0.0013700  -0.0011608
Order 1, Length 21
  -0.0681644   0.0000002   0.0000296   0.0092288  -0.0000003   0.0000079   0.5555922  -0.0000005  -0.0000072   0.0049672   0.0000004   0.0000024  -0.2899854   0.0000003   0.0896455  -0.1058267  -0.1063425  -0.0448396  -0.1058215   0.1063401  -0.0448401
Order 1, Length 21
  -0.0000002  -0.0681252   0.0000003  -0.0000001   0.0092347  -0.0000002  -0.0000005   0.5555419   0.0000019   0.0000002   0.0049691  -0.0000005   0.0000003  -0.0444220  -0.0000013  -0.1063538  -0.2285992  -0.0775635   0.1063577  -0.2286005   0.0775622
Order 1, Length 21
   0.0000477  -0.0000010  -0.3039165   0.0000097   0.0000006  -0.0053212  -0.0000072   0.0000019   0.5401385  -0.0000000  -0.0000002   0.0004730   0.0887800  -0.0000018  -0.0771783  -0.0444138  -0.0768826  -0.0770932  -0.0444140   0.0768826  -0.0770926
Order 1, Length 21
   0.0044187  -0.0000001  -0.0000009  -0.0251199  -0.0000001  -0.0000206   0.0049672   0.0000002  -0.0000000   0.0157266   0.0000000   0.0000219  -0.0001042   0.0000001  -0.0011077   0.0000563  -0.0000928   0.0005537   0.0000559   0.0000928   0.0005533
Order 1, Length 21
  -0.0000004   0.0044193  -0.0000003   0.0000003  -0.0251197  -0.0000006   0.0000004   0.0049691  -0.0000002   0.0000000   0.0157251   0.0000006  -0.0000002   0.0001093   0.0000000  -0.0000927  -0.0000511   0.0009588   0.0000923  -0.0000509  -0.0009582
Order 1, Length 21
  -0.0000003  -0.0000003   0.0040521  -0.0000218  -0.0000002  -0.4131192   0.0000024  -0.0000005   0.0004730   0.0000219   0.0000006   0.4084352   0.0000529  -0.0000000   0.0000556  -0.0000240  -0.0000453   0.0000523  -0.0000245   0.0000437   0.0000512
Order 1, Length 21
   0.0047023  -0.0000005   0.0018962  -0.0001497   0.0000002  -0.0015740  -0.2899854   0.0000003   0.0887800  -0.0001042  -0.0000002   0.0000529   0.3102588   0.0000002  -0.0977204  -0.0123588   0.0012542   0.0042839  -0.0123592  -0.0012536   0.0042847
Order 1, Length 21
  -0.0000003  -0.0020009  -0.0000019  -0.0000001   0.0007054   0.0000035   0.0000003  -0.0444220  -0.0000018   0.0000001   0.0001093  -0.0000000   0.0000002   0.0435313   0.0000005  -0.0244739   0.0010383   0.0102770   0.0244733   0.0010390  -0.0102767
Order 1, Length 21
   0.0332569   0.0000009  -0.0170167  -0.0019759   0.0000000  -0.0011520   0.0896455  -0.0000013  -0.0771783  -0.0011077   0.0000000   0.0000556  -0.0977204   0.0000005   0.0875087  -0.0110488   0.0014240   0.0038907  -0.0110491  -0.0014239   0.0038905
Order 1, Length 21
  -0.0003117   0.0028972  -0.0009607   0.0004912  -0.0003711   0.0007908  -0.1058267  -0.1063538  -0.0444138   0.0000563  -0.0000927  -0.0000240  -0.0123588  -0.0244739  -0.0110488   0.1102023   0.1155227   0.0488899   0.0077489   0.0128713   0.0067645
Order 1, Length 21
   0.0029025   0.0030314  -0.0016508  -0.0003719   0.0000604   0.0013665  -0.1063425  -0.2285992  -0.0768826  -0.0000928  -0.0000511  -0.0000453   0.0012542   0.0010383   0.0014240   0.1155227   0.2435733   0.0846185  -0.0128719  -0.0190532  -0.0088335
Order 1, Length 21
  -0.0166378  -0.0288306  -0.0170482   0.0009849   0.0017054  -0.0011578  -0.0448396  -0.0775635  -0.0770932   0.0005537   0.0009588   0.0000523   0.0042839   0.0102770   0.0038907   0.0488899   0.0846185   0.0874689   0.0067655   0.0088323   0.0038846
Order 1, Length 21
  -0.0003153  -0.0028990  -0.0009581   0.0004913   0.0003710   0.0007901  -0.1058215   0.1063577  -0.0444140   0.0000559   0.0000923  -0.0000245  -0.0123592   0.0244733  -0.0110491   0.0077489  -0.0128719   0.0067655   0.1102021  -0.1155220   0.0488898
Order 1, Length 21
  -0.0029015   0.0030316   0.0016545   0.0003716   0.0000613  -0.0013700   0.1063401  -0.2286005   0.0768826   0.0000928  -0.0000509   0.0000437  -0.0012536   0.0010390  -0.0014239   0.0128713  -0.0190532   0.0088323  -0.1155220   0.2435735  -0.0846176
Order 1, Length 21
  -0.0166368   0.0288298  -0.0170422   0.0009844  -0.0017047  -0.0011608  -0.0448401   0.0775622  -0.0770926   0.0005533  -0.0009582   0.0000512   0.0042847  -0.0102767   0.0038905   0.0067645  -0.0088335   0.0038846   0.0488898  -0.0846176   0.0874693


 # Finishing finite difference calculation for IDERIV #
 ######################################################
 ######################################################
 Requested basis set is G3large
 There are 54 shells and 166 basis functions
 **********************************************************************
 **                                                                  **
 **                       VIBRATIONAL ANALYSIS                       **
 **                       --------------------                       **
 **                                                                  **
 **        VIBRATIONAL FREQUENCIES (CM**-1) AND NORMAL MODES         **
 **     FORCE CONSTANTS (mDYN/ANGSTROM) AND REDUCED MASSES (AMU)     **
 **                  INFRARED INTENSITIES (KM/MOL)                   **
 **                                                                  **
 **********************************************************************
 

 Mode:                 1                      2                      3
 Frequency:       364.10                 364.22                 722.79
 Force Cnst:      0.2126                 0.2126                 0.3977
 Red. Mass:       2.7218                 2.7206                 1.2919
 IR Active:          YES                    YES                    YES
 IR Intens:       13.059                 13.062                 46.208
 Raman Active:       YES                    YES                    YES
               X      Y      Z        X      Y      Z        X      Y      Z
 C          0.016  0.352  0.000    0.352 -0.016  0.000    0.001  0.057  0.000
 C         -0.007 -0.160  0.000   -0.160  0.007  0.000   -0.003 -0.150  0.000
 C         -0.004 -0.079  0.000   -0.079  0.004  0.000    0.000  0.011  0.000
 H         -0.025 -0.557  0.000   -0.557  0.025  0.000    0.023  0.985  0.000
 H         -0.012 -0.266 -0.021   -0.258  0.012 -0.466    0.000 -0.006 -0.001
 H         -0.009 -0.260  0.414   -0.265  0.015  0.215    0.000 -0.005  0.038
 H         -0.015 -0.260 -0.393   -0.264  0.008  0.252    0.000 -0.005 -0.037
 TransDip  -0.005 -0.116  0.000   -0.116  0.005  0.000    0.005  0.218  0.000

 Mode:                 4                      5                      6
 Frequency:       722.81                 960.32                1050.60
 Force Cnst:      0.3977                 2.0410                 0.9296
 Red. Mass:       1.2919                 3.7564                 1.4294
 IR Active:          YES                    YES                    YES
 IR Intens:       46.209                  0.172                  0.944
 Raman Active:       YES                    YES                    YES
               X      Y      Z        X      Y      Z        X      Y      Z
 C          0.057 -0.001  0.000    0.000  0.000 -0.175    0.116  0.000  0.000
 C         -0.150  0.003  0.000    0.000  0.000 -0.286   -0.016  0.000  0.000
 C          0.011  0.000  0.000    0.000  0.000  0.371   -0.157  0.000  0.000
 H          0.985 -0.023  0.000    0.000  0.000 -0.315   -0.038  0.000  0.000
 H         -0.005  0.000 -0.043    0.030  0.000  0.465    0.124  0.001  0.704
 H         -0.006  0.000  0.021   -0.015 -0.026  0.465    0.299 -0.100 -0.354
 H         -0.006  0.000  0.022   -0.015  0.026  0.465    0.300  0.101 -0.352
 TransDip   0.218 -0.005  0.000    0.000  0.000  0.013    0.031  0.000  0.000

 Mode:                 7                      8                      9
 Frequency:      1051.08                1409.90                1473.67
 Force Cnst:      0.9301                 1.4799                 1.3281
 Red. Mass:       1.4290                 1.2636                 1.0380
 IR Active:          YES                    YES                    YES
 IR Intens:        0.943                  0.693                 10.665
 Raman Active:       YES                    YES                    YES
               X      Y      Z        X      Y      Z        X      Y      Z
 C          0.000  0.116  0.000    0.000  0.000 -0.001    0.000 -0.022  0.000
 C          0.000 -0.016  0.000    0.000  0.000 -0.019    0.000  0.002  0.000
 C          0.000 -0.157  0.000    0.000  0.000  0.151    0.000 -0.048  0.000
 H          0.000 -0.038  0.000    0.000  0.000 -0.023    0.000  0.006  0.000
 H          0.000  0.357 -0.001   -0.243  0.000 -0.517   -0.001  0.700 -0.002
 H         -0.101  0.183 -0.610    0.121  0.211 -0.516   -0.376  0.043  0.330
 H          0.100  0.183  0.611    0.121 -0.211 -0.516    0.381  0.046 -0.328
 TransDip   0.000  0.031  0.000    0.000  0.000 -0.027    0.000  0.105  0.000

 Mode:                10                     11                     12
 Frequency:      1473.85                2269.22                3076.75
 Force Cnst:      1.3284                17.5498                 5.7779
 Red. Mass:       1.0379                 5.7845                 1.0359
 IR Active:          YES                    YES                    YES
 IR Intens:       10.668                  9.605                 10.103
 Raman Active:       YES                    YES                    YES
               X      Y      Z        X      Y      Z        X      Y      Z
 C         -0.022  0.000  0.000    0.000  0.000  0.533    0.000  0.000 -0.001
 C          0.002  0.000  0.000    0.000  0.000 -0.379    0.000  0.000  0.000
 C         -0.048  0.000  0.000    0.000  0.000 -0.082    0.000  0.000  0.051
 H          0.006  0.000  0.000    0.000  0.000 -0.748    0.000  0.000 -0.002
 H         -0.174 -0.003 -0.380    0.018  0.000 -0.039    0.542  0.000 -0.197
 H          0.483 -0.379  0.188   -0.009 -0.015 -0.039   -0.271 -0.469 -0.196
 H          0.480  0.378  0.191   -0.009  0.015 -0.039   -0.271  0.469 -0.196
 TransDip   0.105 -0.001  0.000    0.000  0.000  0.099    0.000  0.000  0.102

 Mode:                13                     14                     15
 Frequency:      3155.71                3155.73                3460.58
 Force Cnst:      6.4687                 6.4687                 8.2424
 Red. Mass:       1.1025                 1.1025                 1.1682
 IR Active:          YES                    YES                    YES
 IR Intens:        3.032                  3.036                 62.761
 Raman Active:       YES                    YES                    YES
               X      Y      Z        X      Y      Z        X      Y      Z
 C         -0.001  0.000  0.000    0.000 -0.001  0.000    0.000  0.000  0.034
 C          0.000  0.000  0.000    0.000  0.000  0.000    0.000  0.000 -0.116
 C         -0.091  0.017  0.000   -0.017 -0.091  0.000    0.000  0.000 -0.002
 H          0.000  0.000  0.000    0.000  0.000  0.000    0.000  0.000  0.993
 H          0.746  0.003 -0.284    0.141 -0.018 -0.054    0.002  0.000 -0.001
 H          0.111  0.226  0.096    0.364  0.618  0.272   -0.001 -0.002 -0.001
 H          0.236 -0.436  0.188   -0.298  0.493 -0.219   -0.001  0.002 -0.001
 TransDip  -0.055  0.010  0.000   -0.010 -0.055  0.000    0.000  0.000  0.254

 STANDARD THERMODYNAMIC QUANTITIES AT   298.18 K  AND     1.00 ATM

   This Molecule has  0 Imaginary Frequencies
   Zero point vibrational energy:       35.327 kcal/mol

   Atom    1 Element C  Has Mass   12.00000
   Atom    2 Element C  Has Mass   12.00000
   Atom    3 Element C  Has Mass   12.00000
   Atom    4 Element H  Has Mass    1.00783
   Atom    5 Element H  Has Mass    1.00783
   Atom    6 Element H  Has Mass    1.00783
   Atom    7 Element H  Has Mass    1.00783
   Molecular Mass:    40.031320 amu
   Principal axes and moments of inertia in atomic units:
                             1           2           3
    Eigenvalues --       11.25181   209.09049   209.09085
          X               0.00002     0.00002     1.00000
          Y               0.00000     1.00000    -0.00002
          Z               1.00000     0.00000    -0.00002
   Rotational Symmetry Number is   1
   The Molecule is an Asymmetric Top
   Translational Enthalpy:        0.889 kcal/mol
   Rotational Enthalpy:           0.889 kcal/mol
   Vibrational Enthalpy:         35.968 kcal/mol
   gas constant (RT):             0.593 kcal/mol
   Translational Entropy:        36.989  cal/mol.K
   Rotational Entropy:           20.825  cal/mol.K
   Vibrational Entropy:           3.076  cal/mol.K

   Total Enthalpy:               38.338 kcal/mol
   Total Entropy:                60.890  cal/mol.K
 Total job time:  3914.69s(wall), 3844.70s(cpu) 
 Wed May  1 13:37:03 2013

        *************************************************************
        *                                                           *
        *  Thank you very much for using Q-Chem.  Have a nice day.  *
        *                                                           *
        *************************************************************


0 sent ACK to 0 
now end server 0 ... 
