Process 0 of 1 is on cl134 - thread support 1
initial socket setup ...start
initial socket setup ...done 
now start server 0 ... 

cmd = /usr/bin/ssh clhead /usr/local/qchem/bin/get_hostid 479697210 > /tmp/1591940.1.medium.q/qchem2965/lic.dat

cmd = /usr/bin/ssh clhead /usr/local/qchem/bin/get_hostid 479697210 > /tmp/1591940.1.medium.q/qchem2965/lic.dat

cmd = /usr/bin/ssh clhead /usr/local/qchem/bin/get_hostid 479697210 > /tmp/1591940.1.medium.q/qchem2965/lic.dat

cmd = /usr/bin/ssh clhead /usr/local/qchem/bin/get_hostid 479697210 > /tmp/1591940.1.medium.q/qchem2965/lic.dat

cmd = /usr/bin/ssh clhead /usr/local/qchem/bin/get_hostid 479697210 > /tmp/1591940.1.medium.q/qchem2965/lic.dat
                  Welcome to Q-Chem
     A Quantum Leap Into The Future Of Chemistry

 Y. Shao, L. Fusti-Molnar, Y. Jung, J. Kussmann, C. Ochsenfeld,
 S. T. Brown, A. T. B. Gilbert, L. V. Slipchenko,S. V. Levchenko,
 D. P. O'Neill, R. A. DiStasio Jr., R. C. Lochan, T. Wang,
 G. J. O. Beran, N. A. Besley, J. M. Herbert, C. Y. Lin,
 T. Van Voorhis, S. H. Chien, A. Sodt, R. P. Steele, 
 V. A. Rassolov, P. E. Maslen, P. P. Korambath, R. D. Adamson,
 B. Austin, J. Baker, E. F. C. Byrd, H. Dachsel, R. J. Doerksen,
 A. Dreuw, B. D. Dunietz, A. D. Dutoi, T. R. Furlani,
 S. R. Gwaltney, A. Heyden, S. Hirata, C.-P. Hsu, G. Kedziora,
 R. Z. Khaliullin, P. Klunzinger, A. M. Lee, M. S. Lee, W. Liang,
 I. Lotan, N. Nair, B. Peters, E. I. Proynov, P. A. Pieniazek, 
 Y. M. Rhee, J. Ritchie, E. Rosta, C. D. Sherrill, 
 A. C. Simmonett, J. E. Subotnik, H. L. Woodcock III,
 W. Zhang, A. T. Bell, A. K. Chakraborty, D. M. Chipman,
 F. J. Keil, A. Warshel, W. J. Hehre, H. F. Schaefer III,
 J. Kong, A. I. Krylov, P. M. W. Gill, M. Head-Gordon,
 Q-Chem, Version 3.1, Q-Chem, Inc., Pittsburgh, PA (2007).

 Additional authors for Version 3.1: 
 Z. Gan, Y. Zhao, N. E. Schultz, D. Truhlar, E. Epifanovsky and M. Oana.

 Additional authors for Version 3.2: 
 R. Baer, B. R. Brooks, D. Casanova, J.-D. Chai, C.-L. Cheng, 
 C. Cramer, D. Crittenden, A. Ghysels, G. Hawkins, E. G. Hohenstein, 
 C. Kelley, W. Kurlancheek, D. Liotard, E. Livshits, P. Manohar, 
 A. Marenich, D. Neuhauser, R. Olson, M. A. Rohrdanz, K. S. Thanthiriwatte, 
 A. J. W. Thom, V. Vanovschi, C. F. Williams, Q. Wu and Z.-Q. You. 


 Intel X86 Linux Version

 Q-chem begins on Tue Mar 18 15:02:02 2014  

 Parallel job on  1  processors
Processing $rem in /usr/local/qchem/config/preferences.

theFileMan(): MAXOPENFILES=974 MAX_SUB_FILE_NUM=16
Maximum size of a physical file is 2.0 GB, maximum size of a tmp-file is 32.0 GB


--------------------------------------------------------------
User input:
--------------------------------------------------------------

$molecule
-1,2
C          0.00000        0.00000        0.00383
C          0.00000        0.00000        1.34300
Cl         1.44281        0.00000       -0.90583
Cl        -1.44281        0.00000       -0.90583
Cl        -1.44281        0.00000        2.25266
Cl         1.44281        0.00000        2.25266
$end

$comment
negative
$end

$xc_functional
C PBE   1.00
X wPBE  1.00
$end

$rem
SYMMETRY_DECOMPOSITION	0
exchange 		general
LRC_DFT                 true
BASIS                   g3large
omega			2000
mem_static              760
max_scf_cycles          200
scf_final_print         1
sym_ignore              true
$end

--------------------------------------------------------------
 Writing REM_CC_EA            6
 ----------------------------------------------------
       Standard Nuclear Orientation (Angstroms)
    I     Atom         X            Y            Z
 ----------------------------------------------------
    1      C       0.000000     0.000000     0.003830
    2      C       0.000000     0.000000     1.343000
    3      Cl      1.442810     0.000000    -0.905830
    4      Cl     -1.442810     0.000000    -0.905830
    5      Cl     -1.442810     0.000000     2.252660
    6      Cl      1.442810     0.000000     2.252660
 ----------------------------------------------------
 Nuclear Repulsion Energy =   495.9436981448 hartrees
 There are       41 alpha and       40 beta electrons
 Requested basis set is G3large
 There are 96 shells and 348 basis functions

Total QAlloc Memory Limit   2000 MB
Mega-Array Size       743 MB
MEM_STATIC part       760 MB

                       Distance Matrix (Angstroms)
             C (  1)   C (  2)   Cl(  3)   Cl(  4)   Cl(  5)
   C (  2)  1.339170
   Cl(  3)  1.705632  2.671879
   Cl(  4)  1.705632  2.671879  2.885620
   Cl(  5)  2.671879  1.705632  4.278184  3.158490
   Cl(  6)  2.671879  1.705632  3.158490  4.278184  2.885620
 
 A cutoff of  1.0D-08 yielded   3466 shell pairs
 There are  47748 function pairs ( 66451 Cartesian)
Evaluating contribution to one-electron hamiltonian from nuclear
 Smallest overlap matrix eigenvalue = 9.71E-06

 Q-Chem warning in module mkSTV.C, line 194:

 Overlap eigenvalue is smaller than square root of threshold

 Multipole matrices computed through 2nd order

  Scale SEOQF with 1.000000e-01/1.000000e-01/1.000000e-01

 Standard Electronic Orientation quadrupole field applied
 Nucleus-field energy     =    -0.0000000176 hartrees
 Guess from superposition of atomic densities
 Warning:  Energy on first SCF cycle will be non-variational
 Long-range K will be added via erf
 Coulomb attenuation parameter = 2 bohr**(-1)
 An unrestricted Kohn-Sham SCF calculation will be
 performed using Pulay DIIS extrapolation
 Exchange:  wPBE + LR-HF      Correlation:  PBE
 Using SG-1 standard quadrature grid
 SCF converges when DIIS error is below 1.0E-05
 Requested basis set is G3large
 There are 96 shells and 348 basis functions
 A cutoff of  1.0D-08 yielded   3466 shell pairs
 There are  47748 function pairs ( 66451 Cartesian)
 Warning!  Inaccurate integrated density:
   Number of electrons =    81
   Numerical integral  =    80.000163028812
   Relative error      =    -1.2343666311 %
 ---------------------------------------
  Cycle       Energy         DIIS Error
 ---------------------------------------
    1   -1918.8054911555      2.11E-02
    2   -1916.8781541583      1.93E-03
    3   -1916.9480331345      1.26E-03
    4   -1916.9743951624      4.29E-04
    5   -1916.9835989918      1.52E-04
    6   -1916.9872349770      1.01E-04
    7   -1916.9900709510      7.64E-05
    8   -1916.9929701272      6.14E-05
    9   -1916.9968938893      3.25E-05
   10   -1916.9976346497      4.02E-05
   11   -1916.9987718703      2.05E-05
   12   -1916.9993502505      1.97E-05
   13   -1916.9998282608      1.57E-05
   14   -1917.0002323791      1.45E-05
   15   -1917.0005613829      1.05E-05
   16   -1917.0006014078      9.41E-06 Convergence criterion met
 ---------------------------------------
 One-Electron    Energy = -3642.8019760299
 Total Coulomb   Energy =  1353.9052842531
 Alpha Exchange  Energy =   -27.3804598606
 Beta  Exchange  Energy =   -27.2406206704
 DFT   Exchange  Energy =   -66.3171974518
 DFT Correlation Energy =    -3.1093297754
 Nuclear Repu.   Energy =   495.9436981272
 Nuclear Attr.   Energy = -5556.6575134857
 Kinetic         Energy =  1913.8555374558
 <S^2> = 0.7523
 SCF time:  CPU 1155.03 s  wall 1159.82 s
 Final Alpha MO Eigenvalues
            1           2           3           4           5           6
    1-101.6551854-101.6551696-101.6346990-101.6343176 -10.8255070 -10.8237684
            7           8           9          10          11          12
    1 -10.0760805 -10.0760671 -10.0556475 -10.0552677  -7.7276129  -7.7275983
           13          14          15          16          17          18
    1  -7.7196760  -7.7196640  -7.7189711  -7.7189579  -7.7072158  -7.7068354
           19          20          21          22          23          24
    1  -7.6986099  -7.6982247  -7.6979314  -7.6975440  -1.1642724  -1.0913432
           25          26          27          28          29          30
    1  -1.0367353  -1.0083409  -0.8766341  -0.6524933  -0.5816183  -0.5760061
           31          32          33          34          35          36
    1  -0.5212630  -0.4799212  -0.4401421  -0.4116800  -0.4088070  -0.3997066
           37          38          39          40          41          42
    1  -0.3890268  -0.3863360  -0.3501548  -0.2604046   0.0577337   0.1385202
           43          44          45          46
    1   0.1709221   0.1773811   0.1944182   0.2186723
 Final Beta MO Eigenvalues
            1           2           3           4           5           6
    1-101.6551873-101.6551716-101.6343030-101.6339190 -10.8236498 -10.8219525
            7           8           9          10          11          12
    1 -10.0760660 -10.0760534 -10.0547235 -10.0543364  -7.7277193  -7.7277057
           13          14          15          16          17          18
    1  -7.7196792  -7.7196675  -7.7188718  -7.7188591  -7.7065871  -7.7062050
           19          20          21          22          23          24
    1  -7.6980828  -7.6976935  -7.6973787  -7.6969873  -1.1587153  -1.0885608
           25          26          27          28          29          30
    1  -1.0308595  -1.0042864  -0.8692744  -0.6494190  -0.5801408  -0.5650313
           31          32          33          34          35          36
    1  -0.5189585  -0.4769950  -0.4390484  -0.4094168  -0.4071153  -0.3970786
           37          38          39          40          41          42
    1  -0.3854520  -0.3844879  -0.3472752  -0.2574130   0.1670956   0.1729956
           43          44          45
    1   0.1891748   0.1959707   0.1974942
 Analysis of SCF Wavefunction
 
 --------------------------------------------------------------
                    Orbital Energies (a.u.)
 --------------------------------------------------------------
 
 Alpha MOs
 -- Occupied --
*******-101.655-101.635-101.634 -10.826 -10.824 -10.076 -10.076
-10.056 -10.055  -7.728  -7.728  -7.720  -7.720  -7.719  -7.719
 -7.707  -7.707  -7.699  -7.698  -7.698  -7.698  -1.164  -1.091
 -1.037  -1.008  -0.877  -0.652  -0.582  -0.576  -0.521  -0.480
 -0.440  -0.412  -0.409  -0.400  -0.389  -0.386  -0.350  -0.260
  0.058
 -- Virtual --
  0.139   0.171   0.177   0.194   0.219   0.222   0.230   0.230
  0.237   0.244   0.247   0.275   0.276   0.278   0.286   0.294
  0.310   0.313   0.321   0.328   0.343   0.345   0.363   0.380
  0.389   0.396   0.406   0.430   0.452   0.458   0.495   0.511
  0.516   0.538   0.546   0.587   0.590   0.599   0.604   0.620
  0.624   0.659   0.668   0.672   0.698   0.700   0.706   0.712
  0.721   0.725   0.740   0.747   0.786   0.796   0.800   0.806
  0.844   0.857   0.882   0.902   0.916   0.961   1.008   1.029
  1.031   1.042   1.044   1.073   1.088   1.123   1.163   1.198
  1.238   1.267   1.268   1.290   1.337   1.339   1.340   1.366
  1.385   1.390   1.398   1.405   1.419   1.423   1.436   1.450
  1.458   1.465   1.471   1.482   1.495   1.503   1.506   1.511
  1.521   1.553   1.563   1.587   1.594   1.595   1.600   1.617
  1.664   1.701   1.716   1.736   1.750   1.757   1.786   1.798
  1.843   1.861   1.920   1.922   1.937   1.942   1.998   1.998
  2.001   2.023   2.025   2.092   2.127   2.145   2.171   2.183
  2.202   2.402   2.506   2.541   2.550   2.605   2.624   2.688
  2.712   2.719   2.796   2.852   2.916   2.992   3.004   3.138
  3.220   3.240   3.241   3.374   3.391   3.497   3.525   3.542
  3.658   3.685   3.710   3.745   3.816   3.849   3.882   3.899
  3.940   3.980   4.003   4.044   4.059   4.163   4.317   4.379
  4.403   4.736   4.748   4.804   4.805   4.811   4.822   4.831
  4.840   4.844   4.883   4.891   4.893   4.899   4.924   4.927
  4.942   4.953   4.957   4.958   4.976   5.000   5.046   5.056
  5.068   5.069   5.074   5.119   5.126   5.194   5.248   5.415
  5.546   5.559   5.569   5.590   5.608   5.613   5.631   5.688
  5.701   5.719   5.730   5.786   5.816   5.847   5.857   5.983
  6.065   6.208   6.368   6.639   6.642  10.411  10.540  10.591
 10.725  21.304  21.308  21.334  21.355  21.362  21.381  21.404
 21.447  21.554  21.638  21.689  21.717  24.342  25.209  27.855
 27.866  27.871  27.900  27.907  27.914  27.915  27.920  27.929
 27.941  27.952  27.958  27.960  27.981  27.987  27.999  27.999
 28.027  28.064  28.097  28.121  28.168  28.873  28.896  28.987
 29.100  37.613  37.614  37.614  37.614  37.615  37.615  37.617
 37.619  37.622  37.624  37.627  37.628  37.638  37.638  37.639
 37.639  37.640  37.643  37.644  37.645  37.647  37.649  37.649
 37.650  37.659  37.660  37.667  37.674  41.555  41.609  41.649
 41.764  41.764  41.811  41.845  41.861  41.933  41.970 216.708
216.847 216.889 217.061
 
 Beta MOs
 -- Occupied --
*******-101.655-101.634-101.634 -10.824 -10.822 -10.076 -10.076
-10.055 -10.054  -7.728  -7.728  -7.720  -7.720  -7.719  -7.719
 -7.707  -7.706  -7.698  -7.698  -7.697  -7.697  -1.159  -1.089
 -1.031  -1.004  -0.869  -0.649  -0.580  -0.565  -0.519  -0.477
 -0.439  -0.409  -0.407  -0.397  -0.385  -0.384  -0.347  -0.257
 -- Virtual --
  0.167   0.173   0.189   0.196   0.197   0.221   0.228   0.237
  0.240   0.246   0.252   0.254   0.278   0.280   0.286   0.291
  0.296   0.314   0.321   0.332   0.333   0.344   0.348   0.364
  0.381   0.390   0.397   0.411   0.431   0.453   0.466   0.496
  0.512   0.516   0.542   0.546   0.588   0.591   0.600   0.605
  0.621   0.626   0.659   0.669   0.674   0.699   0.700   0.708
  0.715   0.723   0.732   0.742   0.748   0.786   0.796   0.800
  0.806   0.846   0.858   0.885   0.907   0.921   0.964   1.008
  1.031   1.034   1.045   1.045   1.074   1.092   1.125   1.165
  1.199   1.241   1.268   1.269   1.290   1.337   1.340   1.340
  1.366   1.386   1.391   1.398   1.406   1.420   1.424   1.437
  1.451   1.460   1.466   1.471   1.484   1.496   1.505   1.507
  1.511   1.522   1.554   1.566   1.589   1.595   1.596   1.601
  1.617   1.665   1.701   1.717   1.737   1.751   1.758   1.786
  1.799   1.843   1.863   1.921   1.923   1.939   1.942   1.999
  2.000   2.002   2.023   2.027   2.094   2.129   2.146   2.173
  2.183   2.203   2.404   2.508   2.542   2.551   2.606   2.625
  2.689   2.714   2.720   2.797   2.853   2.917   2.993   3.005
  3.139   3.221   3.241   3.242   3.376   3.393   3.499   3.526
  3.544   3.660   3.688   3.711   3.746   3.820   3.851   3.884
  3.902   3.943   3.981   4.008   4.045   4.060   4.166   4.319
  4.381   4.406   4.738   4.748   4.805   4.806   4.812   4.822
  4.831   4.841   4.846   4.884   4.892   4.894   4.900   4.925
  4.928   4.943   4.954   4.957   4.959   4.976   5.000   5.047
  5.056   5.069   5.070   5.074   5.120   5.127   5.195   5.248
  5.416   5.546   5.560   5.569   5.591   5.609   5.614   5.631
  5.689   5.701   5.720   5.731   5.787   5.817   5.847   5.857
  5.983   6.066   6.208   6.369   6.640   6.642  10.412  10.541
 10.592  10.725  21.304  21.308  21.334  21.355  21.363  21.382
 21.404  21.447  21.554  21.638  21.690  21.717  24.344  25.211
 27.855  27.866  27.871  27.900  27.907  27.914  27.915  27.921
 27.929  27.942  27.953  27.959  27.961  27.982  27.988  28.000
 28.000  28.028  28.064  28.097  28.121  28.169  28.874  28.898
 28.988  29.101  37.613  37.614  37.614  37.614  37.615  37.615
 37.617  37.619  37.622  37.624  37.627  37.628  37.638  37.638
 37.639  37.639  37.640  37.643  37.644  37.645  37.647  37.649
 37.649  37.650  37.659  37.660  37.668  37.674  41.556  41.611
 41.651  41.764  41.765  41.812  41.847  41.861  41.934  41.971
216.709 216.847 216.890 217.061
 --------------------------------------------------------------
 
          Ground-State Mulliken Net Atomic Charges

     Atom                 Charge (a.u.)    Spin (a.u.)
  --------------------------------------------------------
      1 C                    -0.911290       1.608798
      2 C                    -0.948215       1.646667
      3 Cl                    0.726583      -1.055204
      4 Cl                   -0.311474      -0.058136
      5 Cl                    0.755916      -1.084014
      6 Cl                   -0.311521      -0.058112
  --------------------------------------------------------
  Sum of atomic charges =    -1.000000
  Sum of spin   charges =     1.000000

 -----------------------------------------------------------------
                    Cartesian Multipole Moments
 -----------------------------------------------------------------
    Charge (ESU x 10^10)
                -4.8032
    Dipole Moment (Debye)
         X       0.0819      Y       0.0003      Z      -3.3021
       Tot       3.3031
    Quadrupole Moments (Debye-Ang)
        XX    -100.4138     XY      -0.0016     YY     -70.8214
        XZ      28.4914     YZ       0.0019     ZZ    -101.7919
    Octapole Moments (Debye-Ang^2)
       XXX       1.1655    XXY       0.0030    XYY       0.1908
       YYY       0.0013    XXZ     -68.3144    XYZ      -0.0042
       YYZ     -47.8624    XZZ      39.0226    YZZ       0.0056
       ZZZ    -203.4729
    Hexadecapole Moments (Debye-Ang^3)
      XXXX   -1252.4598   XXXY      -0.0167   XXYY    -205.3984
      XYYY      -0.0105   YYYY    -132.7314   XXXZ     356.4133
      XXYZ       0.0136   XYYZ      52.7653   YYYZ       0.0115
      XXZZ    -601.4610   XYZZ      -0.0162   YYZZ    -258.6657
      XZZZ     382.1580   YZZZ       0.0268   ZZZZ   -1655.7936
 -----------------------------------------------------------------
 Total job time:  1160.47s(wall), 1155.63s(cpu) 
 Tue Mar 18 15:21:23 2014

        *************************************************************
        *                                                           *
        *  Thank you very much for using Q-Chem.  Have a nice day.  *
        *                                                           *
        *************************************************************


0 sent ACK to 0 
now end server 0 ... 
 
**********************************************************************
Job 2 of 3 
**********************************************************************
 
Process 0 of 1 is on cl134 - thread support 1
initial socket setup ...start
initial socket setup ...done 
now start server 0 ... 

cmd = /usr/bin/ssh clhead /usr/local/qchem/bin/get_hostid 1731131268 > /tmp/1591940.1.medium.q/qchem2965/lic.dat

cmd = /usr/bin/ssh clhead /usr/local/qchem/bin/get_hostid 1731131268 > /tmp/1591940.1.medium.q/qchem2965/lic.dat

cmd = /usr/bin/ssh clhead /usr/local/qchem/bin/get_hostid 1731131268 > /tmp/1591940.1.medium.q/qchem2965/lic.dat

cmd = /usr/bin/ssh clhead /usr/local/qchem/bin/get_hostid 1731131268 > /tmp/1591940.1.medium.q/qchem2965/lic.dat

cmd = /usr/bin/ssh clhead /usr/local/qchem/bin/get_hostid 1731131268 > /tmp/1591940.1.medium.q/qchem2965/lic.dat
                  Welcome to Q-Chem
     A Quantum Leap Into The Future Of Chemistry

 Y. Shao, L. Fusti-Molnar, Y. Jung, J. Kussmann, C. Ochsenfeld,
 S. T. Brown, A. T. B. Gilbert, L. V. Slipchenko,S. V. Levchenko,
 D. P. O'Neill, R. A. DiStasio Jr., R. C. Lochan, T. Wang,
 G. J. O. Beran, N. A. Besley, J. M. Herbert, C. Y. Lin,
 T. Van Voorhis, S. H. Chien, A. Sodt, R. P. Steele, 
 V. A. Rassolov, P. E. Maslen, P. P. Korambath, R. D. Adamson,
 B. Austin, J. Baker, E. F. C. Byrd, H. Dachsel, R. J. Doerksen,
 A. Dreuw, B. D. Dunietz, A. D. Dutoi, T. R. Furlani,
 S. R. Gwaltney, A. Heyden, S. Hirata, C.-P. Hsu, G. Kedziora,
 R. Z. Khaliullin, P. Klunzinger, A. M. Lee, M. S. Lee, W. Liang,
 I. Lotan, N. Nair, B. Peters, E. I. Proynov, P. A. Pieniazek, 
 Y. M. Rhee, J. Ritchie, E. Rosta, C. D. Sherrill, 
 A. C. Simmonett, J. E. Subotnik, H. L. Woodcock III,
 W. Zhang, A. T. Bell, A. K. Chakraborty, D. M. Chipman,
 F. J. Keil, A. Warshel, W. J. Hehre, H. F. Schaefer III,
 J. Kong, A. I. Krylov, P. M. W. Gill, M. Head-Gordon,
 Q-Chem, Version 3.1, Q-Chem, Inc., Pittsburgh, PA (2007).

 Additional authors for Version 3.1: 
 Z. Gan, Y. Zhao, N. E. Schultz, D. Truhlar, E. Epifanovsky and M. Oana.

 Additional authors for Version 3.2: 
 R. Baer, B. R. Brooks, D. Casanova, J.-D. Chai, C.-L. Cheng, 
 C. Cramer, D. Crittenden, A. Ghysels, G. Hawkins, E. G. Hohenstein, 
 C. Kelley, W. Kurlancheek, D. Liotard, E. Livshits, P. Manohar, 
 A. Marenich, D. Neuhauser, R. Olson, M. A. Rohrdanz, K. S. Thanthiriwatte, 
 A. J. W. Thom, V. Vanovschi, C. F. Williams, Q. Wu and Z.-Q. You. 


 Intel X86 Linux Version

 Q-chem begins on Tue Mar 18 15:21:27 2014  

 Parallel job on  1  processors
Processing $rem in /usr/local/qchem/config/preferences.

theFileMan(): MAXOPENFILES=974 MAX_SUB_FILE_NUM=16
Maximum size of a physical file is 2.0 GB, maximum size of a tmp-file is 32.0 GB


--------------------------------------------------------------
User input:
--------------------------------------------------------------

$molecule
0,1
C          0.00000        0.00000        0.00383
C          0.00000        0.00000        1.34300
Cl         1.44281        0.00000       -0.90583
Cl        -1.44281        0.00000       -0.90583
Cl        -1.44281        0.00000        2.25266
Cl         1.44281        0.00000        2.25266
$end

$comment
neutral
$end

$xc_functional
C PBE   1.00
X wPBE  1.00
$end


$rem
SYMMETRY_DECOMPOSITION	0
LRC_DFT                 true
exchange 		general
BASIS                   g3large
omega			2000
mem_static              760
max_scf_cycles          200
scf_final_print         1
sym_ignore              true
$end

--------------------------------------------------------------
 Writing REM_CC_EA            6
 ----------------------------------------------------
       Standard Nuclear Orientation (Angstroms)
    I     Atom         X            Y            Z
 ----------------------------------------------------
    1      C       0.000000     0.000000     0.003830
    2      C       0.000000     0.000000     1.343000
    3      Cl      1.442810     0.000000    -0.905830
    4      Cl     -1.442810     0.000000    -0.905830
    5      Cl     -1.442810     0.000000     2.252660
    6      Cl      1.442810     0.000000     2.252660
 ----------------------------------------------------
 Nuclear Repulsion Energy =   495.9436981448 hartrees
 There are       40 alpha and       40 beta electrons
 Requested basis set is G3large
 There are 96 shells and 348 basis functions

Total QAlloc Memory Limit   2000 MB
Mega-Array Size       743 MB
MEM_STATIC part       760 MB

                       Distance Matrix (Angstroms)
             C (  1)   C (  2)   Cl(  3)   Cl(  4)   Cl(  5)
   C (  2)  1.339170
   Cl(  3)  1.705632  2.671879
   Cl(  4)  1.705632  2.671879  2.885620
   Cl(  5)  2.671879  1.705632  4.278184  3.158490
   Cl(  6)  2.671879  1.705632  3.158490  4.278184  2.885620
 
 A cutoff of  1.0D-08 yielded   3466 shell pairs
 There are  47748 function pairs ( 66451 Cartesian)
Evaluating contribution to one-electron hamiltonian from nuclear
 Smallest overlap matrix eigenvalue = 9.71E-06

 Q-Chem warning in module mkSTV.C, line 194:

 Overlap eigenvalue is smaller than square root of threshold

 Multipole matrices computed through 2nd order

  Scale SEOQF with 1.000000e-01/1.000000e-01/1.000000e-01

 Standard Electronic Orientation quadrupole field applied
 Nucleus-field energy     =    -0.0000000176 hartrees
 Guess from superposition of atomic densities
 Warning:  Energy on first SCF cycle will be non-variational
 Long-range K will be added via erf
 Coulomb attenuation parameter = 2 bohr**(-1)
 A restricted Kohn-Sham SCF calculation will be
 performed using Pulay DIIS extrapolation
 Exchange:  wPBE + LR-HF      Correlation:  PBE
 Using SG-1 standard quadrature grid
 SCF converges when DIIS error is below 1.0E-05
 Requested basis set is G3large
 There are 96 shells and 348 basis functions
 A cutoff of  1.0D-08 yielded   3466 shell pairs
 There are  47748 function pairs ( 66451 Cartesian)
 ---------------------------------------
  Cycle       Energy         DIIS Error
 ---------------------------------------
    1   -1918.8054911555      2.11E-02
    2   -1916.9199676341      2.61E-03
    3   -1916.9984396664      2.10E-03
    4   -1917.0585271547      3.65E-04
    5   -1917.0643491892      1.22E-04
    6   -1917.0650504346      3.72E-05
    7   -1917.0651231524      9.83E-06 Convergence criterion met
 ---------------------------------------
 One-Electron    Energy = -3631.5473943502
 Total Coulomb   Energy =  1342.4672183614
 Alpha Exchange  Energy =   -27.2613516933
 Beta  Exchange  Energy =   -27.2613516933
 DFT   Exchange  Energy =   -66.3106656576
 DFT Correlation Energy =    -3.0952762466
 Nuclear Repu.   Energy =   495.9436981272
 Nuclear Attr.   Energy = -5545.1470330788
 Kinetic         Energy =  1913.5996387286
 SCF time:  CPU 389.21 s  wall 390.83 s
 Final Alpha MO Eigenvalues
            1           2           3           4           5           6
    1-101.7870422-101.7870416-101.7869826-101.7869792 -10.9779717 -10.9762627
            7           8           9          10          11          12
    1 -10.2077219 -10.2077053 -10.2076740 -10.2076601  -7.8595308  -7.8595288
           13          14          15          16          17          18
    1  -7.8594985  -7.8594954  -7.8510819  -7.8510807  -7.8510507  -7.8510480
           19          20          21          22          23          24
    1  -7.8504235  -7.8504222  -7.8503908  -7.8503885  -1.3052468  -1.2303400
           25          26          27          28          29          30
    1  -1.1762830  -1.1472781  -1.0183425  -0.7919982  -0.7239318  -0.7119860
           31          32          33          34          35          36
    1  -0.6622038  -0.6209125  -0.5768206  -0.5509516  -0.5433009  -0.5398809
           37          38          39          40          41          42
    1  -0.5316988  -0.5245058  -0.4897678  -0.4021402   0.0573669   0.0595230
           43          44          45
    1   0.0715735   0.0740240   0.0931941
 Analysis of SCF Wavefunction
 
 --------------------------------------------------------------
                    Orbital Energies (a.u.)
 --------------------------------------------------------------
 
 Alpha MOs
 -- Occupied --
*******-101.787-101.787-101.787 -10.978 -10.976 -10.208 -10.208
-10.208 -10.208  -7.860  -7.860  -7.859  -7.859  -7.851  -7.851
 -7.851  -7.851  -7.850  -7.850  -7.850  -7.850  -1.305  -1.230
 -1.176  -1.147  -1.018  -0.792  -0.724  -0.712  -0.662  -0.621
 -0.577  -0.551  -0.543  -0.540  -0.532  -0.525  -0.490  -0.402
 -- Virtual --
  0.057   0.060   0.072   0.074   0.093   0.102   0.112   0.117
  0.122   0.127   0.140   0.141   0.165   0.171   0.171   0.172
  0.185   0.202   0.208   0.209   0.221   0.227   0.235   0.249
  0.265   0.280   0.280   0.295   0.297   0.317   0.334   0.363
  0.377   0.386   0.406   0.414   0.453   0.460   0.471   0.472
  0.485   0.486   0.526   0.538   0.545   0.571   0.577   0.577
  0.585   0.593   0.596   0.611   0.616   0.652   0.671   0.677
  0.677   0.711   0.724   0.750   0.769   0.780   0.823   0.875
  0.894   0.894   0.907   0.912   0.934   0.951   0.987   1.031
  1.062   1.100   1.130   1.131   1.152   1.200   1.202   1.204
  1.229   1.247   1.254   1.261   1.268   1.281   1.287   1.301
  1.314   1.318   1.330   1.334   1.341   1.360   1.362   1.368
  1.374   1.383   1.418   1.421   1.449   1.455   1.457   1.460
  1.479   1.525   1.566   1.578   1.597   1.614   1.620   1.648
  1.659   1.707   1.724   1.781   1.788   1.796   1.804   1.859
  1.862   1.864   1.884   1.885   1.955   1.989   2.004   2.032
  2.045   2.063   2.262   2.368   2.404   2.414   2.465   2.486
  2.550   2.572   2.581   2.655   2.712   2.776   2.853   2.864
  2.992   3.075   3.093   3.096   3.230   3.246   3.352   3.380
  3.397   3.515   3.539   3.564   3.600   3.669   3.705   3.738
  3.755   3.795   3.836   3.857   3.898   3.913   4.017   4.171
  4.235   4.257   4.591   4.603   4.664   4.666   4.672   4.682
  4.693   4.701   4.702   4.741   4.749   4.752   4.758   4.783
  4.784   4.801   4.811   4.816   4.819   4.830   4.858   4.904
  4.914   4.923   4.928   4.932   4.976   4.984   5.050   5.104
  5.271   5.406   5.413   5.430   5.450   5.465   5.473   5.489
  5.547   5.560   5.578   5.588   5.644   5.674   5.705   5.715
  5.839   5.922   6.066   6.226   6.497   6.499  10.271  10.401
 10.448  10.583  21.164  21.172  21.186  21.214  21.219  21.247
 21.255  21.304  21.412  21.497  21.545  21.574  24.190  25.057
 27.707  27.726  27.731  27.760  27.770  27.770  27.772  27.776
 27.784  27.797  27.812  27.817  27.820  27.836  27.847  27.855
 27.856  27.879  27.921  27.953  27.976  28.016  28.722  28.746
 28.836  28.950  37.476  37.477  37.478  37.478  37.479  37.479
 37.480  37.483  37.488  37.488  37.488  37.489  37.490  37.490
 37.491  37.491  37.493  37.494  37.496  37.497  37.502  37.508
 37.509  37.509  37.512  37.513  37.519  37.527  41.403  41.456
 41.497  41.611  41.611  41.658  41.693  41.708  41.780  41.818
216.567 216.707 216.744 216.919
 --------------------------------------------------------------
 
          Ground-State Mulliken Net Atomic Charges

     Atom                 Charge (a.u.)
  ----------------------------------------
      1 C                     0.657537
      2 C                     0.657158
      3 Cl                   -0.328846
      4 Cl                   -0.328418
      5 Cl                   -0.328601
      6 Cl                   -0.328830
  ----------------------------------------
  Sum of atomic charges =     0.000000

 -----------------------------------------------------------------
                    Cartesian Multipole Moments
 -----------------------------------------------------------------
    Charge (ESU x 10^10)
                 0.0000
    Dipole Moment (Debye)
         X       0.0000      Y       0.0000      Z       0.0000
       Tot       0.0000
    Quadrupole Moments (Debye-Ang)
        XX     -57.8697     XY       0.0019     YY     -60.9448
        XZ      -0.0004     YZ      -0.0009     ZZ     -59.8573
    Octapole Moments (Debye-Ang^2)
       XXX       0.0000    XXY       0.0000    XYY       0.0000
       YYY       0.0000    XXZ     -38.9706    XYZ       0.0012
       YYZ     -41.0411    XZZ      -0.0006    YZZ      -0.0012
       ZZZ    -120.9264
    Hexadecapole Moments (Debye-Ang^3)
      XXXX    -632.1444   XXXY       0.0062   XXYY    -126.5331
      XYYY       0.0026   YYYY     -65.6622   XXXZ      -0.0023
      XXYZ      -0.0095   XYYZ      -0.0002   YYYZ      -0.0009
      XXZZ    -242.7564   XYZZ       0.0190   YYZZ    -179.6449
      XZZZ      -0.0001   YZZZ      -0.0115   ZZZZ    -985.2142
 -----------------------------------------------------------------
 Total job time:  391.44s(wall), 389.78s(cpu) 
 Tue Mar 18 15:27:58 2014

        *************************************************************
        *                                                           *
        *  Thank you very much for using Q-Chem.  Have a nice day.  *
        *                                                           *
        *************************************************************


0 sent ACK to 0 
now end server 0 ... 
 
**********************************************************************
Job 3 of 3 
**********************************************************************
 
Process 0 of 1 is on cl134 - thread support 1
initial socket setup ...start
initial socket setup ...done 
now start server 0 ... 

cmd = /usr/bin/ssh clhead /usr/local/qchem/bin/get_hostid 485779182 > /tmp/1591940.1.medium.q/qchem2965/lic.dat

cmd = /usr/bin/ssh clhead /usr/local/qchem/bin/get_hostid 485779182 > /tmp/1591940.1.medium.q/qchem2965/lic.dat

cmd = /usr/bin/ssh clhead /usr/local/qchem/bin/get_hostid 485779182 > /tmp/1591940.1.medium.q/qchem2965/lic.dat

cmd = /usr/bin/ssh clhead /usr/local/qchem/bin/get_hostid 485779182 > /tmp/1591940.1.medium.q/qchem2965/lic.dat

cmd = /usr/bin/ssh clhead /usr/local/qchem/bin/get_hostid 485779182 > /tmp/1591940.1.medium.q/qchem2965/lic.dat
                  Welcome to Q-Chem
     A Quantum Leap Into The Future Of Chemistry

 Y. Shao, L. Fusti-Molnar, Y. Jung, J. Kussmann, C. Ochsenfeld,
 S. T. Brown, A. T. B. Gilbert, L. V. Slipchenko,S. V. Levchenko,
 D. P. O'Neill, R. A. DiStasio Jr., R. C. Lochan, T. Wang,
 G. J. O. Beran, N. A. Besley, J. M. Herbert, C. Y. Lin,
 T. Van Voorhis, S. H. Chien, A. Sodt, R. P. Steele, 
 V. A. Rassolov, P. E. Maslen, P. P. Korambath, R. D. Adamson,
 B. Austin, J. Baker, E. F. C. Byrd, H. Dachsel, R. J. Doerksen,
 A. Dreuw, B. D. Dunietz, A. D. Dutoi, T. R. Furlani,
 S. R. Gwaltney, A. Heyden, S. Hirata, C.-P. Hsu, G. Kedziora,
 R. Z. Khaliullin, P. Klunzinger, A. M. Lee, M. S. Lee, W. Liang,
 I. Lotan, N. Nair, B. Peters, E. I. Proynov, P. A. Pieniazek, 
 Y. M. Rhee, J. Ritchie, E. Rosta, C. D. Sherrill, 
 A. C. Simmonett, J. E. Subotnik, H. L. Woodcock III,
 W. Zhang, A. T. Bell, A. K. Chakraborty, D. M. Chipman,
 F. J. Keil, A. Warshel, W. J. Hehre, H. F. Schaefer III,
 J. Kong, A. I. Krylov, P. M. W. Gill, M. Head-Gordon,
 Q-Chem, Version 3.1, Q-Chem, Inc., Pittsburgh, PA (2007).

 Additional authors for Version 3.1: 
 Z. Gan, Y. Zhao, N. E. Schultz, D. Truhlar, E. Epifanovsky and M. Oana.

 Additional authors for Version 3.2: 
 R. Baer, B. R. Brooks, D. Casanova, J.-D. Chai, C.-L. Cheng, 
 C. Cramer, D. Crittenden, A. Ghysels, G. Hawkins, E. G. Hohenstein, 
 C. Kelley, W. Kurlancheek, D. Liotard, E. Livshits, P. Manohar, 
 A. Marenich, D. Neuhauser, R. Olson, M. A. Rohrdanz, K. S. Thanthiriwatte, 
 A. J. W. Thom, V. Vanovschi, C. F. Williams, Q. Wu and Z.-Q. You. 


 Intel X86 Linux Version

 Q-chem begins on Tue Mar 18 15:28:05 2014  

 Parallel job on  1  processors
Processing $rem in /usr/local/qchem/config/preferences.

theFileMan(): MAXOPENFILES=974 MAX_SUB_FILE_NUM=16
Maximum size of a physical file is 2.0 GB, maximum size of a tmp-file is 32.0 GB


--------------------------------------------------------------
User input:
--------------------------------------------------------------

$molecule
1,2
C          0.00000        0.00000        0.00383
C          0.00000        0.00000        1.34300
Cl         1.44281        0.00000       -0.90583
Cl        -1.44281        0.00000       -0.90583
Cl        -1.44281        0.00000        2.25266
Cl         1.44281        0.00000        2.25266
$end

$comment
positive
$end

$xc_functional
C PBE   1.00
X wPBE  1.00
$end

$rem
SYMMETRY_DECOMPOSITION	0
LRC_DFT                 true
exchange 		general
BASIS                   g3large
omega			2000
mem_static              760
max_scf_cycles          200
scf_final_print         1
sym_ignore              true
$end

--------------------------------------------------------------
 Writing REM_CC_EA            6
 ----------------------------------------------------
       Standard Nuclear Orientation (Angstroms)
    I     Atom         X            Y            Z
 ----------------------------------------------------
    1      C       0.000000     0.000000     0.003830
    2      C       0.000000     0.000000     1.343000
    3      Cl      1.442810     0.000000    -0.905830
    4      Cl     -1.442810     0.000000    -0.905830
    5      Cl     -1.442810     0.000000     2.252660
    6      Cl      1.442810     0.000000     2.252660
 ----------------------------------------------------
 Nuclear Repulsion Energy =   495.9436981448 hartrees
 There are       40 alpha and       39 beta electrons
 Requested basis set is G3large
 There are 96 shells and 348 basis functions

Total QAlloc Memory Limit   2000 MB
Mega-Array Size       743 MB
MEM_STATIC part       760 MB

                       Distance Matrix (Angstroms)
             C (  1)   C (  2)   Cl(  3)   Cl(  4)   Cl(  5)
   C (  2)  1.339170
   Cl(  3)  1.705632  2.671879
   Cl(  4)  1.705632  2.671879  2.885620
   Cl(  5)  2.671879  1.705632  4.278184  3.158490
   Cl(  6)  2.671879  1.705632  3.158490  4.278184  2.885620
 
 A cutoff of  1.0D-08 yielded   3466 shell pairs
 There are  47748 function pairs ( 66451 Cartesian)
Evaluating contribution to one-electron hamiltonian from nuclear
 Smallest overlap matrix eigenvalue = 9.71E-06

 Q-Chem warning in module mkSTV.C, line 194:

 Overlap eigenvalue is smaller than square root of threshold

 Multipole matrices computed through 2nd order

  Scale SEOQF with 1.000000e-01/1.000000e-01/1.000000e-01

 Standard Electronic Orientation quadrupole field applied
 Nucleus-field energy     =    -0.0000000176 hartrees
 Guess from superposition of atomic densities
 Warning:  Energy on first SCF cycle will be non-variational
 Long-range K will be added via erf
 Coulomb attenuation parameter = 2 bohr**(-1)
 An unrestricted Kohn-Sham SCF calculation will be
 performed using Pulay DIIS extrapolation
 Exchange:  wPBE + LR-HF      Correlation:  PBE
 Using SG-1 standard quadrature grid
 SCF converges when DIIS error is below 1.0E-05
 Requested basis set is G3large
 There are 96 shells and 348 basis functions
 A cutoff of  1.0D-08 yielded   3466 shell pairs
 There are  47748 function pairs ( 66451 Cartesian)
 Warning!  Inaccurate integrated density:
   Number of electrons =    79
   Numerical integral  =    80.000163028812
   Relative error      =     1.2660291504 %
 ---------------------------------------
  Cycle       Energy         DIIS Error
 ---------------------------------------
    1   -1918.8054911555      2.11E-02
    2   -1916.4282480044      3.60E-03
    3   -1916.5129890404      3.56E-03
    4   -1916.6911547505      4.20E-04
    5   -1916.6993885045      1.89E-04
    6   -1916.7016171569      8.09E-05
    7   -1916.7023092003      2.69E-05
    8   -1916.7024862108      9.37E-06 Convergence criterion met
 ---------------------------------------
 One-Electron    Energy = -3614.0942596103
 Total Coulomb   Energy =  1325.0004099405
 Alpha Exchange  Energy =   -27.3384049503
 Beta  Exchange  Energy =   -26.8689813614
 DFT   Exchange  Energy =   -66.2905166435
 DFT Correlation Energy =    -3.0544317130
 Nuclear Repu.   Energy =   495.9436981272
 Nuclear Attr.   Energy = -5527.2321923758
 Kinetic         Energy =  1913.1379327656
 <S^2> = 0.7608
 SCF time:  CPU 565.35 s  wall 568.76 s
 Final Alpha MO Eigenvalues
            1           2           3           4           5           6
    1-102.0062203-102.0062193-102.0060563-102.0060525 -11.2462371 -11.2444425
            7           8           9          10          11          12
    1 -10.4249790 -10.4249720 -10.4248445 -10.4248398  -8.0766339  -8.0766320
           13          14          15          16          17          18
    1  -8.0765046  -8.0765010  -8.0703774  -8.0703766  -8.0702377  -8.0702344
           19          20          21          22          23          24
    1  -8.0664453  -8.0664443  -8.0663201  -8.0663170  -1.5482222  -1.4493515
           25          26          27          28          29          30
    1  -1.3925445  -1.3607351  -1.2711448  -1.0126591  -0.9464470  -0.9367258
           31          32          33          34          35          36
    1  -0.9107674  -0.8347286  -0.7940109  -0.7614100  -0.7513269  -0.7485275
           37          38          39          40          41          42
    1  -0.7358759  -0.7358147  -0.6944485  -0.6479159  -0.1868364  -0.1101692
           43          44          45
    1  -0.0951688  -0.0904898  -0.0792591
 Final Beta MO Eigenvalues
            1           2           3           4           5           6
    1-102.0054801-102.0054792-102.0053222-102.0053183 -11.2394738 -11.2380038
            7           8           9          10          11          12
    1 -10.4241893 -10.4241818 -10.4240608 -10.4240535  -8.0766647  -8.0766627
           13          14          15          16          17          18
    1  -8.0765421  -8.0765383  -8.0666522  -8.0666511  -8.0665339  -8.0665306
           19          20          21          22          23          24
    1  -8.0659974  -8.0659970  -8.0658778  -8.0658746  -1.5225236  -1.4415395
           25          26          27          28          29          30
    1  -1.3851333  -1.3524253  -1.2360366  -0.9969766  -0.9403804  -0.9279454
           31          32          33          34          35          36
    1  -0.8319101  -0.8299577  -0.7628590  -0.7584185  -0.7465088  -0.7341836
           37          38          39          40          41          42
    1  -0.7134200  -0.6999072  -0.6922933  -0.3205966  -0.1111932  -0.1045318
           43          44
    1  -0.0878726  -0.0800692
 Analysis of SCF Wavefunction
 
 --------------------------------------------------------------
                    Orbital Energies (a.u.)
 --------------------------------------------------------------
 
 Alpha MOs
 -- Occupied --
*******-102.006-102.006-102.006 -11.246 -11.244 -10.425 -10.425
-10.425 -10.425  -8.077  -8.077  -8.077  -8.077  -8.070  -8.070
 -8.070  -8.070  -8.066  -8.066  -8.066  -8.066  -1.548  -1.449
 -1.393  -1.361  -1.271  -1.013  -0.946  -0.937  -0.911  -0.835
 -0.794  -0.761  -0.751  -0.749  -0.736  -0.736  -0.694  -0.648
 -- Virtual --
 -0.187  -0.110  -0.095  -0.090  -0.079  -0.039  -0.035  -0.033
 -0.026  -0.015   0.005   0.005   0.009   0.034   0.036   0.043
  0.044   0.053   0.054   0.061   0.072   0.084   0.096   0.100
  0.103   0.107   0.118   0.133   0.137   0.141   0.178   0.186
  0.197   0.205   0.221   0.230   0.266   0.271   0.286   0.291
  0.297   0.297   0.342   0.362   0.374   0.391   0.391   0.392
  0.418   0.418   0.423   0.432   0.435   0.454   0.497   0.499
  0.510   0.523   0.531   0.567   0.568   0.568   0.620   0.685
  0.690   0.692   0.705   0.709   0.717   0.731   0.784   0.840
  0.860   0.897   0.927   0.931   0.951   1.001   1.002   1.009
  1.034   1.041   1.054   1.066   1.068   1.081   1.091   1.101
  1.118   1.121   1.130   1.132   1.141   1.159   1.162   1.170
  1.176   1.184   1.216   1.217   1.245   1.249   1.254   1.265
  1.279   1.319   1.372   1.376   1.399   1.417   1.418   1.450
  1.453   1.517   1.517   1.567   1.587   1.587   1.597   1.647
  1.661   1.669   1.670   1.691   1.747   1.783   1.791   1.830
  1.847   1.859   2.045   2.162   2.196   2.205   2.259   2.285
  2.341   2.359   2.377   2.446   2.507   2.556   2.648   2.659
  2.725   2.817   2.821   2.832   2.978   3.005   3.104   3.135
  3.152   3.281   3.302   3.324   3.354   3.405   3.461   3.498
  3.522   3.566   3.594   3.607   3.643   3.666   3.757   3.935
  4.004   4.009   4.362   4.373   4.442   4.454   4.460   4.469
  4.481   4.489   4.491   4.521   4.526   4.541   4.547   4.570
  4.573   4.588   4.598   4.604   4.606   4.606   4.648   4.684
  4.687   4.699   4.718   4.719   4.766   4.773   4.830   4.886
  5.051   5.173   5.193   5.217   5.238   5.252   5.260   5.276
  5.330   5.343   5.365   5.374   5.427   5.456   5.492   5.503
  5.623   5.705   5.848   6.008   6.279   6.280  10.057  10.187
 10.233  10.369  20.945  20.954  20.968  20.999  21.000  21.032
 21.040  21.089  21.195  21.281  21.329  21.357  23.925  24.789
 27.454  27.509  27.514  27.543  27.544  27.552  27.552  27.558
 27.566  27.580  27.594  27.601  27.604  27.613  27.628  27.638
 27.639  27.643  27.701  27.728  27.748  27.750  28.461  28.496
 28.584  28.695  37.259  37.260  37.261  37.262  37.262  37.262
 37.263  37.266  37.271  37.272  37.272  37.272  37.273  37.273
 37.273  37.275  37.276  37.277  37.280  37.280  37.285  37.291
 37.292  37.292  37.296  37.296  37.302  37.310  41.131  41.191
 41.225  41.340  41.341  41.388  41.430  41.437  41.517  41.553
216.348 216.489 216.526 216.700
 
 Beta MOs
 -- Occupied --
*******-102.005-102.005-102.005 -11.239 -11.238 -10.424 -10.424
-10.424 -10.424  -8.077  -8.077  -8.077  -8.077  -8.067  -8.067
 -8.067  -8.067  -8.066  -8.066  -8.066  -8.066  -1.523  -1.442
 -1.385  -1.352  -1.236  -0.997  -0.940  -0.928  -0.832  -0.830
 -0.763  -0.758  -0.747  -0.734  -0.713  -0.700  -0.692
 -- Virtual --
 -0.321  -0.111  -0.105  -0.088  -0.080  -0.079  -0.038  -0.035
 -0.031  -0.025  -0.012   0.006   0.006   0.011   0.034   0.036
  0.045   0.050   0.055   0.057   0.064   0.073   0.084   0.101
  0.102   0.105   0.111   0.127   0.134   0.140   0.141   0.179
  0.188   0.198   0.210   0.222   0.236   0.273   0.276   0.294
  0.301   0.303   0.311   0.346   0.361   0.381   0.399   0.400
  0.407   0.419   0.419   0.424   0.435   0.442   0.470   0.501
  0.506   0.524   0.531   0.533   0.567   0.571   0.580   0.622
  0.692   0.694   0.694   0.709   0.717   0.731   0.749   0.786
  0.842   0.862   0.899   0.933   0.934   0.954   1.004   1.005
  1.012   1.035   1.049   1.059   1.069   1.069   1.085   1.094
  1.107   1.120   1.123   1.135   1.137   1.148   1.165   1.165
  1.175   1.180   1.187   1.217   1.220   1.251   1.255   1.256
  1.265   1.283   1.324   1.374   1.380   1.401   1.421   1.422
  1.454   1.458   1.518   1.524   1.575   1.590   1.592   1.601
  1.654   1.664   1.672   1.672   1.692   1.753   1.786   1.793
  1.831   1.849   1.861   2.051   2.163   2.205   2.213   2.267
  2.287   2.350   2.360   2.378   2.446   2.508   2.560   2.649
  2.659   2.751   2.833   2.845   2.854   2.990   3.014   3.117
  3.144   3.160   3.286   3.304   3.331   3.365   3.425   3.472
  3.505   3.525   3.569   3.600   3.617   3.655   3.675   3.773
  3.938   4.007   4.019   4.363   4.375   4.448   4.458   4.464
  4.472   4.485   4.494   4.495   4.524   4.532   4.545   4.550
  4.572   4.575   4.590   4.602   4.608   4.608   4.611   4.648
  4.691   4.691   4.702   4.719   4.720   4.766   4.773   4.832
  4.887   5.052   5.176   5.195   5.219   5.239   5.254   5.262
  5.278   5.332   5.345   5.367   5.375   5.428   5.457   5.492
  5.503   5.623   5.706   5.849   6.009   6.281   6.281  10.058
 10.188  10.235  10.371  20.949  20.957  20.972  20.999  21.004
 21.033  21.040  21.089  21.195  21.281  21.328  21.357  23.931
 24.795  27.460  27.511  27.516  27.545  27.545  27.554  27.555
 27.561  27.568  27.582  27.596  27.601  27.604  27.615  27.630
 27.638  27.639  27.646  27.702  27.729  27.751  27.756  28.462
 28.497  28.586  28.697  37.260  37.260  37.262  37.262  37.263
 37.263  37.263  37.267  37.272  37.272  37.273  37.273  37.273
 37.273  37.273  37.275  37.277  37.277  37.280  37.281  37.286
 37.291  37.292  37.293  37.296  37.296  37.303  37.310  41.139
 41.195  41.234  41.346  41.348  41.395  41.431  41.443  41.519
 41.555 216.349 216.490 216.527 216.701
 --------------------------------------------------------------
 
          Ground-State Mulliken Net Atomic Charges

     Atom                 Charge (a.u.)    Spin (a.u.)
  --------------------------------------------------------
      1 C                     0.771530       0.349349
      2 C                     0.771002       0.349359
      3 Cl                   -0.135855       0.075491
      4 Cl                   -0.135519       0.075166
      5 Cl                   -0.135932       0.075508
      6 Cl                   -0.135225       0.075127
  --------------------------------------------------------
  Sum of atomic charges =     1.000000
  Sum of spin   charges =     1.000000

 -----------------------------------------------------------------
                    Cartesian Multipole Moments
 -----------------------------------------------------------------
    Charge (ESU x 10^10)
                 4.8032
    Dipole Moment (Debye)
         X       0.0000      Y       0.0000      Z       3.2345
       Tot       3.2345
    Quadrupole Moments (Debye-Ang)
        XX     -43.9530     XY      -0.0100     YY     -56.4887
        XZ      -0.0032     YZ      -0.0013     ZZ     -41.7709
    Octapole Moments (Debye-Ang^2)
       XXX      -0.0002    XXY       0.0000    XYY       0.0000
       YYY       0.0000    XXZ     -29.5985    XYZ      -0.0067
       YYZ     -38.0403    XZZ      -0.0043    YZZ      -0.0017
       ZZZ     -87.3211
    Hexadecapole Moments (Debye-Ang^3)
      XXXX    -556.9301   XXXY      -0.0707   XXYY    -114.7251
      XYYY      -0.0077   YYYY     -57.0399   XXXZ      -0.0108
      XXYZ      -0.0020   XYYZ      -0.0045   YYYZ      -0.0009
      XXZZ    -183.6184   XYZZ      -0.0147   YYZZ    -164.2084
      XZZZ      -0.0195   YZZZ      -0.0127   ZZZZ    -844.1274
 -----------------------------------------------------------------
 Total job time:  569.37s(wall), 565.94s(cpu) 
 Tue Mar 18 15:37:34 2014

        *************************************************************
        *                                                           *
        *  Thank you very much for using Q-Chem.  Have a nice day.  *
        *                                                           *
        *************************************************************


0 sent ACK to 0 
now end server 0 ... 
