Process 0 of 1 is on cl193.stfx.acenet.ca - thread support 1
initial socket setup ...start
initial socket setup ...done 
now start server 0 ... 

cmd = /usr/bin/ssh clhead /usr/local/qchem/bin/get_hostid 376738678 > /scratch/tmp/4825343.1.medium.q/qchem15398/lic.dat
                  Welcome to Q-Chem
     A Quantum Leap Into The Future Of Chemistry

 Y. Shao, L. Fusti-Molnar, Y. Jung, J. Kussmann, C. Ochsenfeld,
 S. T. Brown, A. T. B. Gilbert, L. V. Slipchenko,S. V. Levchenko,
 D. P. O'Neill, R. A. DiStasio Jr., R. C. Lochan, T. Wang,
 G. J. O. Beran, N. A. Besley, J. M. Herbert, C. Y. Lin,
 T. Van Voorhis, S. H. Chien, A. Sodt, R. P. Steele, 
 V. A. Rassolov, P. E. Maslen, P. P. Korambath, R. D. Adamson,
 B. Austin, J. Baker, E. F. C. Byrd, H. Dachsel, R. J. Doerksen,
 A. Dreuw, B. D. Dunietz, A. D. Dutoi, T. R. Furlani,
 S. R. Gwaltney, A. Heyden, S. Hirata, C.-P. Hsu, G. Kedziora,
 R. Z. Khaliullin, P. Klunzinger, A. M. Lee, M. S. Lee, W. Liang,
 I. Lotan, N. Nair, B. Peters, E. I. Proynov, P. A. Pieniazek, 
 Y. M. Rhee, J. Ritchie, E. Rosta, C. D. Sherrill, 
 A. C. Simmonett, J. E. Subotnik, H. L. Woodcock III,
 W. Zhang, A. T. Bell, A. K. Chakraborty, D. M. Chipman,
 F. J. Keil, A. Warshel, W. J. Hehre, H. F. Schaefer III,
 J. Kong, A. I. Krylov, P. M. W. Gill, M. Head-Gordon,
 Q-Chem, Version 3.1, Q-Chem, Inc., Pittsburgh, PA (2007).

 Additional authors for Version 3.1: 
 Z. Gan, Y. Zhao, N. E. Schultz, D. Truhlar, E. Epifanovsky and M. Oana.

 Additional authors for Version 3.2: 
 R. Baer, B. R. Brooks, D. Casanova, J.-D. Chai, C.-L. Cheng, 
 C. Cramer, D. Crittenden, A. Ghysels, G. Hawkins, E. G. Hohenstein, 
 C. Kelley, W. Kurlancheek, D. Liotard, E. Livshits, P. Manohar, 
 A. Marenich, D. Neuhauser, R. Olson, M. A. Rohrdanz, K. S. Thanthiriwatte, 
 A. J. W. Thom, V. Vanovschi, C. F. Williams, Q. Wu and Z.-Q. You. 


 Intel X86 Linux Version

 Q-chem begins on Mon Nov 14 15:11:23 2011  

 Parallel job on  1  processors
Processing $rem in /usr/local/qchem/config/preferences.

theFileMan(): MAXOPENFILES=974 MAX_SUB_FILE_NUM=16
Maximum size of a physical file is 2.0 GB, maximum size of a tmp-file is 32.0 GB


--------------------------------------------------------------
User input:
--------------------------------------------------------------

$molecule
-1,1
C
C,1,CC
O,2,CO,1,OCC
X,3,0.97,2,107.,1,180.,0
X,2,1.,1,XCC,3,180.,0
H,2,CH,5,A1,1,90.,0
H,2,CH,5,A1,1,-90.,0
H,1,CH3,2,H3CC,3,180.,0
X,1,1.,2,YCC,3,0.,0
H,1,CH4,9,A2,2,90.,0
H,1,CH4,9,A2,2,-90.,0

CC=1.55380371
CO=1.3708761
OCC=106.53444686
XCC=122.81869313
CH=1.10383091
A1=54.76163191
CH3=1.09470615
H3CC=108.59935331
YCC=126.7607798
CH4=1.09293226
A2=54.53735592

$end

$comment
negative
$end

$xc_functional
   X HF 1.0
   X BNL 1.0
   C LYP 1.0
$end

$rem
SYMMETRY_DECOMPOSITION	0
exchange 		general
BASIS                   g3large
omega			200
separate_jk		true
mem_static              760
max_scf_cycles          200
scf_final_print         1
sym_ignore              true
$end

--------------------------------------------------------------
 Writing REM_CC_EA            8
 ----------------------------------------------------
       Standard Nuclear Orientation (Angstroms)
    I     Atom         X            Y            Z
 ----------------------------------------------------
    1      C       0.000000     0.000000     0.000000
    2      C       0.000000     0.000000     1.553804
    3      O       1.314189     0.000000     1.943944
    4      H      -0.535234     0.901564     1.898986
    5      H      -0.535234    -0.901564     1.898986
    6      H      -1.037532     0.000000    -0.349155
    7      H       0.507995     0.890187    -0.379486
    8      H       0.507995    -0.890187    -0.379486
 ----------------------------------------------------
 Nuclear Repulsion Energy =    74.3897211119 hartrees
 There are       13 alpha and       13 beta electrons
 Requested basis set is G3large
 There are 60 shells and 176 basis functions

Total QAlloc Memory Limit   2000 MB
Mega-Array Size       743 MB
MEM_STATIC part       760 MB

                       Distance Matrix (Angstroms)
             C (  1)   C (  2)   O (  3)   H (  4)   H (  5)   H (  6)
   C (  2)  1.553804
   O (  3)  2.346489  1.370876
   H (  4)  2.169202  1.103831  2.057961
   H (  5)  2.169202  1.103831  2.057961  1.803127
   H (  6)  1.094706  2.167423  3.284645  2.473713  2.473713
   H (  7)  1.092932  2.188173  2.615475  2.505971  3.080605  1.783817
   H (  8)  1.092932  2.188173  2.615475  3.080605  2.505971  1.783817
             H (  7)
   H (  8)  1.780373
 
 A cutoff of  1.0D-08 yielded   1760 shell pairs
 There are  15158 function pairs ( 18470 Cartesian)
Evaluating contribution to one-electron hamiltonian from nuclear
 Smallest overlap matrix eigenvalue = 1.37E-04
 Multipole matrices computed through 2nd order

  Scale SEOQF with 1.000000e-01/1.000000e-01/1.000000e-01

 Standard Electronic Orientation quadrupole field applied
 Nucleus-field energy     =    -0.0000000048 hartrees
 Guess from superposition of atomic densities
 Warning:  Energy on first SCF cycle will be non-variational
 A restricted hybrid HF-DFT SCF calculation will be
 performed using Pulay DIIS extrapolation
 Exchange:     1.0000 Hartree-Fock + 1.0000 BNL
 Correlation:  1.0000 LYP
 Using SG-1 standard quadrature grid
 SCF converges when DIIS error is below 1.0E-05
 Warning!  Inaccurate integrated density:
   Number of electrons =    26
   Numerical integral  =    24.999848811569
   Relative error      =    -3.8467353401 %
 ---------------------------------------
  Cycle       Energy         DIIS Error
 ---------------------------------------
    1    -152.8138772488      3.08E-02
    2    -152.3415887581      7.92E-03
    3    -147.9734522854      2.35E-02
    4    -152.4815820356      5.29E-03
    5    -152.5569292047      2.40E-03
    6    -152.5855586106      6.48E-04
    7    -152.5870469295      3.09E-04
    8    -152.5872934025      1.54E-04
    9    -152.5873666142      8.88E-05
   10    -152.5873982731      2.94E-05
   11    -152.5874038130      2.76E-06 Convergence criterion met
 ---------------------------------------
 One-Electron    Energy =  -362.2522058915
 Total Coulomb   Energy =   154.7474834322
 Alpha Exchange  Energy =    -1.4010364594
 Beta  Exchange  Energy =    -1.4010364594
 DFT   Exchange  Energy =   -15.8193829447
 DFT Correlation Energy =    -0.8509465973
 Nuclear Repu.   Energy =    74.3897211070
 Nuclear Attr.   Energy =  -514.3531313358
 Kinetic         Energy =   152.1009254443
 SCF time:  CPU 86.65 s  wall 101.54 s
 Final Alpha MO Eigenvalues
            1           2           3           4           5           6
    1 -18.3652025  -9.6792614  -9.6570147  -0.7126854  -0.5527379  -0.4188965
            7           8           9          10          11          12
    1  -0.3068459  -0.2747795  -0.2339999  -0.2139282  -0.1742642  -0.0323849
           13          14          15          16          17          18
    1  -0.0303078   0.1514328   0.1663436   0.1725611   0.1827948   0.2064144
 Analysis of SCF Wavefunction
 
 --------------------------------------------------------------
                    Orbital Energies (a.u.)
 --------------------------------------------------------------
 
 Alpha MOs
 -- Occupied --
-18.365  -9.679  -9.657  -0.713  -0.553  -0.419  -0.307  -0.275
 -0.234  -0.214  -0.174  -0.032  -0.030
 -- Virtual --
  0.151   0.166   0.173   0.183   0.206   0.253   0.255   0.271
  0.276   0.296   0.304   0.318   0.319   0.384   0.391   0.421
  0.432   0.450   0.477   0.499   0.510   0.519   0.543   0.610
  0.652   0.663   0.693   0.706   0.766   0.782   0.784   0.796
  0.797   0.842   0.846   0.872   0.882   0.964   1.033   1.061
  1.096   1.177   1.208   1.275   1.281   1.284   1.344   1.366
  1.374   1.397   1.404   1.435   1.447   1.500   1.547   1.549
  1.579   1.629   1.645   1.672   1.691   1.711   1.724   1.757
  1.811   2.003   2.014   2.060   2.269   2.381   2.616   2.636
  2.723   2.789   2.844   2.848   3.035   3.045   3.053   3.155
  3.191   3.289   3.290   3.308   3.392   3.443   3.471   3.495
  3.527   3.577   3.631   3.718   3.753   3.780   3.780   3.813
  3.882   3.931   4.056   4.095   4.170   4.192   4.210   4.254
  4.306   4.410   4.435   4.445   4.508   4.529   4.647   4.652
  4.717   4.738   4.768   4.864   5.284   5.297   5.340   5.390
  5.437   5.546   5.565   5.634   5.717   5.806   5.844   5.886
  6.186   6.190   6.795   7.138   7.154   7.556   7.563   7.847
 24.465  24.630  27.755  28.211  28.254  28.301  28.341  28.554
 41.034  41.060  41.082  41.132  41.347  41.366  41.386  41.398
 41.421  41.448  43.882  43.956  44.028  44.078  44.117  45.976
 45.994  46.520  50.307
 --------------------------------------------------------------
 
          Ground-State Mulliken Net Atomic Charges

     Atom                 Charge (a.u.)
  ----------------------------------------
      1 C                     0.014041
      2 C                    -0.435905
      3 O                    -0.626713
      4 H                     0.014102
      5 H                     0.014203
      6 H                    -0.106566
      7 H                     0.063408
      8 H                     0.063430
  ----------------------------------------
  Sum of atomic charges =    -1.000000

 -----------------------------------------------------------------
                    Cartesian Multipole Moments
 -----------------------------------------------------------------
    Charge (ESU x 10^10)
                -4.8032
    Dipole Moment (Debye)
         X      -4.5388      Y      -0.0003      Z      -7.6012
       Tot       8.8531
    Quadrupole Moments (Debye-Ang)
        XX     -35.3028     XY       0.0005     YY     -25.8117
        XZ     -10.3121     YZ      -0.0002     ZZ     -42.5598
    Octapole Moments (Debye-Ang^2)
       XXX     -33.9014    XXY      -0.0006    XYY      -7.5554
       YYY      -0.0019    XXZ     -44.1829    XYZ       0.0009
       YYZ     -27.8759    XZZ     -28.9490    YZZ      -0.0007
       ZZZ    -113.8800
    Hexadecapole Moments (Debye-Ang^3)
      XXXX    -164.5898   XXXY       0.0028   XXYY     -39.4103
      XYYY       0.0033   YYYY     -65.7780   XXXZ     -68.4363
      XXYZ      -0.0004   XYYZ     -16.5629   YYYZ      -0.0019
      XXZZ    -119.5664   XYZZ       0.0028   YYZZ     -72.6701
      XZZZ     -95.4942   YZZZ      -0.0010   ZZZZ    -430.3825
 -----------------------------------------------------------------
 Total job time:  101.79s(wall), 86.83s(cpu) 
 Mon Nov 14 15:13:05 2011

        *************************************************************
        *                                                           *
        *  Thank you very much for using Q-Chem.  Have a nice day.  *
        *                                                           *
        *************************************************************


0 sent ACK to 0 
now end server 0 ... 
 
**********************************************************************
Job 2 of 3 
**********************************************************************
 
Process 0 of 1 is on cl193.stfx.acenet.ca - thread support 1
initial socket setup ...start
initial socket setup ...done 
now start server 0 ... 

cmd = /usr/bin/ssh clhead /usr/local/qchem/bin/get_hostid 961840514 > /scratch/tmp/4825343.1.medium.q/qchem15398/lic.dat
                  Welcome to Q-Chem
     A Quantum Leap Into The Future Of Chemistry

 Y. Shao, L. Fusti-Molnar, Y. Jung, J. Kussmann, C. Ochsenfeld,
 S. T. Brown, A. T. B. Gilbert, L. V. Slipchenko,S. V. Levchenko,
 D. P. O'Neill, R. A. DiStasio Jr., R. C. Lochan, T. Wang,
 G. J. O. Beran, N. A. Besley, J. M. Herbert, C. Y. Lin,
 T. Van Voorhis, S. H. Chien, A. Sodt, R. P. Steele, 
 V. A. Rassolov, P. E. Maslen, P. P. Korambath, R. D. Adamson,
 B. Austin, J. Baker, E. F. C. Byrd, H. Dachsel, R. J. Doerksen,
 A. Dreuw, B. D. Dunietz, A. D. Dutoi, T. R. Furlani,
 S. R. Gwaltney, A. Heyden, S. Hirata, C.-P. Hsu, G. Kedziora,
 R. Z. Khaliullin, P. Klunzinger, A. M. Lee, M. S. Lee, W. Liang,
 I. Lotan, N. Nair, B. Peters, E. I. Proynov, P. A. Pieniazek, 
 Y. M. Rhee, J. Ritchie, E. Rosta, C. D. Sherrill, 
 A. C. Simmonett, J. E. Subotnik, H. L. Woodcock III,
 W. Zhang, A. T. Bell, A. K. Chakraborty, D. M. Chipman,
 F. J. Keil, A. Warshel, W. J. Hehre, H. F. Schaefer III,
 J. Kong, A. I. Krylov, P. M. W. Gill, M. Head-Gordon,
 Q-Chem, Version 3.1, Q-Chem, Inc., Pittsburgh, PA (2007).

 Additional authors for Version 3.1: 
 Z. Gan, Y. Zhao, N. E. Schultz, D. Truhlar, E. Epifanovsky and M. Oana.

 Additional authors for Version 3.2: 
 R. Baer, B. R. Brooks, D. Casanova, J.-D. Chai, C.-L. Cheng, 
 C. Cramer, D. Crittenden, A. Ghysels, G. Hawkins, E. G. Hohenstein, 
 C. Kelley, W. Kurlancheek, D. Liotard, E. Livshits, P. Manohar, 
 A. Marenich, D. Neuhauser, R. Olson, M. A. Rohrdanz, K. S. Thanthiriwatte, 
 A. J. W. Thom, V. Vanovschi, C. F. Williams, Q. Wu and Z.-Q. You. 


 Intel X86 Linux Version

 Q-chem begins on Mon Nov 14 15:13:09 2011  

 Parallel job on  1  processors
Processing $rem in /usr/local/qchem/config/preferences.

theFileMan(): MAXOPENFILES=974 MAX_SUB_FILE_NUM=16
Maximum size of a physical file is 2.0 GB, maximum size of a tmp-file is 32.0 GB


--------------------------------------------------------------
User input:
--------------------------------------------------------------

$molecule
0,2
C
C,1,CC
O,2,CO,1,OCC
X,3,0.97,2,107.,1,180.,0
X,2,1.,1,XCC,3,180.,0
H,2,CH,5,A1,1,90.,0
H,2,CH,5,A1,1,-90.,0
H,1,CH3,2,H3CC,3,180.,0
X,1,1.,2,YCC,3,0.,0
H,1,CH4,9,A2,2,90.,0
H,1,CH4,9,A2,2,-90.,0

CC=1.55380371
CO=1.3708761
OCC=106.53444686
XCC=122.81869313
CH=1.10383091
A1=54.76163191
CH3=1.09470615
H3CC=108.59935331
YCC=126.7607798
CH4=1.09293226
A2=54.53735592

$end

$comment
neutral
$end

$xc_functional
   X HF 1.0
   X BNL 1.0
   C LYP 1.0
$end

$rem
SYMMETRY_DECOMPOSITION	0
exchange 		general
BASIS                   g3large
omega			200
separate_jk		true
mem_static              760
max_scf_cycles          200
scf_final_print         1
sym_ignore              true
$end

--------------------------------------------------------------
 Writing REM_CC_EA            8
 ----------------------------------------------------
       Standard Nuclear Orientation (Angstroms)
    I     Atom         X            Y            Z
 ----------------------------------------------------
    1      C       0.000000     0.000000     0.000000
    2      C       0.000000     0.000000     1.553804
    3      O       1.314189     0.000000     1.943944
    4      H      -0.535234     0.901564     1.898986
    5      H      -0.535234    -0.901564     1.898986
    6      H      -1.037532     0.000000    -0.349155
    7      H       0.507995     0.890187    -0.379486
    8      H       0.507995    -0.890187    -0.379486
 ----------------------------------------------------
 Nuclear Repulsion Energy =    74.3897211119 hartrees
 There are       13 alpha and       12 beta electrons
 Requested basis set is G3large
 There are 60 shells and 176 basis functions

Total QAlloc Memory Limit   2000 MB
Mega-Array Size       743 MB
MEM_STATIC part       760 MB

                       Distance Matrix (Angstroms)
             C (  1)   C (  2)   O (  3)   H (  4)   H (  5)   H (  6)
   C (  2)  1.553804
   O (  3)  2.346489  1.370876
   H (  4)  2.169202  1.103831  2.057961
   H (  5)  2.169202  1.103831  2.057961  1.803127
   H (  6)  1.094706  2.167423  3.284645  2.473713  2.473713
   H (  7)  1.092932  2.188173  2.615475  2.505971  3.080605  1.783817
   H (  8)  1.092932  2.188173  2.615475  3.080605  2.505971  1.783817
             H (  7)
   H (  8)  1.780373
 
 A cutoff of  1.0D-08 yielded   1760 shell pairs
 There are  15158 function pairs ( 18470 Cartesian)
Evaluating contribution to one-electron hamiltonian from nuclear
 Smallest overlap matrix eigenvalue = 1.37E-04
 Multipole matrices computed through 2nd order

  Scale SEOQF with 1.000000e-01/1.000000e-01/1.000000e-01

 Standard Electronic Orientation quadrupole field applied
 Nucleus-field energy     =    -0.0000000048 hartrees
 Guess from superposition of atomic densities
 Warning:  Energy on first SCF cycle will be non-variational
 An unrestricted hybrid HF-DFT SCF calculation will be
 performed using Pulay DIIS extrapolation
 Exchange:     1.0000 Hartree-Fock + 1.0000 BNL
 Correlation:  1.0000 LYP
 Using SG-1 standard quadrature grid
 SCF converges when DIIS error is below 1.0E-05
 ---------------------------------------
  Cycle       Energy         DIIS Error
 ---------------------------------------
    1    -152.8138772488      3.08E-02
    2    -152.4499467682      4.08E-03
    3    -152.4572695908      4.35E-03
    4    -152.5179686033      7.37E-04
    5    -152.5194350046      4.13E-04
    6    -152.5200956110      6.44E-05
    7    -152.5202097568      3.21E-05
    8    -152.5202584254      2.12E-05
    9    -152.5202818495      1.47E-05
   10    -152.5203045213      1.45E-05
   11    -152.5203154669      1.46E-05
   12    -152.5201990863      1.40E-05
   13    -152.5199578537      2.36E-05
   14    -152.5197863058      7.07E-05
   15    -152.5198172316      3.84E-05
   16    -152.5195799944      1.22E-04
   17    -152.5195414452      1.51E-04
   18    -152.5195535671      1.40E-04
   19    -152.5195849244      1.11E-04
   20    -152.5196306882      3.56E-05
   21    -152.5196350111      2.58E-06 Convergence criterion met
 ---------------------------------------
 One-Electron    Energy =  -355.8497359650
 Total Coulomb   Energy =   148.1620755087
 Alpha Exchange  Energy =    -1.4114847576
 Beta  Exchange  Energy =    -1.2995808755
 DFT   Exchange  Energy =   -15.6914726442
 DFT Correlation Energy =    -0.8191573845
 Nuclear Repu.   Energy =    74.3897211070
 Nuclear Attr.   Energy =  -507.8211926949
 Kinetic         Energy =   151.9714567300
 <S^2> = 0.7529
 SCF time:  CPU 197.76 s  wall 228.37 s
 Final Alpha MO Eigenvalues
            1           2           3           4           5           6
    1 -18.7265141  -9.9250894  -9.8521623  -1.0374978  -0.7763308  -0.6600919
            7           8           9          10          11          12
    1  -0.5567741  -0.5137987  -0.4714844  -0.4383112  -0.4371142  -0.3770474
           13          14          15          16          17          18
    1  -0.3283884   0.0246023   0.0450231   0.0489147   0.0608078   0.0842982
 Final Beta MO Eigenvalues
            1           2           3           4           5           6
    1 -18.7037240  -9.9252458  -9.8522959  -1.0018438  -0.7685291  -0.6493630
            7           8           9          10          11          12
    1  -0.5341445  -0.5001261  -0.4611667  -0.4311116  -0.4251109  -0.3070308
           13          14          15          16          17
    1  -0.1145710   0.0247681   0.0451802   0.0488128   0.0610617
 Analysis of SCF Wavefunction
 
 --------------------------------------------------------------
                    Orbital Energies (a.u.)
 --------------------------------------------------------------
 
 Alpha MOs
 -- Occupied --
-18.727  -9.925  -9.852  -1.037  -0.776  -0.660  -0.557  -0.514
 -0.471  -0.438  -0.437  -0.377  -0.328
 -- Virtual --
  0.025   0.045   0.049   0.061   0.084   0.100   0.109   0.126
  0.128   0.147   0.159   0.164   0.170   0.215   0.217   0.231
  0.242   0.263   0.270   0.306   0.320   0.334   0.341   0.399
  0.469   0.474   0.490   0.510   0.572   0.577   0.583   0.595
  0.606   0.619   0.630   0.673   0.704   0.762   0.822   0.833
  0.913   0.959   0.983   1.040   1.048   1.066   1.113   1.131
  1.146   1.187   1.191   1.199   1.205   1.285   1.306   1.335
  1.369   1.420   1.421   1.466   1.483   1.497   1.501   1.537
  1.621   1.724   1.735   1.757   2.004   2.083   2.330   2.412
  2.517   2.561   2.611   2.636   2.809   2.814   2.830   2.959
  2.965   3.051   3.065   3.085   3.181   3.230   3.231   3.268
  3.307   3.335   3.391   3.496   3.525   3.550   3.552   3.577
  3.632   3.709   3.820   3.870   3.949   3.981   3.995   4.016
  4.082   4.198   4.208   4.241   4.263   4.287   4.413   4.434
  4.498   4.524   4.552   4.637   4.906   4.991   5.011   5.033
  5.122   5.237   5.300   5.325   5.422   5.550   5.644   5.666
  5.854   5.889   6.481   6.759   6.777   7.181   7.235   7.508
 24.263  24.389  27.533  27.964  28.028  28.106  28.124  28.336
 40.801  40.839  40.870  40.917  41.101  41.140  41.166  41.179
 41.203  41.253  43.497  43.574  43.674  43.693  43.759  45.593
 45.644  46.167  49.945
 
 Beta MOs
 -- Occupied --
-18.704  -9.925  -9.852  -1.002  -0.769  -0.649  -0.534  -0.500
 -0.461  -0.431  -0.425  -0.307
 -- Virtual --
 -0.115   0.025   0.045   0.049   0.061   0.085   0.101   0.110
  0.128   0.129   0.148   0.160   0.165   0.171   0.218   0.219
  0.235   0.247   0.267   0.275   0.310   0.327   0.335   0.344
  0.405   0.473   0.476   0.495   0.513   0.575   0.583   0.585
  0.597   0.608   0.624   0.636   0.676   0.704   0.765   0.827
  0.837   0.914   0.963   0.989   1.047   1.061   1.070   1.120
  1.151   1.159   1.190   1.196   1.205   1.215   1.290   1.320
  1.337   1.374   1.425   1.431   1.470   1.486   1.502   1.510
  1.544   1.624   1.749   1.752   1.788   2.012   2.112   2.348
  2.421   2.522   2.568   2.619   2.638   2.813   2.817   2.835
  2.960   2.968   3.058   3.068   3.091   3.182   3.232   3.240
  3.275   3.309   3.337   3.399   3.499   3.530   3.551   3.556
  3.580   3.638   3.712   3.828   3.875   3.954   3.985   3.997
  4.025   4.085   4.211   4.211   4.243   4.278   4.298   4.422
  4.439   4.505   4.526   4.558   4.646   4.986   5.013   5.063
  5.089   5.161   5.276   5.315   5.344   5.450   5.569   5.645
  5.672   5.896   5.904   6.503   6.838   6.855   7.255   7.262
  7.547  24.263  24.389  27.533  27.964  28.029  28.106  28.124
 28.336  40.801  40.838  40.869  40.916  41.102  41.139  41.166
 41.179  41.202  41.253  43.559  43.632  43.700  43.752  43.789
 45.640  45.660  46.184  49.974
 --------------------------------------------------------------
 
          Ground-State Mulliken Net Atomic Charges

     Atom                 Charge (a.u.)    Spin (a.u.)
  --------------------------------------------------------
      1 C                    -0.346010       0.000544
      2 C                    -0.295758      -0.010612
      3 O                    -0.139115       0.828952
      4 H                     0.179553       0.088524
      5 H                     0.179521       0.088450
      6 H                     0.110623      -0.003324
      7 H                     0.155590       0.003735
      8 H                     0.155596       0.003732
  --------------------------------------------------------
  Sum of atomic charges =     0.000000
  Sum of spin   charges =     1.000000

 -----------------------------------------------------------------
                    Cartesian Multipole Moments
 -----------------------------------------------------------------
    Charge (ESU x 10^10)
                 0.0000
    Dipole Moment (Debye)
         X      -2.2176      Y       0.0002      Z      -0.6401
       Tot       2.3081
    Quadrupole Moments (Debye-Ang)
        XX     -23.2159     XY      -0.0003     YY     -18.4624
        XZ      -4.9381     YZ       0.0007     ZZ     -22.9323
    Octapole Moments (Debye-Ang^2)
       XXX     -25.3826    XXY      -0.0001    XYY      -6.1426
       YYY       0.0003    XXZ     -27.3180    XYZ      -0.0001
       YYZ     -18.3880    XZZ     -16.9480    YZZ       0.0022
       ZZZ     -71.7247
    Hexadecapole Moments (Debye-Ang^3)
      XXXX    -100.6845   XXXY      -0.0011   XXYY     -20.3989
      XYYY      -0.0006   YYYY     -34.1016   XXXZ     -47.8980
      XXYZ       0.0008   XYYZ     -14.1182   YYYZ       0.0010
      XXZZ     -72.2763   XYZZ       0.0008   YYZZ     -44.2012
      XZZZ     -63.0532   YZZZ       0.0062   ZZZZ    -292.2551
 -----------------------------------------------------------------
 Total job time:  228.66s(wall), 197.95s(cpu) 
 Mon Nov 14 15:16:57 2011

        *************************************************************
        *                                                           *
        *  Thank you very much for using Q-Chem.  Have a nice day.  *
        *                                                           *
        *************************************************************


0 sent ACK to 0 
now end server 0 ... 
 
**********************************************************************
Job 3 of 3 
**********************************************************************
 
Process 0 of 1 is on cl193.stfx.acenet.ca - thread support 1
initial socket setup ...start
initial socket setup ...done 
now start server 0 ... 

cmd = /usr/bin/ssh clhead /usr/local/qchem/bin/get_hostid 962088750 > /scratch/tmp/4825343.1.medium.q/qchem15398/lic.dat
                  Welcome to Q-Chem
     A Quantum Leap Into The Future Of Chemistry

 Y. Shao, L. Fusti-Molnar, Y. Jung, J. Kussmann, C. Ochsenfeld,
 S. T. Brown, A. T. B. Gilbert, L. V. Slipchenko,S. V. Levchenko,
 D. P. O'Neill, R. A. DiStasio Jr., R. C. Lochan, T. Wang,
 G. J. O. Beran, N. A. Besley, J. M. Herbert, C. Y. Lin,
 T. Van Voorhis, S. H. Chien, A. Sodt, R. P. Steele, 
 V. A. Rassolov, P. E. Maslen, P. P. Korambath, R. D. Adamson,
 B. Austin, J. Baker, E. F. C. Byrd, H. Dachsel, R. J. Doerksen,
 A. Dreuw, B. D. Dunietz, A. D. Dutoi, T. R. Furlani,
 S. R. Gwaltney, A. Heyden, S. Hirata, C.-P. Hsu, G. Kedziora,
 R. Z. Khaliullin, P. Klunzinger, A. M. Lee, M. S. Lee, W. Liang,
 I. Lotan, N. Nair, B. Peters, E. I. Proynov, P. A. Pieniazek, 
 Y. M. Rhee, J. Ritchie, E. Rosta, C. D. Sherrill, 
 A. C. Simmonett, J. E. Subotnik, H. L. Woodcock III,
 W. Zhang, A. T. Bell, A. K. Chakraborty, D. M. Chipman,
 F. J. Keil, A. Warshel, W. J. Hehre, H. F. Schaefer III,
 J. Kong, A. I. Krylov, P. M. W. Gill, M. Head-Gordon,
 Q-Chem, Version 3.1, Q-Chem, Inc., Pittsburgh, PA (2007).

 Additional authors for Version 3.1: 
 Z. Gan, Y. Zhao, N. E. Schultz, D. Truhlar, E. Epifanovsky and M. Oana.

 Additional authors for Version 3.2: 
 R. Baer, B. R. Brooks, D. Casanova, J.-D. Chai, C.-L. Cheng, 
 C. Cramer, D. Crittenden, A. Ghysels, G. Hawkins, E. G. Hohenstein, 
 C. Kelley, W. Kurlancheek, D. Liotard, E. Livshits, P. Manohar, 
 A. Marenich, D. Neuhauser, R. Olson, M. A. Rohrdanz, K. S. Thanthiriwatte, 
 A. J. W. Thom, V. Vanovschi, C. F. Williams, Q. Wu and Z.-Q. You. 


 Intel X86 Linux Version

 Q-chem begins on Mon Nov 14 15:17:00 2011  

 Parallel job on  1  processors
Processing $rem in /usr/local/qchem/config/preferences.

theFileMan(): MAXOPENFILES=974 MAX_SUB_FILE_NUM=16
Maximum size of a physical file is 2.0 GB, maximum size of a tmp-file is 32.0 GB


--------------------------------------------------------------
User input:
--------------------------------------------------------------

$molecule
1,3
C
C,1,CC
O,2,CO,1,OCC
X,3,0.97,2,107.,1,180.,0
X,2,1.,1,XCC,3,180.,0
H,2,CH,5,A1,1,90.,0
H,2,CH,5,A1,1,-90.,0
H,1,CH3,2,H3CC,3,180.,0
X,1,1.,2,YCC,3,0.,0
H,1,CH4,9,A2,2,90.,0
H,1,CH4,9,A2,2,-90.,0

CC=1.55380371
CO=1.3708761
OCC=106.53444686
XCC=122.81869313
CH=1.10383091
A1=54.76163191
CH3=1.09470615
H3CC=108.59935331
YCC=126.7607798
CH4=1.09293226
A2=54.53735592

$end

$comment
positive
$end

$xc_functional
   X HF 1.0
   X BNL 1.0
   C LYP 1.0
$end

$rem
SYMMETRY_DECOMPOSITION	0
exchange 		general
BASIS                   g3large
omega			200
separate_jk		true
mem_static              760
max_scf_cycles          200
scf_final_print         1
sym_ignore              true
$end

--------------------------------------------------------------
 Writing REM_CC_EA            8
 ----------------------------------------------------
       Standard Nuclear Orientation (Angstroms)
    I     Atom         X            Y            Z
 ----------------------------------------------------
    1      C       0.000000     0.000000     0.000000
    2      C       0.000000     0.000000     1.553804
    3      O       1.314189     0.000000     1.943944
    4      H      -0.535234     0.901564     1.898986
    5      H      -0.535234    -0.901564     1.898986
    6      H      -1.037532     0.000000    -0.349155
    7      H       0.507995     0.890187    -0.379486
    8      H       0.507995    -0.890187    -0.379486
 ----------------------------------------------------
 Nuclear Repulsion Energy =    74.3897211119 hartrees
 There are       13 alpha and       11 beta electrons
 Requested basis set is G3large
 There are 60 shells and 176 basis functions

Total QAlloc Memory Limit   2000 MB
Mega-Array Size       743 MB
MEM_STATIC part       760 MB

                       Distance Matrix (Angstroms)
             C (  1)   C (  2)   O (  3)   H (  4)   H (  5)   H (  6)
   C (  2)  1.553804
   O (  3)  2.346489  1.370876
   H (  4)  2.169202  1.103831  2.057961
   H (  5)  2.169202  1.103831  2.057961  1.803127
   H (  6)  1.094706  2.167423  3.284645  2.473713  2.473713
   H (  7)  1.092932  2.188173  2.615475  2.505971  3.080605  1.783817
   H (  8)  1.092932  2.188173  2.615475  3.080605  2.505971  1.783817
             H (  7)
   H (  8)  1.780373
 
 A cutoff of  1.0D-08 yielded   1760 shell pairs
 There are  15158 function pairs ( 18470 Cartesian)
Evaluating contribution to one-electron hamiltonian from nuclear
 Smallest overlap matrix eigenvalue = 1.37E-04
 Multipole matrices computed through 2nd order

  Scale SEOQF with 1.000000e-01/1.000000e-01/1.000000e-01

 Standard Electronic Orientation quadrupole field applied
 Nucleus-field energy     =    -0.0000000048 hartrees
 Guess from superposition of atomic densities
 Warning:  Energy on first SCF cycle will be non-variational
 An unrestricted hybrid HF-DFT SCF calculation will be
 performed using Pulay DIIS extrapolation
 Exchange:     1.0000 Hartree-Fock + 1.0000 BNL
 Correlation:  1.0000 LYP
 Using SG-1 standard quadrature grid
 SCF converges when DIIS error is below 1.0E-05
 Warning!  Inaccurate integrated density:
   Number of electrons =    24
   Numerical integral  =    24.999848811569
   Relative error      =     4.1660367149 %
 ---------------------------------------
  Cycle       Energy         DIIS Error
 ---------------------------------------
    1    -152.8138772488      3.08E-02
    2    -152.1036827673      3.54E-03
    3    -152.0780477879      4.62E-03
    4    -152.1496399272      1.56E-03
    5    -152.1580354887      3.71E-04
    6    -152.1588040181      9.28E-05
    7    -152.1589534069      5.08E-05
    8    -152.1590263335      2.09E-05
    9    -152.1590512501      6.68E-06 Convergence criterion met
 ---------------------------------------
 One-Electron    Energy =  -348.4648017986
 Total Coulomb   Energy =   140.7929317266
 Alpha Exchange  Energy =    -1.4162641354
 Beta  Exchange  Energy =    -1.1883676736
 DFT   Exchange  Energy =   -15.4881765668
 DFT Correlation Energy =    -0.7840939093
 Nuclear Repu.   Energy =    74.3897211070
 Nuclear Attr.   Energy =  -500.0807361905
 Kinetic         Energy =   151.6159343919
 <S^2> = 2.0060
 SCF time:  CPU 86.19 s  wall 97.82 s
 Final Alpha MO Eigenvalues
            1           2           3           4           5           6
    1 -19.1210482 -10.2248448 -10.1203789  -1.3886276  -1.0627325  -0.9380741
            7           8           9          10          11          12
    1  -0.8520713  -0.8355637  -0.7920097  -0.7172785  -0.6912331  -0.6731963
           13          14          15          16          17          18
    1  -0.6643358  -0.1407626  -0.1127046  -0.1048328  -0.1016749  -0.0692071
 Final Beta MO Eigenvalues
            1           2           3           4           5           6
    1 -19.0798819 -10.2223532 -10.1166195  -1.3236495  -1.0367242  -0.9128893
            7           8           9          10          11          12
    1  -0.8073578  -0.7904660  -0.7394859  -0.6817267  -0.6727661  -0.4189912
           13          14          15          16
    1  -0.4141262  -0.1374930  -0.1052196  -0.1020020
 Analysis of SCF Wavefunction
 
 --------------------------------------------------------------
                    Orbital Energies (a.u.)
 --------------------------------------------------------------
 
 Alpha MOs
 -- Occupied --
-19.121 -10.225 -10.120  -1.389  -1.063  -0.938  -0.852  -0.836
 -0.792  -0.717  -0.691  -0.673  -0.664
 -- Virtual --
 -0.141  -0.113  -0.105  -0.102  -0.069  -0.059  -0.055  -0.047
 -0.032  -0.007  -0.004   0.001   0.005   0.011   0.022   0.041
  0.056   0.057   0.061   0.105   0.131   0.131   0.160   0.189
  0.255   0.258   0.281   0.288   0.339   0.343   0.365   0.374
  0.382   0.403   0.411   0.442   0.508   0.533   0.587   0.590
  0.697   0.706   0.728   0.782   0.800   0.820   0.847   0.873
  0.896   0.940   0.950   0.957   0.972   1.038   1.052   1.091
  1.127   1.166   1.182   1.220   1.250   1.263   1.263   1.293
  1.393   1.433   1.439   1.469   1.697   1.791   2.024   2.154
  2.262   2.298   2.344   2.382   2.527   2.531   2.558   2.689
  2.710   2.776   2.794   2.819   2.914   2.955   2.965   3.006
  3.034   3.050   3.119   3.225   3.240   3.268   3.293   3.298
  3.354   3.439   3.539   3.597   3.684   3.719   3.736   3.744
  3.807   3.921   3.952   3.996   3.996   4.013   4.136   4.164
  4.244   4.262   4.300   4.375   4.569   4.601   4.665   4.667
  4.809   4.897   4.959   5.026   5.121   5.254   5.382   5.414
  5.536   5.542   6.144   6.368   6.385   6.835   6.844   7.151
 23.989  24.095  27.244  27.666  27.737  27.840  27.851  28.053
 40.503  40.542  40.603  40.638  40.800  40.839  40.873  40.903
 40.932  40.987  43.090  43.164  43.266  43.312  43.357  45.211
 45.231  45.782  49.552
 
 Beta MOs
 -- Occupied --
-19.080 -10.222 -10.117  -1.324  -1.037  -0.913  -0.807  -0.790
 -0.739  -0.682  -0.673
 -- Virtual --
 -0.419  -0.414  -0.137  -0.105  -0.102  -0.099  -0.064  -0.056
 -0.052  -0.045  -0.030  -0.005   0.002   0.010   0.012   0.017
  0.026   0.044   0.060   0.062   0.068   0.112   0.138   0.139
  0.163   0.198   0.264   0.265   0.286   0.296   0.346   0.355
  0.371   0.382   0.390   0.407   0.421   0.450   0.511   0.539
  0.596   0.597   0.700   0.720   0.741   0.796   0.820   0.829
  0.872   0.906   0.909   0.955   0.961   0.972   0.978   1.051
  1.070   1.099   1.140   1.185   1.194   1.239   1.257   1.274
  1.276   1.307   1.405   1.471   1.478   1.506   1.728   1.825
  2.054   2.173   2.280   2.313   2.360   2.391   2.544   2.548
  2.576   2.704   2.717   2.790   2.806   2.836   2.927   2.972
  2.977   3.021   3.048   3.061   3.134   3.237   3.250   3.281
  3.304   3.312   3.366   3.451   3.561   3.614   3.698   3.735
  3.746   3.760   3.823   3.950   3.968   4.006   4.019   4.036
  4.160   4.183   4.258   4.276   4.312   4.395   4.662   4.691
  4.754   4.766   4.862   4.963   5.021   5.050   5.161   5.293
  5.397   5.425   5.585   5.590   6.182   6.507   6.523   6.923
  6.933   7.219  23.994  24.100  27.249  27.667  27.741  27.843
 27.855  28.058  40.509  40.544  40.606  40.645  40.805  40.841
 40.877  40.908  40.938  40.990  43.196  43.270  43.336  43.386
 43.425  45.268  45.287  45.812  49.603
 --------------------------------------------------------------
 
          Ground-State Mulliken Net Atomic Charges

     Atom                 Charge (a.u.)    Spin (a.u.)
  --------------------------------------------------------
      1 C                    -0.311075       0.160867
      2 C                    -0.207976       0.133098
      3 O                     0.301303       1.387277
      4 H                     0.284800       0.134855
      5 H                     0.284913       0.135174
      6 H                     0.207773       0.030337
      7 H                     0.220124       0.009261
      8 H                     0.220137       0.009132
  --------------------------------------------------------
  Sum of atomic charges =     1.000000
  Sum of spin   charges =     2.000000

 -----------------------------------------------------------------
                    Cartesian Multipole Moments
 -----------------------------------------------------------------
    Charge (ESU x 10^10)
                 4.8032
    Dipole Moment (Debye)
         X      -0.2971      Y      -0.0004      Z       5.3888
       Tot       5.3969
    Quadrupole Moments (Debye-Ang)
        XX     -15.1848     XY      -0.0008     YY     -14.7190
        XZ      -0.4667     YZ      -0.0020     ZZ      -5.9395
    Octapole Moments (Debye-Ang^2)
       XXX     -17.7070    XXY      -0.0016    XYY      -5.9142
       YYY       0.0002    XXZ     -15.7242    XYZ       0.0010
       YYZ     -14.5116    XZZ      -6.5339    YZZ       0.0014
       ZZZ     -33.0970
    Hexadecapole Moments (Debye-Ang^3)
      XXXX     -71.9882   XXXY      -0.0040   XXYY     -15.5098
      XYYY      -0.0005   YYYY     -24.4045   XXXZ     -31.4669
      XXYZ      -0.0024   XYYZ     -14.3040   YYYZ      -0.0024
      XXZZ     -42.6122   XYZZ       0.0050   YYZZ     -32.4917
      XZZZ     -34.1022   YZZZ       0.0041   ZZZZ    -180.2997
 -----------------------------------------------------------------
 Total job time:  98.04s(wall), 86.37s(cpu) 
 Mon Nov 14 15:18:38 2011

        *************************************************************
        *                                                           *
        *  Thank you very much for using Q-Chem.  Have a nice day.  *
        *                                                           *
        *************************************************************


0 sent ACK to 0 
now end server 0 ... 
