Process 0 of 1 is on cl231.stfx.acenet.ca - thread support 1
initial socket setup ...start
initial socket setup ...done 
now start server 0 ... 

cmd = /usr/bin/ssh clhead /usr/local/qchem/bin/get_hostid 866462397 > /scratch/tmp/5955282.1.long.q/qchem3910/lic.dat
                  Welcome to Q-Chem
     A Quantum Leap Into The Future Of Chemistry

 Y. Shao, L. Fusti-Molnar, Y. Jung, J. Kussmann, C. Ochsenfeld,
 S. T. Brown, A. T. B. Gilbert, L. V. Slipchenko,S. V. Levchenko,
 D. P. O'Neill, R. A. DiStasio Jr., R. C. Lochan, T. Wang,
 G. J. O. Beran, N. A. Besley, J. M. Herbert, C. Y. Lin,
 T. Van Voorhis, S. H. Chien, A. Sodt, R. P. Steele, 
 V. A. Rassolov, P. E. Maslen, P. P. Korambath, R. D. Adamson,
 B. Austin, J. Baker, E. F. C. Byrd, H. Dachsel, R. J. Doerksen,
 A. Dreuw, B. D. Dunietz, A. D. Dutoi, T. R. Furlani,
 S. R. Gwaltney, A. Heyden, S. Hirata, C.-P. Hsu, G. Kedziora,
 R. Z. Khaliullin, P. Klunzinger, A. M. Lee, M. S. Lee, W. Liang,
 I. Lotan, N. Nair, B. Peters, E. I. Proynov, P. A. Pieniazek, 
 Y. M. Rhee, J. Ritchie, E. Rosta, C. D. Sherrill, 
 A. C. Simmonett, J. E. Subotnik, H. L. Woodcock III,
 W. Zhang, A. T. Bell, A. K. Chakraborty, D. M. Chipman,
 F. J. Keil, A. Warshel, W. J. Hehre, H. F. Schaefer III,
 J. Kong, A. I. Krylov, P. M. W. Gill, M. Head-Gordon,
 Q-Chem, Version 3.1, Q-Chem, Inc., Pittsburgh, PA (2007).

 Additional authors for Version 3.1: 
 Z. Gan, Y. Zhao, N. E. Schultz, D. Truhlar, E. Epifanovsky and M. Oana.

 Additional authors for Version 3.2: 
 R. Baer, B. R. Brooks, D. Casanova, J.-D. Chai, C.-L. Cheng, 
 C. Cramer, D. Crittenden, A. Ghysels, G. Hawkins, E. G. Hohenstein, 
 C. Kelley, W. Kurlancheek, D. Liotard, E. Livshits, P. Manohar, 
 A. Marenich, D. Neuhauser, R. Olson, M. A. Rohrdanz, K. S. Thanthiriwatte, 
 A. J. W. Thom, V. Vanovschi, C. F. Williams, Q. Wu and Z.-Q. You. 


 Intel X86 Linux Version

 Q-chem begins on Wed Apr 24 16:29:34 2013  

 Parallel job on  1  processors
Processing $rem in /usr/local/qchem/config/preferences.

theFileMan(): MAXOPENFILES=974 MAX_SUB_FILE_NUM=16
Maximum size of a physical file is 2.0 GB, maximum size of a tmp-file is 32.0 GB


--------------------------------------------------------------
User input:
--------------------------------------------------------------

$molecule
-1,2
H
H,1,r

r=0.74264369

$end

$comment
negative
$end

$xc_functional
C PBE   1.00
X wPBE  1.00
$end

$rem
SYMMETRY_DECOMPOSITION	0
exchange 		general
LRC_DFT                 true
BASIS                   g3large
omega			1000
mem_static              760
max_scf_cycles          200
scf_final_print         1
sym_ignore              true
$end

--------------------------------------------------------------
 Writing REM_CC_EA            2
 ----------------------------------------------------
       Standard Nuclear Orientation (Angstroms)
    I     Atom         X            Y            Z
 ----------------------------------------------------
    1      H       0.000000     0.000000     0.000000
    2      H       0.000000     0.000000     0.742644
 ----------------------------------------------------
 Nuclear Repulsion Energy =     0.7125586845 hartrees
 There are        2 alpha and        1 beta electrons
 Requested basis set is G3large
 There are 12 shells and 20 basis functions

Total QAlloc Memory Limit   2000 MB
Mega-Array Size       743 MB
MEM_STATIC part       760 MB

                       Distance Matrix (Angstroms)
             H (  1)
   H (  2)  0.742644
 
 A cutoff of  1.0D-08 yielded     78 shell pairs
 There are    222 function pairs
Evaluating contribution to one-electron hamiltonian from nuclear
 Smallest overlap matrix eigenvalue = 3.03E-03
 Multipole matrices computed through 2nd order

  Scale SEOQF with 1.000000e+00/1.000000e+00/1.000000e+00

 Standard Electronic Orientation quadrupole field applied
 Nucleus-field energy     =    -0.0000000006 hartrees
 Guess from superposition of atomic densities
 Warning:  Energy on first SCF cycle will be non-variational
 Long-range K will be added via erf
 Coulomb attenuation parameter = 1 bohr**(-1)
 An unrestricted Kohn-Sham SCF calculation will be
 performed using Pulay DIIS extrapolation
 Exchange:  wPBE + LR-HF      Correlation:  PBE
 Using SG-1 standard quadrature grid
 SCF converges when DIIS error is below 1.0E-05
 Requested basis set is G3large
 There are 12 shells and 20 basis functions
 A cutoff of  1.0D-08 yielded     78 shell pairs
 There are    222 function pairs
 Warning!  Inaccurate integrated density:
   Number of electrons =     3
   Numerical integral  =     2.000000900694
   Relative error      =   -33.3333033102 %
 ---------------------------------------
  Cycle       Energy         DIIS Error
 ---------------------------------------
    1      -0.8982301996      2.28E-02
    2      -1.1101704266      3.40E-03
    3      -1.1157827642      1.51E-03
    4      -1.1171321339      5.10E-04
    5      -1.1173372807      6.90E-05
    6      -1.1173424518      5.04E-06 Convergence criterion met
 ---------------------------------------
 One-Electron    Energy =    -2.8156076072
 Total Coulomb   Energy =     1.7877176528
 Alpha Exchange  Energy =    -0.3659752295
 Beta  Exchange  Energy =    -0.2798455192
 DFT   Exchange  Energy =    -0.1047742218
 DFT Correlation Energy =    -0.0514162109
 Nuclear Repu.   Energy =     0.7125586839
 Nuclear Attr.   Energy =    -4.0192297886
 Kinetic         Energy =     1.2036221814
 <S^2> = 0.7504
 SCF time:  CPU 0.34 s  wall 0.40 s
 Final Alpha MO Eigenvalues
            1           2           3           4           5           6
    1  -0.4283659   0.0602977   0.1854348   0.3821179   0.6113257   0.8290941
            7
    1   0.8290943
 Final Beta MO Eigenvalues
            1           2           3           4           5           6
    1  -0.4253516   0.2130115   0.2197405   0.4089781   0.6135490   0.8307386
 Analysis of SCF Wavefunction
 
 --------------------------------------------------------------
                    Orbital Energies (a.u.)
 --------------------------------------------------------------
 
 Alpha MOs
 -- Occupied --
 -0.428   0.060
 -- Virtual --
  0.185   0.382   0.611   0.829   0.829   0.887   1.261   1.269
  1.269   1.767   2.692   2.886   3.824   3.824   4.169   4.640
  4.640   6.065
 
 Beta MOs
 -- Occupied --
 -0.425
 -- Virtual --
  0.213   0.220   0.409   0.614   0.831   0.831   0.888   1.269
  1.275   1.275   1.769   2.690   2.885   3.823   3.823   4.170
  4.640   4.640   6.065
 --------------------------------------------------------------
 
          Ground-State Mulliken Net Atomic Charges

     Atom                 Charge (a.u.)    Spin (a.u.)
  --------------------------------------------------------
      1 H                    -0.500090       0.500109
      2 H                    -0.499910       0.499891
  --------------------------------------------------------
  Sum of atomic charges =    -1.000000
  Sum of spin   charges =     1.000000

 -----------------------------------------------------------------
                    Cartesian Multipole Moments
 -----------------------------------------------------------------
    Charge (ESU x 10^10)
                -4.8032
    Dipole Moment (Debye)
         X       0.0000      Y       0.0000      Z      -1.7829
       Tot       1.7829
    Quadrupole Moments (Debye-Ang)
        XX     -12.2080     XY       0.0000     YY     -12.2080
        XZ       0.0000     YZ       0.0000     ZZ     -32.6969
    Octapole Moments (Debye-Ang^2)
       XXX       0.0000    XXY       0.0000    XYY       0.0000
       YYY       0.0000    XXZ      -4.5314    XYZ       0.0000
       YYZ      -4.5314    XZZ       0.0000    YZZ       0.0000
       ZZZ     -35.9267
    Hexadecapole Moments (Debye-Ang^3)
      XXXX     -64.4241   XXXY       0.0000   XXYY     -21.4747
      XYYY       0.0000   YYYY     -64.4241   XXXZ       0.0000
      XXYZ       0.0000   XYYZ       0.0000   YYYZ       0.0000
      XXZZ     -65.4156   XYZZ       0.0000   YYZZ     -65.4156
      XZZZ       0.0000   YZZZ       0.0000   ZZZZ    -347.2394
 -----------------------------------------------------------------
 Total job time:  0.44s(wall), 0.38s(cpu) 
 Wed Apr 24 16:29:34 2013

        *************************************************************
        *                                                           *
        *  Thank you very much for using Q-Chem.  Have a nice day.  *
        *                                                           *
        *************************************************************


0 sent ACK to 0 
now end server 0 ... 
 
**********************************************************************
Job 2 of 3 
**********************************************************************
 
Process 0 of 1 is on cl231.stfx.acenet.ca - thread support 1
initial socket setup ...start
initial socket setup ...done 
now start server 0 ... 

cmd = /usr/bin/ssh clhead /usr/local/qchem/bin/get_hostid 1018014958 > /scratch/tmp/5955282.1.long.q/qchem3910/lic.dat
                  Welcome to Q-Chem
     A Quantum Leap Into The Future Of Chemistry

 Y. Shao, L. Fusti-Molnar, Y. Jung, J. Kussmann, C. Ochsenfeld,
 S. T. Brown, A. T. B. Gilbert, L. V. Slipchenko,S. V. Levchenko,
 D. P. O'Neill, R. A. DiStasio Jr., R. C. Lochan, T. Wang,
 G. J. O. Beran, N. A. Besley, J. M. Herbert, C. Y. Lin,
 T. Van Voorhis, S. H. Chien, A. Sodt, R. P. Steele, 
 V. A. Rassolov, P. E. Maslen, P. P. Korambath, R. D. Adamson,
 B. Austin, J. Baker, E. F. C. Byrd, H. Dachsel, R. J. Doerksen,
 A. Dreuw, B. D. Dunietz, A. D. Dutoi, T. R. Furlani,
 S. R. Gwaltney, A. Heyden, S. Hirata, C.-P. Hsu, G. Kedziora,
 R. Z. Khaliullin, P. Klunzinger, A. M. Lee, M. S. Lee, W. Liang,
 I. Lotan, N. Nair, B. Peters, E. I. Proynov, P. A. Pieniazek, 
 Y. M. Rhee, J. Ritchie, E. Rosta, C. D. Sherrill, 
 A. C. Simmonett, J. E. Subotnik, H. L. Woodcock III,
 W. Zhang, A. T. Bell, A. K. Chakraborty, D. M. Chipman,
 F. J. Keil, A. Warshel, W. J. Hehre, H. F. Schaefer III,
 J. Kong, A. I. Krylov, P. M. W. Gill, M. Head-Gordon,
 Q-Chem, Version 3.1, Q-Chem, Inc., Pittsburgh, PA (2007).

 Additional authors for Version 3.1: 
 Z. Gan, Y. Zhao, N. E. Schultz, D. Truhlar, E. Epifanovsky and M. Oana.

 Additional authors for Version 3.2: 
 R. Baer, B. R. Brooks, D. Casanova, J.-D. Chai, C.-L. Cheng, 
 C. Cramer, D. Crittenden, A. Ghysels, G. Hawkins, E. G. Hohenstein, 
 C. Kelley, W. Kurlancheek, D. Liotard, E. Livshits, P. Manohar, 
 A. Marenich, D. Neuhauser, R. Olson, M. A. Rohrdanz, K. S. Thanthiriwatte, 
 A. J. W. Thom, V. Vanovschi, C. F. Williams, Q. Wu and Z.-Q. You. 


 Intel X86 Linux Version

 Q-chem begins on Wed Apr 24 16:29:37 2013  

 Parallel job on  1  processors
Processing $rem in /usr/local/qchem/config/preferences.

theFileMan(): MAXOPENFILES=974 MAX_SUB_FILE_NUM=16
Maximum size of a physical file is 2.0 GB, maximum size of a tmp-file is 32.0 GB


--------------------------------------------------------------
User input:
--------------------------------------------------------------

$molecule
0,1
H
H,1,r

r=0.74264369

$end

$comment
neutral
$end

$xc_functional
C PBE   1.00
X wPBE  1.00
$end


$rem
SYMMETRY_DECOMPOSITION	0
LRC_DFT                 true
exchange 		general
BASIS                   g3large
omega			1000
mem_static              760
max_scf_cycles          200
scf_final_print         1
sym_ignore              true
$end

--------------------------------------------------------------
 Writing REM_CC_EA            2
 ----------------------------------------------------
       Standard Nuclear Orientation (Angstroms)
    I     Atom         X            Y            Z
 ----------------------------------------------------
    1      H       0.000000     0.000000     0.000000
    2      H       0.000000     0.000000     0.742644
 ----------------------------------------------------
 Nuclear Repulsion Energy =     0.7125586845 hartrees
 There are        1 alpha and        1 beta electrons
 Requested basis set is G3large
 There are 12 shells and 20 basis functions

Total QAlloc Memory Limit   2000 MB
Mega-Array Size       743 MB
MEM_STATIC part       760 MB

                       Distance Matrix (Angstroms)
             H (  1)
   H (  2)  0.742644
 
 A cutoff of  1.0D-08 yielded     78 shell pairs
 There are    222 function pairs
Evaluating contribution to one-electron hamiltonian from nuclear
 Smallest overlap matrix eigenvalue = 3.03E-03
 Multipole matrices computed through 2nd order

  Scale SEOQF with 1.000000e+00/1.000000e+00/1.000000e+00

 Standard Electronic Orientation quadrupole field applied
 Nucleus-field energy     =    -0.0000000006 hartrees
 Guess from superposition of atomic densities
 Warning:  Energy on first SCF cycle will be non-variational
 Long-range K will be added via erf
 Coulomb attenuation parameter = 1 bohr**(-1)
 A restricted Kohn-Sham SCF calculation will be
 performed using Pulay DIIS extrapolation
 Exchange:  wPBE + LR-HF      Correlation:  PBE
 Using SG-1 standard quadrature grid
 SCF converges when DIIS error is below 1.0E-05
 Requested basis set is G3large
 There are 12 shells and 20 basis functions
 A cutoff of  1.0D-08 yielded     78 shell pairs
 There are    222 function pairs
 ---------------------------------------
  Cycle       Energy         DIIS Error
 ---------------------------------------
    1      -0.8982301996      2.28E-02
    2      -1.1792149747      3.73E-03
    3      -1.1806505418      4.02E-04
    4      -1.1806673989      5.35E-05
    5      -1.1806677756      3.13E-06 Convergence criterion met
 ---------------------------------------
 One-Electron    Energy =    -2.5084596223
 Total Coulomb   Energy =     1.3261272921
 Alpha Exchange  Energy =    -0.2813386221
 Beta  Exchange  Energy =    -0.2813386221
 DFT   Exchange  Energy =    -0.1042545793
 DFT Correlation Energy =    -0.0439623057
 Nuclear Repu.   Energy =     0.7125586839
 Nuclear Attr.   Energy =    -3.6444670043
 Kinetic         Energy =     1.1360073820
 SCF time:  CPU 0.24 s  wall 0.28 s
 Final Alpha MO Eigenvalues
            1           2           3           4           5           6
    1  -0.6153219   0.0699321   0.0722658   0.2320604   0.4459960   0.6444865
 Analysis of SCF Wavefunction
 
 --------------------------------------------------------------
                    Orbital Energies (a.u.)
 --------------------------------------------------------------
 
 Alpha MOs
 -- Occupied --
 -0.615
 -- Virtual --
  0.070   0.072   0.232   0.446   0.644   0.644   0.711   1.074
  1.085   1.085   1.576   2.507   2.697   3.635   3.635   3.977
  4.450   4.450   5.872
 --------------------------------------------------------------
 
          Ground-State Mulliken Net Atomic Charges

     Atom                 Charge (a.u.)
  ----------------------------------------
      1 H                    -0.000001
      2 H                     0.000001
  ----------------------------------------
  Sum of atomic charges =     0.000000

 -----------------------------------------------------------------
                    Cartesian Multipole Moments
 -----------------------------------------------------------------
    Charge (ESU x 10^10)
                 0.0000
    Dipole Moment (Debye)
         X       0.0000      Y       0.0000      Z       0.0000
       Tot       0.0000
    Quadrupole Moments (Debye-Ang)
        XX      -2.0411     XY       0.0000     YY      -2.0411
        XZ       0.0000     YZ       0.0000     ZZ      -1.3983
    Octapole Moments (Debye-Ang^2)
       XXX       0.0000    XXY       0.0000    XYY       0.0000
       YYY       0.0000    XXZ      -0.7579    XYZ       0.0000
       YYZ      -0.7579    XZZ       0.0000    YZZ       0.0000
       ZZZ      -1.5577
    Hexadecapole Moments (Debye-Ang^3)
      XXXX      -1.9553   XXXY       0.0000   XXYY      -0.6518
      XYYY       0.0000   YYYY      -1.9553   XXXZ       0.0000
      XXYZ       0.0000   XYYZ       0.0000   YYYZ       0.0000
      XXZZ      -1.0696   XYZZ       0.0000   YYZZ      -1.0696
      XZZZ       0.0000   YZZZ       0.0000   ZZZZ      -3.8137
 -----------------------------------------------------------------
 Total job time:  0.32s(wall), 0.27s(cpu) 
 Wed Apr 24 16:29:38 2013

        *************************************************************
        *                                                           *
        *  Thank you very much for using Q-Chem.  Have a nice day.  *
        *                                                           *
        *************************************************************


0 sent ACK to 0 
now end server 0 ... 
 
**********************************************************************
Job 3 of 3 
**********************************************************************
 
Process 0 of 1 is on cl231.stfx.acenet.ca - thread support 1
initial socket setup ...start
initial socket setup ...done 
now start server 0 ... 

cmd = /usr/bin/ssh clhead /usr/local/qchem/bin/get_hostid 1190309792 > /scratch/tmp/5955282.1.long.q/qchem3910/lic.dat
                  Welcome to Q-Chem
     A Quantum Leap Into The Future Of Chemistry

 Y. Shao, L. Fusti-Molnar, Y. Jung, J. Kussmann, C. Ochsenfeld,
 S. T. Brown, A. T. B. Gilbert, L. V. Slipchenko,S. V. Levchenko,
 D. P. O'Neill, R. A. DiStasio Jr., R. C. Lochan, T. Wang,
 G. J. O. Beran, N. A. Besley, J. M. Herbert, C. Y. Lin,
 T. Van Voorhis, S. H. Chien, A. Sodt, R. P. Steele, 
 V. A. Rassolov, P. E. Maslen, P. P. Korambath, R. D. Adamson,
 B. Austin, J. Baker, E. F. C. Byrd, H. Dachsel, R. J. Doerksen,
 A. Dreuw, B. D. Dunietz, A. D. Dutoi, T. R. Furlani,
 S. R. Gwaltney, A. Heyden, S. Hirata, C.-P. Hsu, G. Kedziora,
 R. Z. Khaliullin, P. Klunzinger, A. M. Lee, M. S. Lee, W. Liang,
 I. Lotan, N. Nair, B. Peters, E. I. Proynov, P. A. Pieniazek, 
 Y. M. Rhee, J. Ritchie, E. Rosta, C. D. Sherrill, 
 A. C. Simmonett, J. E. Subotnik, H. L. Woodcock III,
 W. Zhang, A. T. Bell, A. K. Chakraborty, D. M. Chipman,
 F. J. Keil, A. Warshel, W. J. Hehre, H. F. Schaefer III,
 J. Kong, A. I. Krylov, P. M. W. Gill, M. Head-Gordon,
 Q-Chem, Version 3.1, Q-Chem, Inc., Pittsburgh, PA (2007).

 Additional authors for Version 3.1: 
 Z. Gan, Y. Zhao, N. E. Schultz, D. Truhlar, E. Epifanovsky and M. Oana.

 Additional authors for Version 3.2: 
 R. Baer, B. R. Brooks, D. Casanova, J.-D. Chai, C.-L. Cheng, 
 C. Cramer, D. Crittenden, A. Ghysels, G. Hawkins, E. G. Hohenstein, 
 C. Kelley, W. Kurlancheek, D. Liotard, E. Livshits, P. Manohar, 
 A. Marenich, D. Neuhauser, R. Olson, M. A. Rohrdanz, K. S. Thanthiriwatte, 
 A. J. W. Thom, V. Vanovschi, C. F. Williams, Q. Wu and Z.-Q. You. 


 Intel X86 Linux Version

 Q-chem begins on Wed Apr 24 16:29:40 2013  

 Parallel job on  1  processors
Processing $rem in /usr/local/qchem/config/preferences.

theFileMan(): MAXOPENFILES=974 MAX_SUB_FILE_NUM=16
Maximum size of a physical file is 2.0 GB, maximum size of a tmp-file is 32.0 GB


--------------------------------------------------------------
User input:
--------------------------------------------------------------

$molecule
1,2
H
H,1,r

r=0.74264369

$end

$comment
positive
$end

$xc_functional
C PBE   1.00
X wPBE  1.00
$end

$rem
SYMMETRY_DECOMPOSITION	0
LRC_DFT                 true
exchange 		general
BASIS                   g3large
omega			1000
mem_static              760
max_scf_cycles          200
scf_final_print         1
sym_ignore              true
$end

--------------------------------------------------------------
 Writing REM_CC_EA            2
 ----------------------------------------------------
       Standard Nuclear Orientation (Angstroms)
    I     Atom         X            Y            Z
 ----------------------------------------------------
    1      H       0.000000     0.000000     0.000000
    2      H       0.000000     0.000000     0.742644
 ----------------------------------------------------
 Nuclear Repulsion Energy =     0.7125586845 hartrees
 There are        1 alpha and        0 beta electrons
 Requested basis set is G3large
 There are 12 shells and 20 basis functions

Total QAlloc Memory Limit   2000 MB
Mega-Array Size       743 MB
MEM_STATIC part       760 MB

                       Distance Matrix (Angstroms)
             H (  1)
   H (  2)  0.742644
 
 A cutoff of  1.0D-08 yielded     78 shell pairs
 There are    222 function pairs
Evaluating contribution to one-electron hamiltonian from nuclear
 Smallest overlap matrix eigenvalue = 3.03E-03
 Multipole matrices computed through 2nd order

  Scale SEOQF with 1.000000e+00/1.000000e+00/1.000000e+00

 Standard Electronic Orientation quadrupole field applied
 Nucleus-field energy     =    -0.0000000006 hartrees
 Guess from superposition of atomic densities
 Warning:  Energy on first SCF cycle will be non-variational
 Long-range K will be added via erf
 Coulomb attenuation parameter = 1 bohr**(-1)
 An unrestricted Kohn-Sham SCF calculation will be
 performed using Pulay DIIS extrapolation
 Exchange:  wPBE + LR-HF      Correlation:  PBE
 Using SG-1 standard quadrature grid
 SCF converges when DIIS error is below 1.0E-05
 Requested basis set is G3large
 There are 12 shells and 20 basis functions
 A cutoff of  1.0D-08 yielded     78 shell pairs
 There are    222 function pairs
 Warning!  Inaccurate integrated density:
   Number of electrons =     1
   Numerical integral  =     2.000000900694
   Relative error      =   100.0000900694 %
 ---------------------------------------
  Cycle       Energy         DIIS Error
 ---------------------------------------
    1      -0.8982301996      2.28E-02
    2      -0.5403827366      1.43E-02
    3      -0.5794561388      1.14E-03
    4      -0.5795311830      4.41E-04
    5      -0.5795698387      7.16E-06 Convergence criterion met
 ---------------------------------------
 One-Electron    Energy =    -1.2822739624
 Total Coulomb   Energy =     0.3897835127
 Alpha Exchange  Energy =    -0.3165890306
 Beta  Exchange  Energy =     0.0000000000
 DFT   Exchange  Energy =    -0.0755759095
 DFT Correlation Energy =    -0.0074731327
 Nuclear Repu.   Energy =     0.7125586839
 Nuclear Attr.   Energy =    -2.0601874711
 Kinetic         Energy =     0.7779135087
 <S^2> = 0.7500
 SCF time:  CPU 0.24 s  wall 0.30 s
 Final Alpha MO Eigenvalues
            1           2           3           4           5           6
    1  -1.2797392  -0.2093121  -0.1396624  -0.0458684   0.1159674   0.1696439
 Final Beta MO Eigenvalues
            1           2           3           4           5
    1  -0.5404901  -0.1527344  -0.1204481  -0.0145698   0.1680375
 Analysis of SCF Wavefunction
 
 --------------------------------------------------------------
                    Orbital Energies (a.u.)
 --------------------------------------------------------------
 
 Alpha MOs
 -- Occupied --
 -1.280
 -- Virtual --
 -0.209  -0.140  -0.046   0.116   0.170   0.170   0.300   0.642
  0.661   0.661   1.171   1.900   2.094   2.993   2.993   3.324
  3.814   3.814   5.215
 --------------------------------------------------------------
 
          Ground-State Mulliken Net Atomic Charges

     Atom                 Charge (a.u.)    Spin (a.u.)
  --------------------------------------------------------
      1 H                     0.499999       0.500001
      2 H                     0.500001       0.499999
  --------------------------------------------------------
  Sum of atomic charges =     1.000000
  Sum of spin   charges =     1.000000

 -----------------------------------------------------------------
                    Cartesian Multipole Moments
 -----------------------------------------------------------------
    Charge (ESU x 10^10)
                 4.8032
    Dipole Moment (Debye)
         X       0.0000      Y       0.0000      Z       1.7835
       Tot       1.7835
    Quadrupole Moments (Debye-Ang)
        XX      -0.6918     XY       0.0000     YY      -0.6918
        XZ       0.0000     YZ       0.0000     ZZ       1.0242
    Octapole Moments (Debye-Ang^2)
       XXX       0.0000    XXY       0.0000    XYY       0.0000
       YYY       0.0000    XXZ      -0.2569    XYZ       0.0000
       YYZ      -0.2569    XZZ       0.0000    YZZ       0.0000
       ZZZ       0.6491
    Hexadecapole Moments (Debye-Ang^3)
      XXXX      -0.4081   XXXY       0.0000   XXYY      -0.1360
      XYYY       0.0000   YYYY      -0.4081   XXXZ       0.0000
      XXYZ       0.0000   XYYZ       0.0000   YYYZ       0.0000
      XXZZ      -0.2647   XYZZ       0.0000   YYZZ      -0.2647
      XZZZ       0.0000   YZZZ       0.0000   ZZZZ      -0.0525
 -----------------------------------------------------------------
 Total job time:  0.34s(wall), 0.27s(cpu) 
 Wed Apr 24 16:29:41 2013

        *************************************************************
        *                                                           *
        *  Thank you very much for using Q-Chem.  Have a nice day.  *
        *                                                           *
        *************************************************************


0 sent ACK to 0 
now end server 0 ... 
