Process 0 of 1 is on cl247.stfx.acenet.ca - thread support 1
initial socket setup ...start
initial socket setup ...done 
now start server 0 ... 

cmd = /usr/bin/ssh clhead /usr/local/qchem/bin/get_hostid 1101353895 > /globalscratch/itamblyn/bnl/g297_b3lyp_neut_g03Large_worked/g2g71034/omega300/qchem12475/lic.dat
                  Welcome to Q-Chem
     A Quantum Leap Into The Future Of Chemistry

 Y. Shao, L. Fusti-Molnar, Y. Jung, J. Kussmann, C. Ochsenfeld,
 S. T. Brown, A. T. B. Gilbert, L. V. Slipchenko,S. V. Levchenko,
 D. P. O'Neill, R. A. DiStasio Jr., R. C. Lochan, T. Wang,
 G. J. O. Beran, N. A. Besley, J. M. Herbert, C. Y. Lin,
 T. Van Voorhis, S. H. Chien, A. Sodt, R. P. Steele, 
 V. A. Rassolov, P. E. Maslen, P. P. Korambath, R. D. Adamson,
 B. Austin, J. Baker, E. F. C. Byrd, H. Dachsel, R. J. Doerksen,
 A. Dreuw, B. D. Dunietz, A. D. Dutoi, T. R. Furlani,
 S. R. Gwaltney, A. Heyden, S. Hirata, C.-P. Hsu, G. Kedziora,
 R. Z. Khaliullin, P. Klunzinger, A. M. Lee, M. S. Lee, W. Liang,
 I. Lotan, N. Nair, B. Peters, E. I. Proynov, P. A. Pieniazek, 
 Y. M. Rhee, J. Ritchie, E. Rosta, C. D. Sherrill, 
 A. C. Simmonett, J. E. Subotnik, H. L. Woodcock III,
 W. Zhang, A. T. Bell, A. K. Chakraborty, D. M. Chipman,
 F. J. Keil, A. Warshel, W. J. Hehre, H. F. Schaefer III,
 J. Kong, A. I. Krylov, P. M. W. Gill, M. Head-Gordon,
 Q-Chem, Version 3.1, Q-Chem, Inc., Pittsburgh, PA (2007).

 Additional authors for Version 3.1: 
 Z. Gan, Y. Zhao, N. E. Schultz, D. Truhlar, E. Epifanovsky and M. Oana.

 Additional authors for Version 3.2: 
 R. Baer, B. R. Brooks, D. Casanova, J.-D. Chai, C.-L. Cheng, 
 C. Cramer, D. Crittenden, A. Ghysels, G. Hawkins, E. G. Hohenstein, 
 C. Kelley, W. Kurlancheek, D. Liotard, E. Livshits, P. Manohar, 
 A. Marenich, D. Neuhauser, R. Olson, M. A. Rohrdanz, K. S. Thanthiriwatte, 
 A. J. W. Thom, V. Vanovschi, C. F. Williams, Q. Wu and Z.-Q. You. 


 Intel X86 Linux Version

 Q-chem begins on Tue Apr 12 20:55:27 2011  

 Parallel job on  1  processors
Processing $rem in /usr/local/qchem/config/preferences.

theFileMan(): MAXOPENFILES=974 MAX_SUB_FILE_NUM=16
Maximum size of a physical file is 2.0 GB, maximum size of a tmp-file is 32.0 GB


--------------------------------------------------------------
User input:
--------------------------------------------------------------

$molecule
-1,1
N
O,1,r

r=1.15869834

$end

$comment
negative
$end

$xc_functional
   X HF 1.0
   X BNL 1.0
   C LYP 1.0
$end

$rem
SYMMETRY_DECOMPOSITION	0
exchange 		general
BASIS                   g3large
omega			300
separate_jk		true
mem_static              760
max_scf_cycles          200
scf_final_print         1
sym_ignore              true
$end

--------------------------------------------------------------
 Writing REM_CC_EA            2
 ----------------------------------------------------
       Standard Nuclear Orientation (Angstroms)
    I     Atom         X            Y            Z
 ----------------------------------------------------
    1      N       0.000000     0.000000     0.000000
    2      O       0.000000     0.000000     1.158698
 ----------------------------------------------------
 Nuclear Repulsion Energy =    25.5751844823 hartrees
 There are        8 alpha and        8 beta electrons
 Requested basis set is G3large
 There are 20 shells and 84 basis functions

Total QAlloc Memory Limit   2000 MB
Mega-Array Size       743 MB
MEM_STATIC part       760 MB

                       Distance Matrix (Angstroms)
             N (  1)
   O (  2)  1.158698
 
 A cutoff of  1.0D-08 yielded    206 shell pairs
 There are   3662 function pairs (  4809 Cartesian)
Evaluating contribution to one-electron hamiltonian from nuclear
 Smallest overlap matrix eigenvalue = 2.14E-03
 Multipole matrices computed through 2nd order

  Scale SEOQF with 1.000000e-01/1.000000e-01/1.000000e-01

 Standard Electronic Orientation quadrupole field applied
 Nucleus-field energy     =    -0.0000000012 hartrees
 Guess from superposition of atomic densities
 Warning:  Energy on first SCF cycle will be non-variational
 A restricted hybrid HF-DFT SCF calculation will be
 performed using Pulay DIIS extrapolation
 Exchange:     1.0000 Hartree-Fock + 1.0000 BNL
 Correlation:  1.0000 LYP
 Using SG-1 standard quadrature grid
 SCF converges when DIIS error is below 1.0E-05
 Warning!  Inaccurate integrated density:
   Number of electrons =    16
   Numerical integral  =    14.999983069313
   Relative error      =    -6.2501058168 %
 ---------------------------------------
  Cycle       Energy         DIIS Error
 ---------------------------------------
    1    -128.7365140505      5.00E-02
    2    -128.5215014450      8.15E-03
    3    -128.5420051295      8.99E-03
    4    -128.5946510245      9.17E-04
    5    -128.5950457901      6.26E-04
    6    -128.5952599702      3.51E-04
    7    -128.5953524236      5.95E-05
    8    -128.5953622437      1.81E-05
    9    -128.5953627495      5.91E-06 Convergence criterion met
 ---------------------------------------
 One-Electron    Energy =  -232.2874578400
 Total Coulomb   Energy =    92.3784706834
 Alpha Exchange  Energy =    -1.2563433033
 Beta  Exchange  Energy =    -1.2563433033
 DFT   Exchange  Energy =   -11.1911016087
 DFT Correlation Energy =    -0.5577718588
 Nuclear Repu.   Energy =    25.5751844811
 Nuclear Attr.   Energy =  -360.8087966823
 Kinetic         Energy =   128.5213388423
 SCF time:  CPU 8.46 s  wall 13.27 s
 Final Alpha MO Eigenvalues
            1           2           3           4           5           6
    1 -18.5191947 -13.7670783  -0.9640704  -0.4298121  -0.2886451  -0.2676793
            7           8           9          10          11          12
    1  -0.2414280   0.0593761   0.2778182   0.2822933   0.3380556   0.3531525
           13
    1   0.3606105
 Analysis of SCF Wavefunction
 
 --------------------------------------------------------------
                    Orbital Energies (a.u.)
 --------------------------------------------------------------
 
 Alpha MOs
 -- Occupied --
-18.519 -13.767  -0.964  -0.430  -0.289  -0.268  -0.241   0.059
 -- Virtual --
  0.278   0.282   0.338   0.353   0.361   0.424   0.457   0.463
  0.606   0.772   1.075   1.077   1.103   1.259   1.311   1.313
  1.337   1.352   1.359   1.497   1.521   1.797   1.916   1.917
  2.192   2.421   2.446   2.750   3.892   3.893   3.915   3.917
  3.987   4.023   4.061   4.281   4.308   4.913   4.953   4.983
  5.021   5.060   5.065   5.332   5.347   5.354   5.370   5.739
  5.812   5.815   6.982   7.010   7.032   7.032   7.420   7.445
  7.520   7.962  36.153  37.627  37.647  38.265  40.616  40.767
 40.840  40.856  40.928  43.804  43.891  43.981  43.996  44.112
 45.970  45.988  46.731  50.526
 --------------------------------------------------------------
 
          Ground-State Mulliken Net Atomic Charges

     Atom                 Charge (a.u.)
  ----------------------------------------
      1 N                    -0.933266
      2 O                    -0.066734
  ----------------------------------------
  Sum of atomic charges =    -1.000000

 -----------------------------------------------------------------
                    Cartesian Multipole Moments
 -----------------------------------------------------------------
    Charge (ESU x 10^10)
                -4.8032
    Dipole Moment (Debye)
         X       0.0002      Y       0.0001      Z      -0.7663
       Tot       0.7663
    Quadrupole Moments (Debye-Ang)
        XX     -15.1482     XY      -2.5453     YY     -16.5000
        XZ      -0.0002     YZ      -0.0002     ZZ     -18.5318
    Octapole Moments (Debye-Ang^2)
       XXX       0.0004    XXY       0.0002    XYY       0.0001
       YYY       0.0005    XXZ      -5.1519    XYZ       0.5063
       YYZ      -4.8825    XZZ       0.0006    YZZ       0.0009
       ZZZ     -24.4892
    Hexadecapole Moments (Debye-Ang^3)
      XXXX     -25.4798   XXXY      -5.6962   XXYY      -9.5004
      XYYY      -5.6949   YYYY     -31.5317   XXXZ      -0.0007
      XXYZ      -0.0002   XYYZ      -0.0002   YYYZ      -0.0007
      XXZZ     -16.5064   XYZZ      -2.9983   YYZZ     -18.0982
      XZZZ      -0.0005   YZZZ      -0.0002   ZZZZ     -79.7179
 -----------------------------------------------------------------
 Total job time:  14.04s(wall), 8.56s(cpu) 
 Tue Apr 12 20:55:41 2011

        *************************************************************
        *                                                           *
        *  Thank you very much for using Q-Chem.  Have a nice day.  *
        *                                                           *
        *************************************************************


0 sent ACK to 0 
now end server 0 ... 
 
**********************************************************************
Job 2 of 3 
**********************************************************************
 
Process 0 of 1 is on cl247.stfx.acenet.ca - thread support 1
initial socket setup ...start
initial socket setup ...done 
now start server 0 ... 

cmd = /usr/bin/ssh clhead /usr/local/qchem/bin/get_hostid 2072549951 > /globalscratch/itamblyn/bnl/g297_b3lyp_neut_g03Large_worked/g2g71034/omega300/qchem12475/lic.dat
                  Welcome to Q-Chem
     A Quantum Leap Into The Future Of Chemistry

 Y. Shao, L. Fusti-Molnar, Y. Jung, J. Kussmann, C. Ochsenfeld,
 S. T. Brown, A. T. B. Gilbert, L. V. Slipchenko,S. V. Levchenko,
 D. P. O'Neill, R. A. DiStasio Jr., R. C. Lochan, T. Wang,
 G. J. O. Beran, N. A. Besley, J. M. Herbert, C. Y. Lin,
 T. Van Voorhis, S. H. Chien, A. Sodt, R. P. Steele, 
 V. A. Rassolov, P. E. Maslen, P. P. Korambath, R. D. Adamson,
 B. Austin, J. Baker, E. F. C. Byrd, H. Dachsel, R. J. Doerksen,
 A. Dreuw, B. D. Dunietz, A. D. Dutoi, T. R. Furlani,
 S. R. Gwaltney, A. Heyden, S. Hirata, C.-P. Hsu, G. Kedziora,
 R. Z. Khaliullin, P. Klunzinger, A. M. Lee, M. S. Lee, W. Liang,
 I. Lotan, N. Nair, B. Peters, E. I. Proynov, P. A. Pieniazek, 
 Y. M. Rhee, J. Ritchie, E. Rosta, C. D. Sherrill, 
 A. C. Simmonett, J. E. Subotnik, H. L. Woodcock III,
 W. Zhang, A. T. Bell, A. K. Chakraborty, D. M. Chipman,
 F. J. Keil, A. Warshel, W. J. Hehre, H. F. Schaefer III,
 J. Kong, A. I. Krylov, P. M. W. Gill, M. Head-Gordon,
 Q-Chem, Version 3.1, Q-Chem, Inc., Pittsburgh, PA (2007).

 Additional authors for Version 3.1: 
 Z. Gan, Y. Zhao, N. E. Schultz, D. Truhlar, E. Epifanovsky and M. Oana.

 Additional authors for Version 3.2: 
 R. Baer, B. R. Brooks, D. Casanova, J.-D. Chai, C.-L. Cheng, 
 C. Cramer, D. Crittenden, A. Ghysels, G. Hawkins, E. G. Hohenstein, 
 C. Kelley, W. Kurlancheek, D. Liotard, E. Livshits, P. Manohar, 
 A. Marenich, D. Neuhauser, R. Olson, M. A. Rohrdanz, K. S. Thanthiriwatte, 
 A. J. W. Thom, V. Vanovschi, C. F. Williams, Q. Wu and Z.-Q. You. 


 Intel X86 Linux Version

 Q-chem begins on Tue Apr 12 20:55:44 2011  

 Parallel job on  1  processors
Processing $rem in /usr/local/qchem/config/preferences.

theFileMan(): MAXOPENFILES=974 MAX_SUB_FILE_NUM=16
Maximum size of a physical file is 2.0 GB, maximum size of a tmp-file is 32.0 GB


--------------------------------------------------------------
User input:
--------------------------------------------------------------

$molecule
0,2
N
O,1,r

r=1.15869834

$end

$comment
neutral
$end

$xc_functional
   X HF 1.0
   X BNL 1.0
   C LYP 1.0
$end

$rem
SYMMETRY_DECOMPOSITION	0
exchange 		general
BASIS                   g3large
omega			300
separate_jk		true
mem_static              760
max_scf_cycles          200
scf_final_print         1
sym_ignore              true
$end

--------------------------------------------------------------
 Writing REM_CC_EA            2
 ----------------------------------------------------
       Standard Nuclear Orientation (Angstroms)
    I     Atom         X            Y            Z
 ----------------------------------------------------
    1      N       0.000000     0.000000     0.000000
    2      O       0.000000     0.000000     1.158698
 ----------------------------------------------------
 Nuclear Repulsion Energy =    25.5751844823 hartrees
 There are        8 alpha and        7 beta electrons
 Requested basis set is G3large
 There are 20 shells and 84 basis functions

Total QAlloc Memory Limit   2000 MB
Mega-Array Size       743 MB
MEM_STATIC part       760 MB

                       Distance Matrix (Angstroms)
             N (  1)
   O (  2)  1.158698
 
 A cutoff of  1.0D-08 yielded    206 shell pairs
 There are   3662 function pairs (  4809 Cartesian)
Evaluating contribution to one-electron hamiltonian from nuclear
 Smallest overlap matrix eigenvalue = 2.14E-03
 Multipole matrices computed through 2nd order

  Scale SEOQF with 1.000000e-01/1.000000e-01/1.000000e-01

 Standard Electronic Orientation quadrupole field applied
 Nucleus-field energy     =    -0.0000000012 hartrees
 Guess from superposition of atomic densities
 Warning:  Energy on first SCF cycle will be non-variational
 An unrestricted hybrid HF-DFT SCF calculation will be
 performed using Pulay DIIS extrapolation
 Exchange:     1.0000 Hartree-Fock + 1.0000 BNL
 Correlation:  1.0000 LYP
 Using SG-1 standard quadrature grid
 SCF converges when DIIS error is below 1.0E-05
 ---------------------------------------
  Cycle       Energy         DIIS Error
 ---------------------------------------
    1    -128.7365140505      5.00E-02
    2    -128.6193459215      5.06E-03
    3    -128.6239933145      5.00E-03
    4    -128.6362074625      2.17E-03
    5    -128.6390221948      2.22E-04
    6    -128.6390812020      7.33E-05
    7    -128.6390951354      1.44E-05
    8    -128.6390976280      3.40E-06 Convergence criterion met
 ---------------------------------------
 One-Electron    Energy =  -227.2494162886
 Total Coulomb   Energy =    87.0118149779
 Alpha Exchange  Energy =    -1.2752981590
 Beta  Exchange  Energy =    -1.1115082981
 DFT   Exchange  Energy =   -11.0628598982
 DFT Correlation Energy =    -0.5270144431
 Nuclear Repu.   Energy =    25.5751844811
 Nuclear Attr.   Energy =  -355.4656256481
 Kinetic         Energy =   128.2162093595
 <S^2> = 0.7518
 SCF time:  CPU 8.64 s  wall 12.66 s
 Final Alpha MO Eigenvalues
            1           2           3           4           5           6
    1 -18.8861070 -14.1433348  -1.3168072  -0.7736391  -0.6301790  -0.6218142
            7           8           9          10          11          12
    1  -0.5835540  -0.3116976  -0.0373432   0.0925871   0.1387352   0.1450886
           13
    1   0.1488133
 Final Beta MO Eigenvalues
            1           2           3           4           5           6
    1 -18.8753315 -14.1268463  -1.2974751  -0.7413684  -0.6085441  -0.5743273
            7           8           9          10          11          12
    1  -0.5580058  -0.0194754   0.0168565   0.0927202   0.1391486   0.1458514
 Analysis of SCF Wavefunction
 
 --------------------------------------------------------------
                    Orbital Energies (a.u.)
 --------------------------------------------------------------
 
 Alpha MOs
 -- Occupied --
-18.886 -14.143  -1.317  -0.774  -0.630  -0.622  -0.584  -0.312
 -- Virtual --
 -0.037   0.093   0.139   0.145   0.149   0.225   0.252   0.254
  0.378   0.462   0.780   0.789   0.793   0.983   0.983   0.987
  1.045   1.062   1.067   1.180   1.180   1.504   1.591   1.592
  1.871   2.113   2.119   2.434   3.534   3.534   3.568   3.568
  3.638   3.640   3.715   3.945   3.950   4.558   4.614   4.617
  4.678   4.679   4.682   4.997   5.000   5.006   5.007   5.402
  5.468   5.469   6.640   6.645   6.670   6.671   7.085   7.090
  7.176   7.615  35.776  37.256  37.260  37.895  40.227  40.378
 40.468  40.468  40.552  43.428  43.516  43.621  43.621  43.745
 45.609  45.612  46.369  50.161
 
 Beta MOs
 -- Occupied --
-18.875 -14.127  -1.297  -0.741  -0.609  -0.574  -0.558
 -- Virtual --
 -0.019   0.017   0.093   0.139   0.146   0.153   0.225   0.253
  0.258   0.380   0.480   0.792   0.799   0.823   0.992   1.006
  1.007   1.065   1.067   1.085   1.188   1.214   1.514   1.613
  1.613   1.887   2.119   2.142   2.448   3.572   3.573   3.592
  3.594   3.662   3.702   3.739   3.955   3.982   4.580   4.630
  4.662   4.698   4.738   4.743   5.008   5.027   5.032   5.046
  5.417   5.488   5.491   6.651   6.679   6.706   6.706   7.096
  7.123   7.192   7.633  35.799  37.268  37.290  37.906  40.265
 40.415  40.482  40.505  40.573  43.457  43.543  43.630  43.649
 43.762  45.616  45.635  46.377  50.173
 --------------------------------------------------------------
 
          Ground-State Mulliken Net Atomic Charges

     Atom                 Charge (a.u.)    Spin (a.u.)
  --------------------------------------------------------
      1 N                    -0.101785       0.702938
      2 O                     0.101785       0.297062
  --------------------------------------------------------
  Sum of atomic charges =     0.000000
  Sum of spin   charges =     1.000000

 -----------------------------------------------------------------
                    Cartesian Multipole Moments
 -----------------------------------------------------------------
    Charge (ESU x 10^10)
                 0.0000
    Dipole Moment (Debye)
         X      -0.0001      Y       0.0000      Z       0.1827
       Tot       0.1827
    Quadrupole Moments (Debye-Ang)
        XX     -10.4147     XY      -0.5921     YY     -10.7291
        XZ       0.0002     YZ       0.0002     ZZ     -11.5241
    Octapole Moments (Debye-Ang^2)
       XXX      -0.0001    XXY       0.0000    XYY       0.0000
       YYY       0.0000    XXZ      -5.6669    XYZ      -0.1350
       YYZ      -5.7385    XZZ       0.0002    YZZ       0.0003
       ZZZ     -18.6178
    Hexadecapole Moments (Debye-Ang^3)
      XXXX      -8.9990   XXXY      -0.5357   XXYY      -3.0943
      XYYY      -0.5356   YYYY      -9.5677   XXXZ       0.0002
      XXYZ       0.0001   XYYZ       0.0001   YYYZ       0.0003
      XXZZ     -10.0411   XYZZ      -0.5615   YYZZ     -10.3391
      XZZZ       0.0005   YZZZ       0.0007   ZZZZ     -52.7353
 -----------------------------------------------------------------
 Total job time:  13.99s(wall), 8.74s(cpu) 
 Tue Apr 12 20:55:58 2011

        *************************************************************
        *                                                           *
        *  Thank you very much for using Q-Chem.  Have a nice day.  *
        *                                                           *
        *************************************************************


0 sent ACK to 0 
now end server 0 ... 
 
**********************************************************************
Job 3 of 3 
**********************************************************************
 
Process 0 of 1 is on cl247.stfx.acenet.ca - thread support 1
initial socket setup ...start
initial socket setup ...done 
now start server 0 ... 

cmd = /usr/bin/ssh clhead /usr/local/qchem/bin/get_hostid 1192065428 > /globalscratch/itamblyn/bnl/g297_b3lyp_neut_g03Large_worked/g2g71034/omega300/qchem12475/lic.dat
                  Welcome to Q-Chem
     A Quantum Leap Into The Future Of Chemistry

 Y. Shao, L. Fusti-Molnar, Y. Jung, J. Kussmann, C. Ochsenfeld,
 S. T. Brown, A. T. B. Gilbert, L. V. Slipchenko,S. V. Levchenko,
 D. P. O'Neill, R. A. DiStasio Jr., R. C. Lochan, T. Wang,
 G. J. O. Beran, N. A. Besley, J. M. Herbert, C. Y. Lin,
 T. Van Voorhis, S. H. Chien, A. Sodt, R. P. Steele, 
 V. A. Rassolov, P. E. Maslen, P. P. Korambath, R. D. Adamson,
 B. Austin, J. Baker, E. F. C. Byrd, H. Dachsel, R. J. Doerksen,
 A. Dreuw, B. D. Dunietz, A. D. Dutoi, T. R. Furlani,
 S. R. Gwaltney, A. Heyden, S. Hirata, C.-P. Hsu, G. Kedziora,
 R. Z. Khaliullin, P. Klunzinger, A. M. Lee, M. S. Lee, W. Liang,
 I. Lotan, N. Nair, B. Peters, E. I. Proynov, P. A. Pieniazek, 
 Y. M. Rhee, J. Ritchie, E. Rosta, C. D. Sherrill, 
 A. C. Simmonett, J. E. Subotnik, H. L. Woodcock III,
 W. Zhang, A. T. Bell, A. K. Chakraborty, D. M. Chipman,
 F. J. Keil, A. Warshel, W. J. Hehre, H. F. Schaefer III,
 J. Kong, A. I. Krylov, P. M. W. Gill, M. Head-Gordon,
 Q-Chem, Version 3.1, Q-Chem, Inc., Pittsburgh, PA (2007).

 Additional authors for Version 3.1: 
 Z. Gan, Y. Zhao, N. E. Schultz, D. Truhlar, E. Epifanovsky and M. Oana.

 Additional authors for Version 3.2: 
 R. Baer, B. R. Brooks, D. Casanova, J.-D. Chai, C.-L. Cheng, 
 C. Cramer, D. Crittenden, A. Ghysels, G. Hawkins, E. G. Hohenstein, 
 C. Kelley, W. Kurlancheek, D. Liotard, E. Livshits, P. Manohar, 
 A. Marenich, D. Neuhauser, R. Olson, M. A. Rohrdanz, K. S. Thanthiriwatte, 
 A. J. W. Thom, V. Vanovschi, C. F. Williams, Q. Wu and Z.-Q. You. 


 Intel X86 Linux Version

 Q-chem begins on Tue Apr 12 20:56:01 2011  

 Parallel job on  1  processors
Processing $rem in /usr/local/qchem/config/preferences.

theFileMan(): MAXOPENFILES=974 MAX_SUB_FILE_NUM=16
Maximum size of a physical file is 2.0 GB, maximum size of a tmp-file is 32.0 GB


--------------------------------------------------------------
User input:
--------------------------------------------------------------

$molecule
1,1
N
O,1,r

r=1.15869834

$end

$comment
positive
$end

$xc_functional
   X HF 1.0
   X BNL 1.0
   C LYP 1.0
$end

$rem
SYMMETRY_DECOMPOSITION	0
exchange 		general
BASIS                   g3large
omega			300
separate_jk		true
mem_static              760
max_scf_cycles          200
scf_final_print         1
sym_ignore              true
$end

--------------------------------------------------------------
 Writing REM_CC_EA            2
 ----------------------------------------------------
       Standard Nuclear Orientation (Angstroms)
    I     Atom         X            Y            Z
 ----------------------------------------------------
    1      N       0.000000     0.000000     0.000000
    2      O       0.000000     0.000000     1.158698
 ----------------------------------------------------
 Nuclear Repulsion Energy =    25.5751844823 hartrees
 There are        7 alpha and        7 beta electrons
 Requested basis set is G3large
 There are 20 shells and 84 basis functions

Total QAlloc Memory Limit   2000 MB
Mega-Array Size       743 MB
MEM_STATIC part       760 MB

                       Distance Matrix (Angstroms)
             N (  1)
   O (  2)  1.158698
 
 A cutoff of  1.0D-08 yielded    206 shell pairs
 There are   3662 function pairs (  4809 Cartesian)
Evaluating contribution to one-electron hamiltonian from nuclear
 Smallest overlap matrix eigenvalue = 2.14E-03
 Multipole matrices computed through 2nd order

  Scale SEOQF with 1.000000e-01/1.000000e-01/1.000000e-01

 Standard Electronic Orientation quadrupole field applied
 Nucleus-field energy     =    -0.0000000012 hartrees
 Guess from superposition of atomic densities
 Warning:  Energy on first SCF cycle will be non-variational
 A restricted hybrid HF-DFT SCF calculation will be
 performed using Pulay DIIS extrapolation
 Exchange:     1.0000 Hartree-Fock + 1.0000 BNL
 Correlation:  1.0000 LYP
 Using SG-1 standard quadrature grid
 SCF converges when DIIS error is below 1.0E-05
 Warning!  Inaccurate integrated density:
   Number of electrons =    14
   Numerical integral  =    14.999983069313
   Relative error      =     7.1427362094 %
 ---------------------------------------
  Cycle       Energy         DIIS Error
 ---------------------------------------
    1    -128.7365140505      5.00E-02
    2    -128.1698556905      1.07E-02
    3    -128.1941544225      1.13E-02
    4    -128.2376886338      7.21E-03
    5    -128.2648221707      4.00E-04
    6    -128.2649589979      6.20E-05
    7    -128.2649671148      1.77E-05
    8    -128.2649679185      3.80E-06 Convergence criterion met
 ---------------------------------------
 One-Electron    Energy =  -220.6883110966
 Total Coulomb   Energy =    80.3743812821
 Alpha Exchange  Energy =    -1.1174532725
 Beta  Exchange  Energy =    -1.1174532725
 DFT   Exchange  Energy =   -10.7956607860
 DFT Correlation Energy =    -0.4956552542
 Nuclear Repu.   Energy =    25.5751844811
 Nuclear Attr.   Energy =  -348.1490623242
 Kinetic         Energy =   127.4607512276
 SCF time:  CPU 7.40 s  wall 12.48 s
 Final Alpha MO Eigenvalues
            1           2           3           4           5           6
    1 -19.3692522 -14.6491931  -1.7560948  -1.1782991  -1.0360572  -1.0360565
            7           8           9          10          11          12
    1  -0.9916479  -0.4414372  -0.4414371  -0.1327390  -0.0786597  -0.0742555
 Analysis of SCF Wavefunction
 
 --------------------------------------------------------------
                    Orbital Energies (a.u.)
 --------------------------------------------------------------
 
 Alpha MOs
 -- Occupied --
-19.369 -14.649  -1.756  -1.178  -1.036  -1.036  -0.992
 -- Virtual --
 -0.441  -0.441  -0.133  -0.079  -0.074  -0.074   0.003   0.034
  0.034   0.076   0.138   0.460   0.470   0.470   0.610   0.610
  0.674   0.708   0.738   0.738   0.803   0.803   1.162   1.215
  1.216   1.504   1.744   1.744   2.057   3.131   3.131   3.160
  3.160   3.218   3.218   3.304   3.527   3.527   4.121   4.198
  4.198   4.248   4.249   4.275   4.581   4.581   4.595   4.595
  4.986   5.054   5.054   6.210   6.210   6.239   6.239   6.668
  6.668   6.746   7.184  35.281  36.756  36.756  37.395  39.731
 39.882  39.971  39.971  40.055  42.956  43.043  43.147  43.147
 43.272  45.131  45.131  45.891  49.684
 --------------------------------------------------------------
 
          Ground-State Mulliken Net Atomic Charges

     Atom                 Charge (a.u.)
  ----------------------------------------
      1 N                     0.444971
      2 O                     0.555029
  ----------------------------------------
  Sum of atomic charges =     1.000000

 -----------------------------------------------------------------
                    Cartesian Multipole Moments
 -----------------------------------------------------------------
    Charge (ESU x 10^10)
                 4.8032
    Dipole Moment (Debye)
         X      -0.0001      Y       0.0000      Z       2.4153
       Tot       2.4153
    Quadrupole Moments (Debye-Ang)
        XX      -8.1861     XY       0.0000     YY      -8.1861
        XZ       0.0000     YZ       0.0000     ZZ      -5.9170
    Octapole Moments (Debye-Ang^2)
       XXX       0.0000    XXY       0.0000    XYY       0.0000
       YYY       0.0000    XXZ      -4.7973    XYZ       0.0000
       YYZ      -4.7973    XZZ       0.0000    YZZ       0.0000
       ZZZ     -11.3338
    Hexadecapole Moments (Debye-Ang^3)
      XXXX      -5.4535   XXXY       0.0000   XXYY      -1.8178
      XYYY       0.0000   YYYY      -5.4535   XXXZ       0.0000
      XXYZ       0.0000   XYYZ       0.0000   YYYZ       0.0000
      XXZZ      -7.3912   XYZZ       0.0000   YYZZ      -7.3912
      XZZZ       0.0000   YZZZ       0.0000   ZZZZ     -35.9099
 -----------------------------------------------------------------
 Total job time:  13.38s(wall), 7.50s(cpu) 
 Tue Apr 12 20:56:15 2011

        *************************************************************
        *                                                           *
        *  Thank you very much for using Q-Chem.  Have a nice day.  *
        *                                                           *
        *************************************************************


0 sent ACK to 0 
now end server 0 ... 
