Process 0 of 1 is on cl066.stfx.acenet.ca - thread support 1
initial socket setup ...start
initial socket setup ...done 
now start server 0 ... 

cmd = /usr/bin/ssh clhead /usr/local/qchem/bin/get_hostid 195412841 > /scratch/tmp/6029084.1.short.q/qchem28759/lic.dat
                  Welcome to Q-Chem
     A Quantum Leap Into The Future Of Chemistry

 Y. Shao, L. Fusti-Molnar, Y. Jung, J. Kussmann, C. Ochsenfeld,
 S. T. Brown, A. T. B. Gilbert, L. V. Slipchenko,S. V. Levchenko,
 D. P. O'Neill, R. A. DiStasio Jr., R. C. Lochan, T. Wang,
 G. J. O. Beran, N. A. Besley, J. M. Herbert, C. Y. Lin,
 T. Van Voorhis, S. H. Chien, A. Sodt, R. P. Steele, 
 V. A. Rassolov, P. E. Maslen, P. P. Korambath, R. D. Adamson,
 B. Austin, J. Baker, E. F. C. Byrd, H. Dachsel, R. J. Doerksen,
 A. Dreuw, B. D. Dunietz, A. D. Dutoi, T. R. Furlani,
 S. R. Gwaltney, A. Heyden, S. Hirata, C.-P. Hsu, G. Kedziora,
 R. Z. Khaliullin, P. Klunzinger, A. M. Lee, M. S. Lee, W. Liang,
 I. Lotan, N. Nair, B. Peters, E. I. Proynov, P. A. Pieniazek, 
 Y. M. Rhee, J. Ritchie, E. Rosta, C. D. Sherrill, 
 A. C. Simmonett, J. E. Subotnik, H. L. Woodcock III,
 W. Zhang, A. T. Bell, A. K. Chakraborty, D. M. Chipman,
 F. J. Keil, A. Warshel, W. J. Hehre, H. F. Schaefer III,
 J. Kong, A. I. Krylov, P. M. W. Gill, M. Head-Gordon,
 Q-Chem, Version 3.1, Q-Chem, Inc., Pittsburgh, PA (2007).

 Additional authors for Version 3.1: 
 Z. Gan, Y. Zhao, N. E. Schultz, D. Truhlar, E. Epifanovsky and M. Oana.

 Additional authors for Version 3.2: 
 R. Baer, B. R. Brooks, D. Casanova, J.-D. Chai, C.-L. Cheng, 
 C. Cramer, D. Crittenden, A. Ghysels, G. Hawkins, E. G. Hohenstein, 
 C. Kelley, W. Kurlancheek, D. Liotard, E. Livshits, P. Manohar, 
 A. Marenich, D. Neuhauser, R. Olson, M. A. Rohrdanz, K. S. Thanthiriwatte, 
 A. J. W. Thom, V. Vanovschi, C. F. Williams, Q. Wu and Z.-Q. You. 


 Intel X86 Linux Version

 Q-chem begins on Tue Jun  4 16:38:50 2013  

 Parallel job on  1  processors
Processing $rem in /usr/local/qchem/config/preferences.

theFileMan(): MAXOPENFILES=974 MAX_SUB_FILE_NUM=16
Maximum size of a physical file is 2.0 GB, maximum size of a tmp-file is 32.0 GB


--------------------------------------------------------------
User input:
--------------------------------------------------------------

$molecule
-1,2
C          0.02060        0.00000        0.56117
C          1.22722        0.78118        1.00597
C          1.22722       -0.78118        1.00597
C         -1.49528       -0.00000        0.33741
C         -0.97090        0.00000        1.73548
H          1.18314        1.24243        2.01799
H          1.72557        1.25567        0.13555
H          1.18314       -1.24243        2.01799
H          1.72557       -1.25567        0.13555
H         -1.68126       -0.96114       -0.18609
H         -1.68126        0.96114       -0.18609
H         -1.23188       -0.97109        2.20954
H         -1.23188        0.97109        2.20954
$end

$comment
negative
$end

$xc_functional
C PBE   1.00
X wPBE  1.00
$end

$rem
SYMMETRY_DECOMPOSITION	0
exchange 		general
LRC_DFT                 true
BASIS                   g3large
omega			320
mem_static              760
max_scf_cycles          200
scf_final_print         1
sym_ignore              true
$end

--------------------------------------------------------------
 Writing REM_CC_EA           13
 ----------------------------------------------------
       Standard Nuclear Orientation (Angstroms)
    I     Atom         X            Y            Z
 ----------------------------------------------------
    1      C       0.020600     0.000000     0.561170
    2      C       1.227220     0.781180     1.005970
    3      C       1.227220    -0.781180     1.005970
    4      C      -1.495280     0.000000     0.337410
    5      C      -0.970900     0.000000     1.735480
    6      H       1.183140     1.242430     2.017990
    7      H       1.725570     1.255670     0.135550
    8      H       1.183140    -1.242430     2.017990
    9      H       1.725570    -1.255670     0.135550
   10      H      -1.681260    -0.961140    -0.186090
   11      H      -1.681260     0.961140    -0.186090
   12      H      -1.231880    -0.971090     2.209540
   13      H      -1.231880     0.971090     2.209540
 ----------------------------------------------------
 Nuclear Repulsion Energy =   170.8246461472 hartrees
 There are       20 alpha and       19 beta electrons
 Requested basis set is G3large
 There are 98 shells and 290 basis functions

Total QAlloc Memory Limit   2000 MB
Mega-Array Size       743 MB
MEM_STATIC part       760 MB

                       Distance Matrix (Angstroms)
             C (  1)   C (  2)   C (  3)   C (  4)   C (  5)   H (  6)
   C (  2)  1.504666
   C (  3)  1.504666  1.562360
   C (  4)  1.532306  2.910193  2.910193
   C (  5)  1.536905  2.444209  2.444209  1.493176
   H (  6)  2.239968  1.113049  2.262990  3.397339  2.502665
   H (  7)  2.159811  1.109560  2.270406  3.462850  3.377489  1.959078
   H (  8)  2.239968  2.262990  1.113049  3.397339  2.502665  2.484860
   H (  9)  2.159811  2.270406  1.109560  3.462850  3.377489  3.174636
   H ( 10)  2.092490  3.593876  3.148436  1.110149  2.262926  4.233022
   H ( 11)  2.092490  3.148436  3.593876  1.110149  2.262926  3.625173
   H ( 12)  2.286667  3.250570  2.744416  2.125386  1.111692  3.281567
   H ( 13)  2.286667  2.744416  3.250570  2.125386  1.111692  2.437753
             H (  7)   H (  8)   H (  9)   H ( 10)   H ( 11)   H ( 12)
   H (  8)  3.174636
   H (  9)  2.511340  1.959078
   H ( 10)  4.077277  3.625173  3.434631
   H ( 11)  3.434631  4.233022  4.077277  1.922280
   H ( 12)  4.243395  2.437753  3.623387  2.437434  3.110386
   H ( 13)  3.623387  3.281567  4.243395  3.110386  2.437434  1.942180

 
 A cutoff of  1.0D-08 yielded   4475 shell pairs
 There are  39251 function pairs ( 47983 Cartesian)
Evaluating contribution to one-electron hamiltonian from nuclear
 Smallest overlap matrix eigenvalue = 1.37E-05

 Q-Chem warning in module mkSTV.C, line 194:

 Overlap eigenvalue is smaller than square root of threshold

 Multipole matrices computed through 2nd order

  Scale SEOQF with 1.000000e-01/1.000000e-01/1.000000e-01

 Standard Electronic Orientation quadrupole field applied
 Nucleus-field energy     =    -0.0000000023 hartrees
 Guess from superposition of atomic densities
 Warning:  Energy on first SCF cycle will be non-variational
 Long-range K will be added via erf
 Coulomb attenuation parameter = 0.32 bohr**(-1)
 An unrestricted Kohn-Sham SCF calculation will be
 performed using Pulay DIIS extrapolation
 Exchange:  wPBE + LR-HF      Correlation:  PBE
 Using SG-1 standard quadrature grid
 SCF converges when DIIS error is below 1.0E-05
 Requested basis set is G3large
 There are 98 shells and 290 basis functions
 A cutoff of  1.0D-08 yielded   4475 shell pairs
 There are  39251 function pairs ( 47983 Cartesian)
 Warning!  Inaccurate integrated density:
   Number of electrons =    39
   Numerical integral  =    37.999315947614
   Relative error      =    -2.5658565446 %
 ---------------------------------------
  Cycle       Energy         DIIS Error
 ---------------------------------------
    1    -196.8373936828      2.77E-02
    2    -194.8243678485      3.61E-03
    3    -194.8532419497      4.31E-03
    4    -195.0547942939      5.58E-04
    5    -195.0655489829      3.46E-04
    6    -195.0704134072      1.21E-04
    7    -195.0727189390      5.23E-05
    8    -195.0736382019      3.21E-05
    9    -195.0740085957      2.25E-05
   10    -195.0742914937      1.60E-05
   11    -195.0745118628      1.27E-05
   12    -195.0746802962      1.01E-05
   13    -195.0747991356      7.96E-06 Convergence criterion met
 ---------------------------------------
 One-Electron    Energy =  -604.0965042081
 Total Coulomb   Energy =   268.1656627757
 Alpha Exchange  Energy =    -3.1713690436
 Beta  Exchange  Energy =    -3.1145138690
 DFT   Exchange  Energy =   -22.4317520873
 DFT Correlation Energy =    -1.2509688483
 Nuclear Repu.   Energy =   170.8246461450
 Nuclear Attr.   Energy =  -798.0114793686
 Kinetic         Energy =   193.9149751606
 <S^2> = 0.7501
 SCF time:  CPU 621.79 s  wall 624.21 s
 Final Alpha MO Eigenvalues
            1           2           3           4           5           6
    1  -9.9629940  -9.9494417  -9.9452555  -9.9428744  -9.9372144  -0.8721359
            7           8           9          10          11          12
    1  -0.7731748  -0.5871223  -0.5822610  -0.5131667  -0.4648326  -0.4559966
           13          14          15          16          17          18
    1  -0.4304624  -0.3597594  -0.3385948  -0.3303678  -0.2540977  -0.2515657
           19          20          21          22          23          24
    1  -0.2262811   0.0326866   0.1273500   0.1281192   0.1309265   0.1572665
           25
    1   0.1599031
 Final Beta MO Eigenvalues
            1           2           3           4           5           6
    1  -9.9628636  -9.9494505  -9.9450264  -9.9425657  -9.9369238  -0.8719994
            7           8           9          10          11          12
    1  -0.7729223  -0.5863196  -0.5813147  -0.5122577  -0.4644919  -0.4554278
           13          14          15          16          17          18
    1  -0.4298327  -0.3594235  -0.3379786  -0.3300604  -0.2533657  -0.2513304
           19          20          21          22          23          24
    1  -0.2259533   0.1253825   0.1381399   0.1417120   0.1424511   0.1583540
 Analysis of SCF Wavefunction
 
 --------------------------------------------------------------
                    Orbital Energies (a.u.)
 --------------------------------------------------------------
 
 Alpha MOs
 -- Occupied --
 -9.963  -9.949  -9.945  -9.943  -9.937  -0.872  -0.773  -0.587
 -0.582  -0.513  -0.465  -0.456  -0.430  -0.360  -0.339  -0.330
 -0.254  -0.252  -0.226   0.033
 -- Virtual --
  0.127   0.128   0.131   0.157   0.160   0.161   0.183   0.188
  0.212   0.235   0.248   0.248   0.254   0.268   0.270   0.273
  0.284   0.286   0.298   0.307   0.307   0.318   0.320   0.321
  0.339   0.342   0.351   0.357   0.362   0.397   0.402   0.416
  0.440   0.446   0.463   0.468   0.503   0.516   0.525   0.541
  0.576   0.613   0.657   0.664   0.672   0.673   0.699   0.710
  0.733   0.747   0.755   0.764   0.783   0.792   0.796   0.797
  0.814   0.817   0.823   0.834   0.836   0.841   0.883   0.890
  0.918   0.966   0.991   1.003   1.018   1.020   1.049   1.052
  1.106   1.116   1.138   1.150   1.207   1.245   1.250   1.274
  1.289   1.309   1.309   1.335   1.355   1.383   1.399   1.401
  1.454   1.459   1.472   1.516   1.532   1.538   1.547   1.569
  1.580   1.580   1.589   1.608   1.638   1.649   1.665   1.667
  1.687   1.693   1.724   1.729   1.758   1.765   1.767   1.779
  1.847   1.901   1.909   1.919   1.988   2.062   2.669   2.717
  2.763   2.764   2.825   2.832   2.850   2.862   2.883   2.910
  2.948   2.954   2.991   3.004   3.014   3.058   3.071   3.072
  3.093   3.138   3.140   3.162   3.183   3.185   3.206   3.237
  3.288   3.292   3.298   3.312   3.316   3.390   3.409   3.454
  3.458   3.479   3.523   3.524   3.537   3.574   3.607   3.620
  3.630   3.654   3.662   3.709   3.711   3.724   3.731   3.822
  3.834   3.862   3.875   3.911   3.918   3.950   3.968   3.980
  3.995   4.066   4.073   4.128   4.152   4.154   4.214   4.222
  4.238   4.290   4.343   4.348   4.384   4.422   4.427   4.450
  4.456   4.469   4.481   4.505   4.533   4.541   4.564   4.595
  4.647   4.656   4.683   4.698   4.728   4.773   4.804   4.836
  5.057   5.103   5.115   5.128   5.231   5.259   5.320   5.555
  5.575   5.683   5.699   5.715   5.735   5.743   5.805   5.877
  5.958  24.183  24.270  24.315  24.352  24.438  27.565  27.652
 27.652  27.698  27.986  28.131  28.193  28.199  28.231  28.274
 28.309  28.387  28.589  28.685  28.998  40.984  41.001  41.018
 41.048  41.057  41.061  41.082  41.092  41.119  41.127  41.245
 41.249  41.253  41.266  41.278  41.286  41.301  41.320  41.323
 41.341  41.350  41.352  41.378  41.411  41.443
 
 Beta MOs
 -- Occupied --
 -9.963  -9.949  -9.945  -9.943  -9.937  -0.872  -0.773  -0.586
 -0.581  -0.512  -0.464  -0.455  -0.430  -0.359  -0.338  -0.330
 -0.253  -0.251  -0.226
 -- Virtual --
  0.125   0.138   0.142   0.142   0.158   0.164   0.165   0.184
  0.186   0.210   0.232   0.242   0.243   0.249   0.261   0.264
  0.271   0.281   0.283   0.297   0.303   0.306   0.315   0.316
  0.317   0.332   0.337   0.350   0.355   0.360   0.395   0.401
  0.413   0.438   0.445   0.461   0.466   0.499   0.513   0.524
  0.538   0.573   0.611   0.656   0.662   0.670   0.671   0.698
  0.708   0.730   0.746   0.753   0.762   0.782   0.791   0.794
  0.796   0.812   0.815   0.822   0.832   0.835   0.840   0.880
  0.890   0.918   0.965   0.992   1.003   1.018   1.020   1.049
  1.052   1.107   1.116   1.138   1.150   1.207   1.245   1.250
  1.275   1.288   1.309   1.309   1.335   1.355   1.383   1.398
  1.401   1.455   1.459   1.471   1.516   1.533   1.538   1.547
  1.569   1.579   1.580   1.589   1.608   1.638   1.649   1.666
  1.667   1.687   1.693   1.725   1.730   1.758   1.765   1.767
  1.779   1.847   1.901   1.909   1.919   1.988   2.062   2.669
  2.718   2.763   2.764   2.825   2.832   2.850   2.863   2.883
  2.911   2.948   2.954   2.991   3.004   3.014   3.058   3.071
  3.072   3.093   3.138   3.141   3.162   3.183   3.186   3.206
  3.237   3.289   3.292   3.299   3.312   3.317   3.390   3.409
  3.454   3.458   3.479   3.524   3.525   3.538   3.575   3.607
  3.621   3.631   3.655   3.662   3.709   3.711   3.725   3.731
  3.822   3.834   3.862   3.875   3.912   3.918   3.950   3.968
  3.980   3.995   4.066   4.073   4.128   4.152   4.155   4.214
  4.222   4.239   4.291   4.343   4.348   4.384   4.422   4.427
  4.450   4.456   4.469   4.481   4.506   4.533   4.542   4.564
  4.596   4.647   4.656   4.683   4.698   4.728   4.773   4.804
  4.836   5.058   5.103   5.115   5.128   5.231   5.260   5.320
  5.556   5.575   5.684   5.699   5.715   5.735   5.743   5.806
  5.878   5.958  24.184  24.270  24.315  24.352  24.438  27.566
 27.652  27.652  27.698  27.986  28.131  28.194  28.199  28.231
 28.274  28.309  28.387  28.590  28.686  28.998  40.985  41.001
 41.018  41.048  41.057  41.061  41.083  41.092  41.119  41.127
 41.245  41.249  41.253  41.266  41.278  41.286  41.301  41.320
 41.324  41.341  41.350  41.352  41.379  41.411  41.443
 --------------------------------------------------------------
 
          Ground-State Mulliken Net Atomic Charges

     Atom                 Charge (a.u.)    Spin (a.u.)
  --------------------------------------------------------
      1 C                    -4.264291       4.669295
      2 C                     2.528870      -2.934818
      3 C                     1.805295      -2.202366
      4 C                    -0.328809       0.327786
      5 C                     2.650083      -3.014112
      6 H                    -0.669315       0.775136
      7 H                    -0.628585       0.725532
      8 H                    -0.563050       0.660889
      9 H                    -0.380334       0.468068
     10 H                    -0.110117       0.192114
     11 H                    -0.171388       0.262469
     12 H                    -0.307838       0.403421
     13 H                    -0.560520       0.666586
  --------------------------------------------------------
  Sum of atomic charges =    -1.000000
  Sum of spin   charges =     1.000000

 -----------------------------------------------------------------
                    Cartesian Multipole Moments
 -----------------------------------------------------------------
    Charge (ESU x 10^10)
                -4.8032
    Dipole Moment (Debye)
         X      -2.7130      Y      -1.9688      Z      -8.8407
       Tot       9.4549
    Quadrupole Moments (Debye-Ang)
        XX     -72.9563     XY      -0.3662     YY     -63.1388
        XZ      -2.3162     YZ      -2.9922     ZZ     -77.7624
    Octapole Moments (Debye-Ang^2)
       XXX     -43.4969    XXY     -11.4315    XYY     -12.9487
       YYY     -27.0860    XXZ     -87.6877    XYZ       0.3354
       YYZ     -83.8491    XZZ     -17.2434    YZZ     -15.1549
       ZZZ    -266.7106
    Hexadecapole Moments (Debye-Ang^3)
      XXXX    -988.0202   XXXY      -7.6795   XXYY    -271.7169
      XYYY      -6.1204   YYYY    -568.5324   XXXZ     -31.1317
      XXYZ     -13.4233   XYYZ     -12.2986   YYYZ     -37.4491
      XXZZ    -379.7672   XYZZ      -1.3133   YYZZ    -310.3726
      XZZZ     -48.0742   YZZZ     -49.4992   ZZZZ   -1213.8063
 -----------------------------------------------------------------
 Total job time:  624.69s(wall), 622.24s(cpu) 
 Tue Jun  4 16:49:14 2013

        *************************************************************
        *                                                           *
        *  Thank you very much for using Q-Chem.  Have a nice day.  *
        *                                                           *
        *************************************************************


0 sent ACK to 0 
now end server 0 ... 
 
**********************************************************************
Job 2 of 3 
**********************************************************************
 
Process 0 of 1 is on cl066.stfx.acenet.ca - thread support 1
initial socket setup ...start
initial socket setup ...done 
now start server 0 ... 

cmd = /usr/bin/ssh clhead /usr/local/qchem/bin/get_hostid 1409473967 > /scratch/tmp/6029084.1.short.q/qchem28759/lic.dat
                  Welcome to Q-Chem
     A Quantum Leap Into The Future Of Chemistry

 Y. Shao, L. Fusti-Molnar, Y. Jung, J. Kussmann, C. Ochsenfeld,
 S. T. Brown, A. T. B. Gilbert, L. V. Slipchenko,S. V. Levchenko,
 D. P. O'Neill, R. A. DiStasio Jr., R. C. Lochan, T. Wang,
 G. J. O. Beran, N. A. Besley, J. M. Herbert, C. Y. Lin,
 T. Van Voorhis, S. H. Chien, A. Sodt, R. P. Steele, 
 V. A. Rassolov, P. E. Maslen, P. P. Korambath, R. D. Adamson,
 B. Austin, J. Baker, E. F. C. Byrd, H. Dachsel, R. J. Doerksen,
 A. Dreuw, B. D. Dunietz, A. D. Dutoi, T. R. Furlani,
 S. R. Gwaltney, A. Heyden, S. Hirata, C.-P. Hsu, G. Kedziora,
 R. Z. Khaliullin, P. Klunzinger, A. M. Lee, M. S. Lee, W. Liang,
 I. Lotan, N. Nair, B. Peters, E. I. Proynov, P. A. Pieniazek, 
 Y. M. Rhee, J. Ritchie, E. Rosta, C. D. Sherrill, 
 A. C. Simmonett, J. E. Subotnik, H. L. Woodcock III,
 W. Zhang, A. T. Bell, A. K. Chakraborty, D. M. Chipman,
 F. J. Keil, A. Warshel, W. J. Hehre, H. F. Schaefer III,
 J. Kong, A. I. Krylov, P. M. W. Gill, M. Head-Gordon,
 Q-Chem, Version 3.1, Q-Chem, Inc., Pittsburgh, PA (2007).

 Additional authors for Version 3.1: 
 Z. Gan, Y. Zhao, N. E. Schultz, D. Truhlar, E. Epifanovsky and M. Oana.

 Additional authors for Version 3.2: 
 R. Baer, B. R. Brooks, D. Casanova, J.-D. Chai, C.-L. Cheng, 
 C. Cramer, D. Crittenden, A. Ghysels, G. Hawkins, E. G. Hohenstein, 
 C. Kelley, W. Kurlancheek, D. Liotard, E. Livshits, P. Manohar, 
 A. Marenich, D. Neuhauser, R. Olson, M. A. Rohrdanz, K. S. Thanthiriwatte, 
 A. J. W. Thom, V. Vanovschi, C. F. Williams, Q. Wu and Z.-Q. You. 


 Intel X86 Linux Version

 Q-chem begins on Tue Jun  4 16:49:17 2013  

 Parallel job on  1  processors
Processing $rem in /usr/local/qchem/config/preferences.

theFileMan(): MAXOPENFILES=974 MAX_SUB_FILE_NUM=16
Maximum size of a physical file is 2.0 GB, maximum size of a tmp-file is 32.0 GB


--------------------------------------------------------------
User input:
--------------------------------------------------------------

$molecule
0,1
C          0.02060        0.00000        0.56117
C          1.22722        0.78118        1.00597
C          1.22722       -0.78118        1.00597
C         -1.49528       -0.00000        0.33741
C         -0.97090        0.00000        1.73548
H          1.18314        1.24243        2.01799
H          1.72557        1.25567        0.13555
H          1.18314       -1.24243        2.01799
H          1.72557       -1.25567        0.13555
H         -1.68126       -0.96114       -0.18609
H         -1.68126        0.96114       -0.18609
H         -1.23188       -0.97109        2.20954
H         -1.23188        0.97109        2.20954
$end

$comment
neutral
$end

$xc_functional
C PBE   1.00
X wPBE  1.00
$end


$rem
SYMMETRY_DECOMPOSITION	0
LRC_DFT                 true
exchange 		general
BASIS                   g3large
omega			320
mem_static              760
max_scf_cycles          200
scf_final_print         1
sym_ignore              true
$end

--------------------------------------------------------------
 Writing REM_CC_EA           13
 ----------------------------------------------------
       Standard Nuclear Orientation (Angstroms)
    I     Atom         X            Y            Z
 ----------------------------------------------------
    1      C       0.020600     0.000000     0.561170
    2      C       1.227220     0.781180     1.005970
    3      C       1.227220    -0.781180     1.005970
    4      C      -1.495280     0.000000     0.337410
    5      C      -0.970900     0.000000     1.735480
    6      H       1.183140     1.242430     2.017990
    7      H       1.725570     1.255670     0.135550
    8      H       1.183140    -1.242430     2.017990
    9      H       1.725570    -1.255670     0.135550
   10      H      -1.681260    -0.961140    -0.186090
   11      H      -1.681260     0.961140    -0.186090
   12      H      -1.231880    -0.971090     2.209540
   13      H      -1.231880     0.971090     2.209540
 ----------------------------------------------------
 Nuclear Repulsion Energy =   170.8246461472 hartrees
 There are       19 alpha and       19 beta electrons
 Requested basis set is G3large
 There are 98 shells and 290 basis functions

Total QAlloc Memory Limit   2000 MB
Mega-Array Size       743 MB
MEM_STATIC part       760 MB

                       Distance Matrix (Angstroms)
             C (  1)   C (  2)   C (  3)   C (  4)   C (  5)   H (  6)
   C (  2)  1.504666
   C (  3)  1.504666  1.562360
   C (  4)  1.532306  2.910193  2.910193
   C (  5)  1.536905  2.444209  2.444209  1.493176
   H (  6)  2.239968  1.113049  2.262990  3.397339  2.502665
   H (  7)  2.159811  1.109560  2.270406  3.462850  3.377489  1.959078
   H (  8)  2.239968  2.262990  1.113049  3.397339  2.502665  2.484860
   H (  9)  2.159811  2.270406  1.109560  3.462850  3.377489  3.174636
   H ( 10)  2.092490  3.593876  3.148436  1.110149  2.262926  4.233022
   H ( 11)  2.092490  3.148436  3.593876  1.110149  2.262926  3.625173
   H ( 12)  2.286667  3.250570  2.744416  2.125386  1.111692  3.281567
   H ( 13)  2.286667  2.744416  3.250570  2.125386  1.111692  2.437753
             H (  7)   H (  8)   H (  9)   H ( 10)   H ( 11)   H ( 12)
   H (  8)  3.174636
   H (  9)  2.511340  1.959078
   H ( 10)  4.077277  3.625173  3.434631
   H ( 11)  3.434631  4.233022  4.077277  1.922280
   H ( 12)  4.243395  2.437753  3.623387  2.437434  3.110386
   H ( 13)  3.623387  3.281567  4.243395  3.110386  2.437434  1.942180

 
 A cutoff of  1.0D-08 yielded   4475 shell pairs
 There are  39251 function pairs ( 47983 Cartesian)
Evaluating contribution to one-electron hamiltonian from nuclear
 Smallest overlap matrix eigenvalue = 1.37E-05

 Q-Chem warning in module mkSTV.C, line 194:

 Overlap eigenvalue is smaller than square root of threshold

 Multipole matrices computed through 2nd order

  Scale SEOQF with 1.000000e-01/1.000000e-01/1.000000e-01

 Standard Electronic Orientation quadrupole field applied
 Nucleus-field energy     =    -0.0000000023 hartrees
 Guess from superposition of atomic densities
 Warning:  Energy on first SCF cycle will be non-variational
 Long-range K will be added via erf
 Coulomb attenuation parameter = 0.32 bohr**(-1)
 A restricted Kohn-Sham SCF calculation will be
 performed using Pulay DIIS extrapolation
 Exchange:  wPBE + LR-HF      Correlation:  PBE
 Using SG-1 standard quadrature grid
 SCF converges when DIIS error is below 1.0E-05
 Requested basis set is G3large
 There are 98 shells and 290 basis functions
 A cutoff of  1.0D-08 yielded   4475 shell pairs
 There are  39251 function pairs ( 47983 Cartesian)
 ---------------------------------------
  Cycle       Energy         DIIS Error
 ---------------------------------------
    1    -196.8373936828      2.77E-02
    2    -195.0250756460      2.58E-03
    3    -195.0706711966      2.01E-03
    4    -195.1103304495      2.53E-04
    5    -195.1113062505      1.12E-04
    6    -195.1114669828      3.83E-05
    7    -195.1114888717      1.04E-05
    8    -195.1114877247      4.73E-06 Convergence criterion met
 ---------------------------------------
 One-Electron    Energy =  -599.4882291779
 Total Coulomb   Energy =   263.4513980347
 Alpha Exchange  Energy =    -3.1156223547
 Beta  Exchange  Energy =    -3.1156223547
 DFT   Exchange  Energy =   -22.4239877066
 DFT Correlation Energy =    -1.2440703105
 Nuclear Repu.   Energy =   170.8246461450
 Nuclear Attr.   Energy =  -793.3334030183
 Kinetic         Energy =   193.8451738404
 SCF time:  CPU 278.78 s  wall 280.35 s
 Final Alpha MO Eigenvalues
            1           2           3           4           5           6
    1 -10.0819471 -10.0716734 -10.0689880 -10.0688965 -10.0611110  -0.9944104
            7           8           9          10          11          12
    1  -0.8952574  -0.7077328  -0.7060870  -0.6350919  -0.5854397  -0.5806588
           13          14          15          16          17          18
    1  -0.5515519  -0.4825093  -0.4605249  -0.4533188  -0.3760547  -0.3743895
           19          20          21          22          23          24
    1  -0.3482289   0.0409138   0.0533247   0.0537613   0.0584409   0.0764344
 Analysis of SCF Wavefunction
 
 --------------------------------------------------------------
                    Orbital Energies (a.u.)
 --------------------------------------------------------------
 
 Alpha MOs
 -- Occupied --
-10.082 -10.072 -10.069 -10.069 -10.061  -0.994  -0.895  -0.708
 -0.706  -0.635  -0.585  -0.581  -0.552  -0.483  -0.461  -0.453
 -0.376  -0.374  -0.348
 -- Virtual --
  0.041   0.053   0.054   0.058   0.076   0.077   0.080   0.099
  0.100   0.110   0.137   0.149   0.153   0.157   0.168   0.170
  0.171   0.184   0.184   0.194   0.203   0.206   0.214   0.218
  0.219   0.235   0.236   0.242   0.249   0.251   0.285   0.289
  0.304   0.328   0.330   0.349   0.357   0.390   0.402   0.409
  0.430   0.465   0.497   0.543   0.551   0.554   0.554   0.580
  0.595   0.619   0.632   0.636   0.649   0.667   0.674   0.678
  0.678   0.697   0.699   0.707   0.716   0.719   0.722   0.763
  0.773   0.797   0.847   0.869   0.884   0.898   0.900   0.926
  0.932   0.986   0.992   1.014   1.032   1.087   1.125   1.129
  1.152   1.168   1.188   1.189   1.212   1.233   1.263   1.276
  1.283   1.332   1.341   1.353   1.397   1.413   1.416   1.428
  1.449   1.457   1.460   1.470   1.488   1.517   1.528   1.547
  1.548   1.566   1.574   1.602   1.609   1.636   1.642   1.647
  1.657   1.728   1.780   1.789   1.796   1.866   1.941   2.547
  2.597   2.640   2.643   2.704   2.709   2.728   2.740   2.762
  2.791   2.825   2.832   2.869   2.882   2.892   2.935   2.949
  2.950   2.970   3.015   3.019   3.041   3.060   3.062   3.084
  3.115   3.167   3.170   3.177   3.189   3.195   3.268   3.286
  3.331   3.336   3.355   3.402   3.403   3.414   3.451   3.485
  3.499   3.510   3.531   3.540   3.586   3.588   3.602   3.608
  3.700   3.713   3.740   3.752   3.790   3.797   3.827   3.845
  3.857   3.872   3.943   3.951   4.005   4.030   4.032   4.092
  4.099   4.116   4.167   4.220   4.229   4.262   4.299   4.303
  4.327   4.332   4.348   4.359   4.383   4.411   4.419   4.441
  4.474   4.523   4.533   4.559   4.575   4.605   4.651   4.682
  4.715   4.935   4.981   4.994   5.005   5.110   5.135   5.199
  5.435   5.453   5.560   5.580   5.591   5.610   5.617   5.682
  5.755   5.837  24.062  24.147  24.190  24.228  24.316  27.441
 27.529  27.530  27.576  27.864  28.008  28.069  28.077  28.107
 28.151  28.187  28.265  28.467  28.561  28.876  40.862  40.878
 40.895  40.925  40.932  40.938  40.961  40.967  40.996  41.006
 41.123  41.128  41.131  41.144  41.154  41.163  41.177  41.195
 41.204  41.218  41.226  41.228  41.255  41.288  41.320
 --------------------------------------------------------------
 
          Ground-State Mulliken Net Atomic Charges

     Atom                 Charge (a.u.)
  ----------------------------------------
      1 C                     0.345565
      2 C                    -0.386543
      3 C                    -0.387035
      4 C                     0.013641
      5 C                    -0.323029
      6 H                     0.088788
      7 H                     0.094411
      8 H                     0.088744
      9 H                     0.094574
     10 H                     0.096299
     11 H                     0.096264
     12 H                     0.089117
     13 H                     0.089205
  ----------------------------------------
  Sum of atomic charges =     0.000000

 -----------------------------------------------------------------
                    Cartesian Multipole Moments
 -----------------------------------------------------------------
    Charge (ESU x 10^10)
                 0.0000
    Dipole Moment (Debye)
         X      -0.3876      Y       0.0000      Z       0.1211
       Tot       0.4061
    Quadrupole Moments (Debye-Ang)
        XX     -34.3144     XY       0.0009     YY     -31.0089
        XZ      -0.3985     YZ       0.0000     ZZ     -30.8970
    Octapole Moments (Debye-Ang^2)
       XXX      -1.1340    XXY       0.0010    XYY      -2.4893
       YYY       0.0006    XXZ     -34.9297    XYZ       0.0015
       YYZ     -29.2337    XZZ       0.6615    YZZ       0.0001
       ZZZ     -88.0045
    Hexadecapole Moments (Debye-Ang^3)
      XXXX    -343.2071   XXXY       0.0033   XXYY     -68.7879
      XYYY       0.0015   YYYY    -120.9395   XXXZ      -9.4979
      XXYZ       0.0002   XYYZ      -4.1896   YYYZ       0.0006
      XXZZ    -103.0693   XYZZ       0.0044   YYZZ     -60.6439
      XZZZ      -2.0459   YZZZ       0.0003   ZZZZ    -282.0724
 -----------------------------------------------------------------
 Total job time:  280.78s(wall), 279.20s(cpu) 
 Tue Jun  4 16:53:58 2013

        *************************************************************
        *                                                           *
        *  Thank you very much for using Q-Chem.  Have a nice day.  *
        *                                                           *
        *************************************************************


0 sent ACK to 0 
now end server 0 ... 
 
**********************************************************************
Job 3 of 3 
**********************************************************************
 
Process 0 of 1 is on cl066.stfx.acenet.ca - thread support 1
initial socket setup ...start
initial socket setup ...done 
now start server 0 ... 

cmd = /usr/bin/ssh clhead /usr/local/qchem/bin/get_hostid 1233206511 > /scratch/tmp/6029084.1.short.q/qchem28759/lic.dat
                  Welcome to Q-Chem
     A Quantum Leap Into The Future Of Chemistry

 Y. Shao, L. Fusti-Molnar, Y. Jung, J. Kussmann, C. Ochsenfeld,
 S. T. Brown, A. T. B. Gilbert, L. V. Slipchenko,S. V. Levchenko,
 D. P. O'Neill, R. A. DiStasio Jr., R. C. Lochan, T. Wang,
 G. J. O. Beran, N. A. Besley, J. M. Herbert, C. Y. Lin,
 T. Van Voorhis, S. H. Chien, A. Sodt, R. P. Steele, 
 V. A. Rassolov, P. E. Maslen, P. P. Korambath, R. D. Adamson,
 B. Austin, J. Baker, E. F. C. Byrd, H. Dachsel, R. J. Doerksen,
 A. Dreuw, B. D. Dunietz, A. D. Dutoi, T. R. Furlani,
 S. R. Gwaltney, A. Heyden, S. Hirata, C.-P. Hsu, G. Kedziora,
 R. Z. Khaliullin, P. Klunzinger, A. M. Lee, M. S. Lee, W. Liang,
 I. Lotan, N. Nair, B. Peters, E. I. Proynov, P. A. Pieniazek, 
 Y. M. Rhee, J. Ritchie, E. Rosta, C. D. Sherrill, 
 A. C. Simmonett, J. E. Subotnik, H. L. Woodcock III,
 W. Zhang, A. T. Bell, A. K. Chakraborty, D. M. Chipman,
 F. J. Keil, A. Warshel, W. J. Hehre, H. F. Schaefer III,
 J. Kong, A. I. Krylov, P. M. W. Gill, M. Head-Gordon,
 Q-Chem, Version 3.1, Q-Chem, Inc., Pittsburgh, PA (2007).

 Additional authors for Version 3.1: 
 Z. Gan, Y. Zhao, N. E. Schultz, D. Truhlar, E. Epifanovsky and M. Oana.

 Additional authors for Version 3.2: 
 R. Baer, B. R. Brooks, D. Casanova, J.-D. Chai, C.-L. Cheng, 
 C. Cramer, D. Crittenden, A. Ghysels, G. Hawkins, E. G. Hohenstein, 
 C. Kelley, W. Kurlancheek, D. Liotard, E. Livshits, P. Manohar, 
 A. Marenich, D. Neuhauser, R. Olson, M. A. Rohrdanz, K. S. Thanthiriwatte, 
 A. J. W. Thom, V. Vanovschi, C. F. Williams, Q. Wu and Z.-Q. You. 


 Intel X86 Linux Version

 Q-chem begins on Tue Jun  4 16:54:01 2013  

 Parallel job on  1  processors
Processing $rem in /usr/local/qchem/config/preferences.

theFileMan(): MAXOPENFILES=974 MAX_SUB_FILE_NUM=16
Maximum size of a physical file is 2.0 GB, maximum size of a tmp-file is 32.0 GB


--------------------------------------------------------------
User input:
--------------------------------------------------------------

$molecule
1,2
C          0.02060        0.00000        0.56117
C          1.22722        0.78118        1.00597
C          1.22722       -0.78118        1.00597
C         -1.49528       -0.00000        0.33741
C         -0.97090        0.00000        1.73548
H          1.18314        1.24243        2.01799
H          1.72557        1.25567        0.13555
H          1.18314       -1.24243        2.01799
H          1.72557       -1.25567        0.13555
H         -1.68126       -0.96114       -0.18609
H         -1.68126        0.96114       -0.18609
H         -1.23188       -0.97109        2.20954
H         -1.23188        0.97109        2.20954
$end

$comment
positive
$end

$xc_functional
C PBE   1.00
X wPBE  1.00
$end

$rem
SYMMETRY_DECOMPOSITION	0
LRC_DFT                 true
exchange 		general
BASIS                   g3large
omega			320
mem_static              760
max_scf_cycles          200
scf_final_print         1
sym_ignore              true
$end

--------------------------------------------------------------
 Writing REM_CC_EA           13
 ----------------------------------------------------
       Standard Nuclear Orientation (Angstroms)
    I     Atom         X            Y            Z
 ----------------------------------------------------
    1      C       0.020600     0.000000     0.561170
    2      C       1.227220     0.781180     1.005970
    3      C       1.227220    -0.781180     1.005970
    4      C      -1.495280     0.000000     0.337410
    5      C      -0.970900     0.000000     1.735480
    6      H       1.183140     1.242430     2.017990
    7      H       1.725570     1.255670     0.135550
    8      H       1.183140    -1.242430     2.017990
    9      H       1.725570    -1.255670     0.135550
   10      H      -1.681260    -0.961140    -0.186090
   11      H      -1.681260     0.961140    -0.186090
   12      H      -1.231880    -0.971090     2.209540
   13      H      -1.231880     0.971090     2.209540
 ----------------------------------------------------
 Nuclear Repulsion Energy =   170.8246461472 hartrees
 There are       19 alpha and       18 beta electrons
 Requested basis set is G3large
 There are 98 shells and 290 basis functions

Total QAlloc Memory Limit   2000 MB
Mega-Array Size       743 MB
MEM_STATIC part       760 MB

                       Distance Matrix (Angstroms)
             C (  1)   C (  2)   C (  3)   C (  4)   C (  5)   H (  6)
   C (  2)  1.504666
   C (  3)  1.504666  1.562360
   C (  4)  1.532306  2.910193  2.910193
   C (  5)  1.536905  2.444209  2.444209  1.493176
   H (  6)  2.239968  1.113049  2.262990  3.397339  2.502665
   H (  7)  2.159811  1.109560  2.270406  3.462850  3.377489  1.959078
   H (  8)  2.239968  2.262990  1.113049  3.397339  2.502665  2.484860
   H (  9)  2.159811  2.270406  1.109560  3.462850  3.377489  3.174636
   H ( 10)  2.092490  3.593876  3.148436  1.110149  2.262926  4.233022
   H ( 11)  2.092490  3.148436  3.593876  1.110149  2.262926  3.625173
   H ( 12)  2.286667  3.250570  2.744416  2.125386  1.111692  3.281567
   H ( 13)  2.286667  2.744416  3.250570  2.125386  1.111692  2.437753
             H (  7)   H (  8)   H (  9)   H ( 10)   H ( 11)   H ( 12)
   H (  8)  3.174636
   H (  9)  2.511340  1.959078
   H ( 10)  4.077277  3.625173  3.434631
   H ( 11)  3.434631  4.233022  4.077277  1.922280
   H ( 12)  4.243395  2.437753  3.623387  2.437434  3.110386
   H ( 13)  3.623387  3.281567  4.243395  3.110386  2.437434  1.942180

 
 A cutoff of  1.0D-08 yielded   4475 shell pairs
 There are  39251 function pairs ( 47983 Cartesian)
Evaluating contribution to one-electron hamiltonian from nuclear
 Smallest overlap matrix eigenvalue = 1.37E-05

 Q-Chem warning in module mkSTV.C, line 194:

 Overlap eigenvalue is smaller than square root of threshold

 Multipole matrices computed through 2nd order

  Scale SEOQF with 1.000000e-01/1.000000e-01/1.000000e-01

 Standard Electronic Orientation quadrupole field applied
 Nucleus-field energy     =    -0.0000000023 hartrees
 Guess from superposition of atomic densities
 Warning:  Energy on first SCF cycle will be non-variational
 Long-range K will be added via erf
 Coulomb attenuation parameter = 0.32 bohr**(-1)
 An unrestricted Kohn-Sham SCF calculation will be
 performed using Pulay DIIS extrapolation
 Exchange:  wPBE + LR-HF      Correlation:  PBE
 Using SG-1 standard quadrature grid
 SCF converges when DIIS error is below 1.0E-05
 Requested basis set is G3large
 There are 98 shells and 290 basis functions
 A cutoff of  1.0D-08 yielded   4475 shell pairs
 There are  39251 function pairs ( 47983 Cartesian)
 Warning!  Inaccurate integrated density:
   Number of electrons =    37
   Numerical integral  =    37.999315947614
   Relative error      =     2.7008539125 %
 ---------------------------------------
  Cycle       Energy         DIIS Error
 ---------------------------------------
    1    -196.8373936828      2.77E-02
    2    -194.6883518309      2.24E-03
    3    -194.7310823756      1.81E-03
    4    -194.7651932023      2.89E-04
    5    -194.7674145750      8.74E-05
    6    -194.7679124655      5.29E-05
    7    -194.7681188361      2.54E-05
    8    -194.7682644228      1.44E-05
    9    -194.7683322055      9.48E-06 Convergence criterion met
 ---------------------------------------
 One-Electron    Energy =  -590.3388415360
 Total Coulomb   Energy =   254.3269803550
 Alpha Exchange  Energy =    -3.1275072300
 Beta  Exchange  Energy =    -2.9556757543
 DFT   Exchange  Energy =   -22.2922475864
 DFT Correlation Energy =    -1.2056865989
 Nuclear Repu.   Energy =   170.8246461450
 Nuclear Attr.   Energy =  -783.9627578040
 Kinetic         Energy =   193.6239162681
 <S^2> = 0.7600
 SCF time:  CPU 416.31 s  wall 417.32 s
 Final Alpha MO Eigenvalues
            1           2           3           4           5           6
    1 -10.3645414 -10.3518150 -10.3245310 -10.2918875 -10.2898203  -1.2621029
            7           8           9          10          11          12
    1  -1.1404240  -0.9605100  -0.9314748  -0.8782862  -0.8245282  -0.8138401
           13          14          15          16          17          18
    1  -0.7843002  -0.7116610  -0.7069158  -0.6786337  -0.6313127  -0.6166449
           19          20          21          22          23          24
    1  -0.6062439  -0.1144933  -0.0936763  -0.0839632  -0.0796708  -0.0660586
 Final Beta MO Eigenvalues
            1           2           3           4           5           6
    1 -10.3568970 -10.3443734 -10.3245071 -10.2917266 -10.2898163  -1.2447596
            7           8           9          10          11          12
    1  -1.1349661  -0.9392851  -0.9275353  -0.8572304  -0.8202225  -0.7978044
           13          14          15          16          17          18
    1  -0.7709579  -0.7064128  -0.6932649  -0.6704551  -0.6093141  -0.6039091
           19          20          21          22          23
    1  -0.3367281  -0.0959397  -0.0890736  -0.0831442  -0.0779879
 Analysis of SCF Wavefunction
 
 --------------------------------------------------------------
                    Orbital Energies (a.u.)
 --------------------------------------------------------------
 
 Alpha MOs
 -- Occupied --
-10.365 -10.352 -10.325 -10.292 -10.290  -1.262  -1.140  -0.961
 -0.931  -0.878  -0.825  -0.814  -0.784  -0.712  -0.707  -0.679
 -0.631  -0.617  -0.606
 -- Virtual --
 -0.114  -0.094  -0.084  -0.080  -0.066  -0.051  -0.047  -0.039
 -0.038  -0.029  -0.011  -0.005   0.005   0.016   0.020   0.023
  0.024   0.032   0.039   0.047   0.054   0.054   0.057   0.066
  0.071   0.076   0.083   0.085   0.100   0.101   0.108   0.114
  0.124   0.149   0.151   0.163   0.180   0.191   0.206   0.219
  0.265   0.277   0.302   0.352   0.353   0.360   0.361   0.386
  0.407   0.425   0.435   0.439   0.450   0.475   0.477   0.482
  0.490   0.495   0.498   0.504   0.514   0.521   0.532   0.560
  0.577   0.600   0.632   0.668   0.670   0.694   0.695   0.722
  0.724   0.774   0.778   0.805   0.831   0.884   0.911   0.919
  0.943   0.947   0.979   0.985   1.009   1.031   1.047   1.070
  1.071   1.117   1.130   1.137   1.179   1.201   1.216   1.218
  1.235   1.243   1.247   1.261   1.276   1.310   1.327   1.337
  1.337   1.363   1.367   1.392   1.394   1.417   1.430   1.436
  1.446   1.506   1.549   1.563   1.577   1.650   1.707   2.297
  2.357   2.406   2.408   2.462   2.477   2.489   2.496   2.517
  2.553   2.576   2.583   2.630   2.646   2.657   2.696   2.712
  2.716   2.728   2.764   2.779   2.795   2.823   2.836   2.853
  2.869   2.921   2.935   2.942   2.957   2.958   3.037   3.038
  3.092   3.099   3.104   3.163   3.168   3.186   3.222   3.236
  3.256   3.283   3.294   3.312   3.345   3.357   3.369   3.370
  3.455   3.476   3.487   3.495   3.546   3.557   3.593   3.614
  3.623   3.648   3.696   3.716   3.767   3.786   3.795   3.862
  3.863   3.877   3.929   3.981   4.003   4.032   4.068   4.070
  4.096   4.103   4.113   4.120   4.144   4.177   4.185   4.204
  4.235   4.286   4.289   4.325   4.331   4.354   4.400   4.448
  4.469   4.707   4.739   4.742   4.765   4.871   4.908   4.930
  5.179   5.215   5.324   5.354   5.363   5.370   5.399   5.446
  5.528   5.591  23.801  23.878  23.967  23.974  24.057  27.213
 27.246  27.267  27.306  27.596  27.770  27.829  27.835  27.847
 27.910  27.939  28.004  28.195  28.338  28.605  40.572  40.593
 40.648  40.670  40.693  40.709  40.713  40.722  40.743  40.745
 40.847  40.864  40.868  40.883  40.899  40.929  40.933  40.947
 40.955  40.965  40.969  40.990  40.999  41.021  41.060
 
 Beta MOs
 -- Occupied --
-10.357 -10.344 -10.325 -10.292 -10.290  -1.245  -1.135  -0.939
 -0.928  -0.857  -0.820  -0.798  -0.771  -0.706  -0.693  -0.670
 -0.609  -0.604
 -- Virtual --
 -0.337  -0.096  -0.089  -0.083  -0.078  -0.058  -0.049  -0.047
 -0.038  -0.037  -0.024  -0.009  -0.005   0.008   0.020   0.021
  0.023   0.027   0.033   0.042   0.049   0.056   0.056   0.060
  0.067   0.071   0.080   0.086   0.087   0.101   0.102   0.113
  0.116   0.128   0.152   0.152   0.169   0.186   0.204   0.212
  0.220   0.268   0.282   0.308   0.355   0.359   0.363   0.365
  0.392   0.411   0.436   0.440   0.440   0.454   0.479   0.480
  0.488   0.492   0.501   0.502   0.512   0.520   0.525   0.535
  0.571   0.581   0.602   0.638   0.672   0.674   0.697   0.699
  0.725   0.727   0.779   0.783   0.811   0.834   0.887   0.921
  0.924   0.948   0.956   0.983   0.987   1.011   1.034   1.056
  1.074   1.075   1.124   1.132   1.144   1.186   1.207   1.219
  1.221   1.246   1.247   1.252   1.266   1.283   1.313   1.330
  1.341   1.343   1.370   1.371   1.396   1.401   1.423   1.434
  1.443   1.451   1.514   1.564   1.567   1.580   1.654   1.714
  2.310   2.363   2.411   2.414   2.481   2.486   2.497   2.508
  2.531   2.564   2.591   2.594   2.640   2.652   2.665   2.705
  2.720   2.725   2.738   2.779   2.789   2.809   2.828   2.840
  2.856   2.880   2.936   2.939   2.949   2.960   2.965   3.043
  3.049   3.101   3.108   3.123   3.169   3.173   3.190   3.229
  3.251   3.266   3.288   3.308   3.314   3.361   3.363   3.374
  3.377   3.472   3.484   3.501   3.515   3.556   3.567   3.598
  3.620   3.631   3.651   3.711   3.725   3.777   3.796   3.800
  3.867   3.870   3.885   3.941   3.988   4.009   4.037   4.074
  4.078   4.108   4.109   4.121   4.135   4.153   4.184   4.194
  4.213   4.242   4.297   4.302   4.336   4.337   4.371   4.413
  4.453   4.478   4.711   4.747   4.756   4.778   4.877   4.914
  4.955   5.196   5.220   5.331   5.359   5.369   5.377   5.404
  5.452   5.533   5.597  23.806  23.884  23.968  23.978  24.060
 27.215  27.262  27.271  27.313  27.601  27.771  27.831  27.838
 27.851  27.911  27.940  28.013  28.201  28.338  28.609  40.588
 40.604  40.654  40.675  40.697  40.710  40.715  40.724  40.745
 40.745  40.860  40.875  40.875  40.883  40.900  40.930  40.938
 40.949  40.963  40.967  40.971  40.999  41.000  41.024  41.062
 --------------------------------------------------------------
 
          Ground-State Mulliken Net Atomic Charges

     Atom                 Charge (a.u.)    Spin (a.u.)
  --------------------------------------------------------
      1 C                     0.396031       0.428031
      2 C                    -0.290697       0.006277
      3 C                    -0.286383       0.014051
      4 C                     0.080641       0.001080
      5 C                    -0.168064       0.408725
      6 H                     0.143739       0.028129
      7 H                     0.157835       0.024547
      8 H                     0.142765       0.023964
      9 H                     0.160438       0.031526
     10 H                     0.161324       0.023245
     11 H                     0.160883       0.019253
     12 H                     0.170170      -0.006498
     13 H                     0.171318      -0.002330
  --------------------------------------------------------
  Sum of atomic charges =     1.000000
  Sum of spin   charges =     1.000000

 -----------------------------------------------------------------
                    Cartesian Multipole Moments
 -----------------------------------------------------------------
    Charge (ESU x 10^10)
                 4.8032
    Dipole Moment (Debye)
         X      -1.0694      Y      -0.0325      Z       4.7250
       Tot       4.8447
    Quadrupole Moments (Debye-Ang)
        XX     -20.9288     XY      -0.0567     YY     -24.4923
        XZ      -1.2427     YZ       0.0574     ZZ     -18.7807
    Octapole Moments (Debye-Ang^2)
       XXX      -3.4466    XXY      -0.1201    XYY      -0.2974
       YYY      -0.0303    XXZ     -24.0284    XYZ      -0.0309
       YYZ     -22.4178    XZZ      -3.5118    YZZ       0.1164
       ZZZ     -61.1277
    Hexadecapole Moments (Debye-Ang^3)
      XXXX    -270.4731   XXXY      -0.2784   XXYY     -48.9098
      XYYY      -0.0946   YYYY     -98.7656   XXXZ     -10.7172
      XXYZ       0.1320   XYYZ      -2.3282   YYYZ       0.1136
      XXZZ     -74.2126   XYZZ      -0.0331   YYZZ     -42.9494
      XZZZ     -11.9338   YZZZ       0.2754   ZZZZ    -209.2779
 -----------------------------------------------------------------
 Total job time:  417.77s(wall), 416.74s(cpu) 
 Tue Jun  4 17:00:58 2013

        *************************************************************
        *                                                           *
        *  Thank you very much for using Q-Chem.  Have a nice day.  *
        *                                                           *
        *************************************************************


0 sent ACK to 0 
now end server 0 ... 
