Process 0 of 1 is on cl212.stfx.acenet.ca - thread support 1
initial socket setup ...start
initial socket setup ...done 
now start server 0 ... 

cmd = /usr/bin/ssh clhead /usr/local/qchem/bin/get_hostid 261426614 > /globalscratch/itamblyn/bnl/g297_b3lyp_neut_g03Large_worked/g2g71008/omega690/qchem13235/lic.dat
                  Welcome to Q-Chem
     A Quantum Leap Into The Future Of Chemistry

 Y. Shao, L. Fusti-Molnar, Y. Jung, J. Kussmann, C. Ochsenfeld,
 S. T. Brown, A. T. B. Gilbert, L. V. Slipchenko,S. V. Levchenko,
 D. P. O'Neill, R. A. DiStasio Jr., R. C. Lochan, T. Wang,
 G. J. O. Beran, N. A. Besley, J. M. Herbert, C. Y. Lin,
 T. Van Voorhis, S. H. Chien, A. Sodt, R. P. Steele, 
 V. A. Rassolov, P. E. Maslen, P. P. Korambath, R. D. Adamson,
 B. Austin, J. Baker, E. F. C. Byrd, H. Dachsel, R. J. Doerksen,
 A. Dreuw, B. D. Dunietz, A. D. Dutoi, T. R. Furlani,
 S. R. Gwaltney, A. Heyden, S. Hirata, C.-P. Hsu, G. Kedziora,
 R. Z. Khaliullin, P. Klunzinger, A. M. Lee, M. S. Lee, W. Liang,
 I. Lotan, N. Nair, B. Peters, E. I. Proynov, P. A. Pieniazek, 
 Y. M. Rhee, J. Ritchie, E. Rosta, C. D. Sherrill, 
 A. C. Simmonett, J. E. Subotnik, H. L. Woodcock III,
 W. Zhang, A. T. Bell, A. K. Chakraborty, D. M. Chipman,
 F. J. Keil, A. Warshel, W. J. Hehre, H. F. Schaefer III,
 J. Kong, A. I. Krylov, P. M. W. Gill, M. Head-Gordon,
 Q-Chem, Version 3.1, Q-Chem, Inc., Pittsburgh, PA (2007).

 Additional authors for Version 3.1: 
 Z. Gan, Y. Zhao, N. E. Schultz, D. Truhlar, E. Epifanovsky and M. Oana.

 Additional authors for Version 3.2: 
 R. Baer, B. R. Brooks, D. Casanova, J.-D. Chai, C.-L. Cheng, 
 C. Cramer, D. Crittenden, A. Ghysels, G. Hawkins, E. G. Hohenstein, 
 C. Kelley, W. Kurlancheek, D. Liotard, E. Livshits, P. Manohar, 
 A. Marenich, D. Neuhauser, R. Olson, M. A. Rohrdanz, K. S. Thanthiriwatte, 
 A. J. W. Thom, V. Vanovschi, C. F. Williams, Q. Wu and Z.-Q. You. 


 Intel X86 Linux Version

 Q-chem begins on Fri Apr 15 15:21:42 2011  

 Parallel job on  1  processors
Processing $rem in /usr/local/qchem/config/preferences.

theFileMan(): MAXOPENFILES=974 MAX_SUB_FILE_NUM=16
Maximum size of a physical file is 2.0 GB, maximum size of a tmp-file is 32.0 GB


--------------------------------------------------------------
User input:
--------------------------------------------------------------

$molecule
-1,1
N
H,1,RBH
H,1,RBH,2,HBH

RBH=1.03433331
HBH=102.13281397

$end

$comment
negative
$end

$xc_functional
   X HF 1.0
   X BNL 1.0
   C LYP 1.0
$end

$rem
SYMMETRY_DECOMPOSITION	0
exchange 		general
BASIS                   g3large
omega			690
separate_jk		true
mem_static              760
max_scf_cycles          200
scf_final_print         1
sym_ignore              true
$end

--------------------------------------------------------------
 Writing REM_CC_EA            3
 ----------------------------------------------------
       Standard Nuclear Orientation (Angstroms)
    I     Atom         X            Y            Z
 ----------------------------------------------------
    1      N       0.000000     0.000000     0.000000
    2      H       0.000000     0.000000     1.034333
    3      H       1.011229     0.000000    -0.217395
 ----------------------------------------------------
 Nuclear Repulsion Energy =     7.4914186564 hartrees
 There are        5 alpha and        5 beta electrons
 Requested basis set is G3large
 There are 22 shells and 62 basis functions

Total QAlloc Memory Limit   2000 MB
Mega-Array Size       743 MB
MEM_STATIC part       760 MB

                       Distance Matrix (Angstroms)
             N (  1)   H (  2)
   H (  2)  1.034333
   H (  3)  1.034333  1.609164
 
 A cutoff of  1.0D-08 yielded    253 shell pairs
 There are   2043 function pairs (  2475 Cartesian)
Evaluating contribution to one-electron hamiltonian from nuclear
 Smallest overlap matrix eigenvalue = 2.91E-03
 Multipole matrices computed through 2nd order

  Scale SEOQF with 1.000000e-01/1.000000e-01/1.000000e-01

 Standard Electronic Orientation quadrupole field applied
 Guess from superposition of atomic densities
 Warning:  Energy on first SCF cycle will be non-variational
 A restricted hybrid HF-DFT SCF calculation will be
 performed using Pulay DIIS extrapolation
 Exchange:     1.0000 Hartree-Fock + 1.0000 BNL
 Correlation:  1.0000 LYP
 Using SG-1 standard quadrature grid
 SCF converges when DIIS error is below 1.0E-05
 Warning!  Inaccurate integrated density:
   Number of electrons =    10
   Numerical integral  =     8.999981079523
   Relative error      =   -10.0001892048 %
 ---------------------------------------
  Cycle       Energy         DIIS Error
 ---------------------------------------
    1     -55.1796889293      4.33E-02
    2     -55.2715250524      1.70E-02
    3     -55.3323812400      1.44E-02
    4     -55.4143274373      6.92E-04
    5     -55.4145901480      2.87E-04
    6     -55.4146590843      6.51E-05
    7     -55.4146675189      1.75E-05
    8     -55.4146685271      3.77E-06 Convergence criterion met
 ---------------------------------------
 One-Electron    Energy =   -93.3043135713
 Total Coulomb   Energy =    37.6794084496
 Alpha Exchange  Energy =    -1.4223737684
 Beta  Exchange  Energy =    -1.4223737684
 DFT   Exchange  Energy =    -4.1234540319
 DFT Correlation Energy =    -0.3129804930
 Nuclear Repu.   Energy =     7.4914186563
 Nuclear Attr.   Energy =  -148.4328471386
 Kinetic         Energy =    55.1285335673
 SCF time:  CPU 5.86 s  wall 15.24 s
 Final Alpha MO Eigenvalues
            1           2           3           4           5           6
    1 -13.8479190  -0.6963130  -0.2897698  -0.1422444  -0.0648118   0.1954460
            7           8           9          10
    1   0.2101634   0.3665365   0.3960102   0.4019179
 Analysis of SCF Wavefunction
 
 --------------------------------------------------------------
                    Orbital Energies (a.u.)
 --------------------------------------------------------------
 
 Alpha MOs
 -- Occupied --
-13.848  -0.696  -0.290  -0.142  -0.065
 -- Virtual --
  0.195   0.210   0.367   0.396   0.402   0.448   0.489   0.499
  0.871   0.943   1.026   1.065   1.067   1.117   1.140   1.243
  1.377   1.458   1.708   1.717   1.823   1.829   1.990   2.144
  2.276   2.956   3.005   3.791   3.867   3.912   3.934   4.119
  4.165   4.274   4.325   4.392   4.415   4.895   4.948   5.053
  5.129   5.468   5.476   5.603   5.613   5.918   6.282   6.838
 36.092  37.879  38.354  38.721  41.055  41.124  41.132  41.135
 41.186
 --------------------------------------------------------------
 
          Ground-State Mulliken Net Atomic Charges

     Atom                 Charge (a.u.)
  ----------------------------------------
      1 N                    -1.178882
      2 H                     0.089443
      3 H                     0.089439
  ----------------------------------------
  Sum of atomic charges =    -1.000000

 -----------------------------------------------------------------
                    Cartesian Multipole Moments
 -----------------------------------------------------------------
    Charge (ESU x 10^10)
                -4.8032
    Dipole Moment (Debye)
         X       1.1552      Y       0.0000      Z       0.9332
       Tot       1.4850
    Quadrupole Moments (Debye-Ang)
        XX     -10.5679     XY       0.0000     YY     -13.7653
        XZ      -0.9154     YZ       0.0000     ZZ     -10.1744
    Octapole Moments (Debye-Ang^2)
       XXX      -1.0865    XXY       0.0000    XYY      -0.5394
       YYY       0.0001    XXZ      -0.6182    XYZ       0.0000
       YYZ      -0.4358    XZZ      -0.5552    YZZ       0.0000
       ZZZ      -0.7083
    Hexadecapole Moments (Debye-Ang^3)
      XXXX     -22.1883   XXXY       0.0000   XXYY      -8.6523
      XYYY       0.0000   YYYY     -28.5986   XXXZ      -1.1639
      XXYZ       0.0000   XYYZ      -0.2736   YYYZ       0.0000
      XXZZ      -7.4808   XYZZ       0.0000   YYZZ      -8.5347
      XZZZ      -1.0018   YZZZ       0.0000   ZZZZ     -21.2573
 -----------------------------------------------------------------
 Total job time:  31.75s(wall), 5.93s(cpu) 
 Fri Apr 15 15:22:13 2011

        *************************************************************
        *                                                           *
        *  Thank you very much for using Q-Chem.  Have a nice day.  *
        *                                                           *
        *************************************************************


0 sent ACK to 0 
now end server 0 ... 
 
**********************************************************************
Job 2 of 3 
**********************************************************************
 
Process 0 of 1 is on cl212.stfx.acenet.ca - thread support 1
initial socket setup ...start
initial socket setup ...done 
now start server 0 ... 

cmd = /usr/bin/ssh clhead /usr/local/qchem/bin/get_hostid 508122236 > /globalscratch/itamblyn/bnl/g297_b3lyp_neut_g03Large_worked/g2g71008/omega690/qchem13235/lic.dat
                  Welcome to Q-Chem
     A Quantum Leap Into The Future Of Chemistry

 Y. Shao, L. Fusti-Molnar, Y. Jung, J. Kussmann, C. Ochsenfeld,
 S. T. Brown, A. T. B. Gilbert, L. V. Slipchenko,S. V. Levchenko,
 D. P. O'Neill, R. A. DiStasio Jr., R. C. Lochan, T. Wang,
 G. J. O. Beran, N. A. Besley, J. M. Herbert, C. Y. Lin,
 T. Van Voorhis, S. H. Chien, A. Sodt, R. P. Steele, 
 V. A. Rassolov, P. E. Maslen, P. P. Korambath, R. D. Adamson,
 B. Austin, J. Baker, E. F. C. Byrd, H. Dachsel, R. J. Doerksen,
 A. Dreuw, B. D. Dunietz, A. D. Dutoi, T. R. Furlani,
 S. R. Gwaltney, A. Heyden, S. Hirata, C.-P. Hsu, G. Kedziora,
 R. Z. Khaliullin, P. Klunzinger, A. M. Lee, M. S. Lee, W. Liang,
 I. Lotan, N. Nair, B. Peters, E. I. Proynov, P. A. Pieniazek, 
 Y. M. Rhee, J. Ritchie, E. Rosta, C. D. Sherrill, 
 A. C. Simmonett, J. E. Subotnik, H. L. Woodcock III,
 W. Zhang, A. T. Bell, A. K. Chakraborty, D. M. Chipman,
 F. J. Keil, A. Warshel, W. J. Hehre, H. F. Schaefer III,
 J. Kong, A. I. Krylov, P. M. W. Gill, M. Head-Gordon,
 Q-Chem, Version 3.1, Q-Chem, Inc., Pittsburgh, PA (2007).

 Additional authors for Version 3.1: 
 Z. Gan, Y. Zhao, N. E. Schultz, D. Truhlar, E. Epifanovsky and M. Oana.

 Additional authors for Version 3.2: 
 R. Baer, B. R. Brooks, D. Casanova, J.-D. Chai, C.-L. Cheng, 
 C. Cramer, D. Crittenden, A. Ghysels, G. Hawkins, E. G. Hohenstein, 
 C. Kelley, W. Kurlancheek, D. Liotard, E. Livshits, P. Manohar, 
 A. Marenich, D. Neuhauser, R. Olson, M. A. Rohrdanz, K. S. Thanthiriwatte, 
 A. J. W. Thom, V. Vanovschi, C. F. Williams, Q. Wu and Z.-Q. You. 


 Intel X86 Linux Version

 Q-chem begins on Fri Apr 15 15:22:18 2011  

 Parallel job on  1  processors
Processing $rem in /usr/local/qchem/config/preferences.

theFileMan(): MAXOPENFILES=974 MAX_SUB_FILE_NUM=16
Maximum size of a physical file is 2.0 GB, maximum size of a tmp-file is 32.0 GB


--------------------------------------------------------------
User input:
--------------------------------------------------------------

$molecule
0,2
N
H,1,RBH
H,1,RBH,2,HBH

RBH=1.03433331
HBH=102.13281397

$end

$comment
neutral
$end

$xc_functional
   X HF 1.0
   X BNL 1.0
   C LYP 1.0
$end

$rem
SYMMETRY_DECOMPOSITION	0
exchange 		general
BASIS                   g3large
omega			690
separate_jk		true
mem_static              760
max_scf_cycles          200
scf_final_print         1
sym_ignore              true
$end

--------------------------------------------------------------
 Writing REM_CC_EA            3
 ----------------------------------------------------
       Standard Nuclear Orientation (Angstroms)
    I     Atom         X            Y            Z
 ----------------------------------------------------
    1      N       0.000000     0.000000     0.000000
    2      H       0.000000     0.000000     1.034333
    3      H       1.011229     0.000000    -0.217395
 ----------------------------------------------------
 Nuclear Repulsion Energy =     7.4914186564 hartrees
 There are        5 alpha and        4 beta electrons
 Requested basis set is G3large
 There are 22 shells and 62 basis functions

Total QAlloc Memory Limit   2000 MB
Mega-Array Size       743 MB
MEM_STATIC part       760 MB

                       Distance Matrix (Angstroms)
             N (  1)   H (  2)
   H (  2)  1.034333
   H (  3)  1.034333  1.609164
 
 A cutoff of  1.0D-08 yielded    253 shell pairs
 There are   2043 function pairs (  2475 Cartesian)
Evaluating contribution to one-electron hamiltonian from nuclear
 Smallest overlap matrix eigenvalue = 2.91E-03
 Multipole matrices computed through 2nd order

  Scale SEOQF with 1.000000e-01/1.000000e-01/1.000000e-01

 Standard Electronic Orientation quadrupole field applied
 Guess from superposition of atomic densities
 Warning:  Energy on first SCF cycle will be non-variational
 An unrestricted hybrid HF-DFT SCF calculation will be
 performed using Pulay DIIS extrapolation
 Exchange:     1.0000 Hartree-Fock + 1.0000 BNL
 Correlation:  1.0000 LYP
 Using SG-1 standard quadrature grid
 SCF converges when DIIS error is below 1.0E-05
 ---------------------------------------
  Cycle       Energy         DIIS Error
 ---------------------------------------
    1     -55.1796889293      4.33E-02
    2     -55.3842147017      4.85E-03
    3     -55.3962385322      1.93E-03
    4     -55.3978278877      5.34E-04
    5     -55.3980284713      1.01E-04
    6     -55.3980755046      3.07E-05
    7     -55.3980847202      5.27E-06 Convergence criterion met
 ---------------------------------------
 One-Electron    Energy =   -90.1025051399
 Total Coulomb   Energy =    34.2800102112
 Alpha Exchange  Energy =    -1.4918118519
 Beta  Exchange  Energy =    -1.1935900310
 DFT   Exchange  Energy =    -4.1027201900
 DFT Correlation Energy =    -0.2788863750
 Nuclear Repu.   Energy =     7.4914186563
 Nuclear Attr.   Energy =  -145.2059879126
 Kinetic         Energy =    55.1034827727
 <S^2> = 0.7538
 SCF time:  CPU 5.60 s  wall 12.36 s
 Final Alpha MO Eigenvalues
            1           2           3           4           5           6
    1 -14.2333326  -1.0811769  -0.6420958  -0.5030764  -0.4958499   0.0325501
            7           8           9          10
    1   0.0641606   0.1641598   0.1662385   0.2053651
 Final Beta MO Eigenvalues
            1           2           3           4           5           6
    1 -14.2122566  -1.0116178  -0.6240671  -0.4718940   0.0093576   0.0330621
            7           8           9
    1   0.0645889   0.1661408   0.2041176
 Analysis of SCF Wavefunction
 
 --------------------------------------------------------------
                    Orbital Energies (a.u.)
 --------------------------------------------------------------
 
 Alpha MOs
 -- Occupied --
-14.233  -1.081  -0.642  -0.503  -0.496
 -- Virtual --
  0.033   0.064   0.164   0.166   0.205   0.221   0.255   0.260
  0.589   0.654   0.728   0.752   0.773   0.821   0.834   0.896
  1.091   1.132   1.380   1.411   1.476   1.481   1.666   1.809
  1.963   2.636   2.676   3.437   3.506   3.579   3.583   3.738
  3.830   3.850   3.953   4.022   4.032   4.532   4.607   4.694
  4.790   5.059   5.066   5.215   5.243   5.562   5.926   6.487
 35.705  37.477  37.977  38.343  40.646  40.731  40.732  40.745
 40.808
 
 Beta MOs
 -- Occupied --
-14.212  -1.012  -0.624  -0.472
 -- Virtual --
  0.009   0.033   0.065   0.166   0.204   0.204   0.224   0.257
  0.265   0.591   0.656   0.738   0.774   0.785   0.842   0.848
  0.951   1.090   1.155   1.404   1.418   1.507   1.516   1.676
  1.832   1.971   2.635   2.682   3.456   3.532   3.584   3.601
  3.776   3.838   3.926   3.987   4.058   4.069   4.556   4.616
  4.715   4.797   5.130   5.137   5.264   5.277   5.582   5.950
  6.502  35.732  37.514  37.991  38.357  40.700  40.763  40.775
 40.777  40.825
 --------------------------------------------------------------
 
          Ground-State Mulliken Net Atomic Charges

     Atom                 Charge (a.u.)    Spin (a.u.)
  --------------------------------------------------------
      1 N                    -0.347403       1.066359
      2 H                     0.173703      -0.033184
      3 H                     0.173700      -0.033175
  --------------------------------------------------------
  Sum of atomic charges =     0.000000
  Sum of spin   charges =     1.000000

 -----------------------------------------------------------------
                    Cartesian Multipole Moments
 -----------------------------------------------------------------
    Charge (ESU x 10^10)
                 0.0000
    Dipole Moment (Debye)
         X       1.6204      Y       0.0000      Z       1.3091
       Tot       2.0831
    Quadrupole Moments (Debye-Ang)
        XX      -6.4828     XY       0.0000     YY      -7.2763
        XZ      -0.7574     YZ       0.0000     ZZ      -6.1572
    Octapole Moments (Debye-Ang^2)
       XXX       0.2354    XXY       0.0000    XYY      -0.4039
       YYY       0.0000    XXZ      -0.7596    XYZ       0.0000
       YYZ      -0.3263    XZZ      -0.4095    YZZ       0.0000
       ZZZ       0.6190
    Hexadecapole Moments (Debye-Ang^3)
      XXXX      -9.7581   XXXY       0.0000   XXYY      -3.1284
      XYYY       0.0000   YYYY      -6.9820   XXXZ      -0.6569
      XXYZ       0.0000   XYYZ      -0.0464   YYYZ       0.0000
      XXZZ      -3.8016   XYZZ       0.0000   YYZZ      -3.1085
      XZZZ      -0.2422   YZZZ       0.0000   ZZZZ      -9.3716
 -----------------------------------------------------------------
 Total job time:  18.58s(wall), 5.68s(cpu) 
 Fri Apr 15 15:22:37 2011

        *************************************************************
        *                                                           *
        *  Thank you very much for using Q-Chem.  Have a nice day.  *
        *                                                           *
        *************************************************************


0 sent ACK to 0 
now end server 0 ... 
 
**********************************************************************
Job 3 of 3 
**********************************************************************
 
Process 0 of 1 is on cl212.stfx.acenet.ca - thread support 1
initial socket setup ...start
initial socket setup ...done 
now start server 0 ... 

cmd = /usr/bin/ssh clhead /usr/local/qchem/bin/get_hostid 1651499157 > /globalscratch/itamblyn/bnl/g297_b3lyp_neut_g03Large_worked/g2g71008/omega690/qchem13235/lic.dat
                  Welcome to Q-Chem
     A Quantum Leap Into The Future Of Chemistry

 Y. Shao, L. Fusti-Molnar, Y. Jung, J. Kussmann, C. Ochsenfeld,
 S. T. Brown, A. T. B. Gilbert, L. V. Slipchenko,S. V. Levchenko,
 D. P. O'Neill, R. A. DiStasio Jr., R. C. Lochan, T. Wang,
 G. J. O. Beran, N. A. Besley, J. M. Herbert, C. Y. Lin,
 T. Van Voorhis, S. H. Chien, A. Sodt, R. P. Steele, 
 V. A. Rassolov, P. E. Maslen, P. P. Korambath, R. D. Adamson,
 B. Austin, J. Baker, E. F. C. Byrd, H. Dachsel, R. J. Doerksen,
 A. Dreuw, B. D. Dunietz, A. D. Dutoi, T. R. Furlani,
 S. R. Gwaltney, A. Heyden, S. Hirata, C.-P. Hsu, G. Kedziora,
 R. Z. Khaliullin, P. Klunzinger, A. M. Lee, M. S. Lee, W. Liang,
 I. Lotan, N. Nair, B. Peters, E. I. Proynov, P. A. Pieniazek, 
 Y. M. Rhee, J. Ritchie, E. Rosta, C. D. Sherrill, 
 A. C. Simmonett, J. E. Subotnik, H. L. Woodcock III,
 W. Zhang, A. T. Bell, A. K. Chakraborty, D. M. Chipman,
 F. J. Keil, A. Warshel, W. J. Hehre, H. F. Schaefer III,
 J. Kong, A. I. Krylov, P. M. W. Gill, M. Head-Gordon,
 Q-Chem, Version 3.1, Q-Chem, Inc., Pittsburgh, PA (2007).

 Additional authors for Version 3.1: 
 Z. Gan, Y. Zhao, N. E. Schultz, D. Truhlar, E. Epifanovsky and M. Oana.

 Additional authors for Version 3.2: 
 R. Baer, B. R. Brooks, D. Casanova, J.-D. Chai, C.-L. Cheng, 
 C. Cramer, D. Crittenden, A. Ghysels, G. Hawkins, E. G. Hohenstein, 
 C. Kelley, W. Kurlancheek, D. Liotard, E. Livshits, P. Manohar, 
 A. Marenich, D. Neuhauser, R. Olson, M. A. Rohrdanz, K. S. Thanthiriwatte, 
 A. J. W. Thom, V. Vanovschi, C. F. Williams, Q. Wu and Z.-Q. You. 


 Intel X86 Linux Version

 Q-chem begins on Fri Apr 15 15:22:40 2011  

 Parallel job on  1  processors
Processing $rem in /usr/local/qchem/config/preferences.

theFileMan(): MAXOPENFILES=974 MAX_SUB_FILE_NUM=16
Maximum size of a physical file is 2.0 GB, maximum size of a tmp-file is 32.0 GB


--------------------------------------------------------------
User input:
--------------------------------------------------------------

$molecule
1,1
N
H,1,RBH
H,1,RBH,2,HBH

RBH=1.03433331
HBH=102.13281397

$end

$comment
positive
$end

$xc_functional
   X HF 1.0
   X BNL 1.0
   C LYP 1.0
$end

$rem
SYMMETRY_DECOMPOSITION	0
exchange 		general
BASIS                   g3large
omega			690
separate_jk		true
mem_static              760
max_scf_cycles          200
scf_final_print         1
sym_ignore              true
$end

--------------------------------------------------------------
 Writing REM_CC_EA            3
 ----------------------------------------------------
       Standard Nuclear Orientation (Angstroms)
    I     Atom         X            Y            Z
 ----------------------------------------------------
    1      N       0.000000     0.000000     0.000000
    2      H       0.000000     0.000000     1.034333
    3      H       1.011229     0.000000    -0.217395
 ----------------------------------------------------
 Nuclear Repulsion Energy =     7.4914186564 hartrees
 There are        4 alpha and        4 beta electrons
 Requested basis set is G3large
 There are 22 shells and 62 basis functions

Total QAlloc Memory Limit   2000 MB
Mega-Array Size       743 MB
MEM_STATIC part       760 MB

                       Distance Matrix (Angstroms)
             N (  1)   H (  2)
   H (  2)  1.034333
   H (  3)  1.034333  1.609164
 
 A cutoff of  1.0D-08 yielded    253 shell pairs
 There are   2043 function pairs (  2475 Cartesian)
Evaluating contribution to one-electron hamiltonian from nuclear
 Smallest overlap matrix eigenvalue = 2.91E-03
 Multipole matrices computed through 2nd order

  Scale SEOQF with 1.000000e-01/1.000000e-01/1.000000e-01

 Standard Electronic Orientation quadrupole field applied
 Guess from superposition of atomic densities
 Warning:  Energy on first SCF cycle will be non-variational
 A restricted hybrid HF-DFT SCF calculation will be
 performed using Pulay DIIS extrapolation
 Exchange:     1.0000 Hartree-Fock + 1.0000 BNL
 Correlation:  1.0000 LYP
 Using SG-1 standard quadrature grid
 SCF converges when DIIS error is below 1.0E-05
 Warning!  Inaccurate integrated density:
   Number of electrons =     8
   Numerical integral  =     8.999981079523
   Relative error      =    12.4997634940 %
 ---------------------------------------
  Cycle       Energy         DIIS Error
 ---------------------------------------
    1     -55.1796889293      4.33E-02
    2     -54.8609752151      1.09E-02
    3     -54.9162535324      5.08E-03
    4     -54.9242541705      4.51E-04
    5     -54.9243568830      8.24E-05
    6     -54.9243631664      1.75E-05
    7     -54.9243635987      4.03E-06 Convergence criterion met
 ---------------------------------------
 One-Electron    Energy =   -85.9993311741
 Total Coulomb   Energy =    30.2896803198
 Alpha Exchange  Energy =    -1.2274666924
 Beta  Exchange  Energy =    -1.2274666924
 DFT   Exchange  Energy =    -3.9980492649
 DFT Correlation Energy =    -0.2531487510
 Nuclear Repu.   Energy =     7.4914186563
 Nuclear Attr.   Energy =  -140.7359776701
 Kinetic         Energy =    54.7366464960
 SCF time:  CPU 5.01 s  wall 14.41 s
 Final Alpha MO Eigenvalues
            1           2           3           4           5           6
    1 -14.7537679  -1.4914516  -1.0694189  -0.9292715  -0.4556051  -0.1805756
            7           8           9
    1  -0.1198753  -0.0555388  -0.0513937
 Analysis of SCF Wavefunction
 
 --------------------------------------------------------------
                    Orbital Energies (a.u.)
 --------------------------------------------------------------
 
 Alpha MOs
 -- Occupied --
-14.754  -1.491  -1.069  -0.929
 -- Virtual --
 -0.456  -0.181  -0.120  -0.056  -0.051  -0.033  -0.013   0.010
  0.027   0.285   0.328   0.399   0.410   0.457   0.476   0.522
  0.554   0.764   0.776   1.019   1.063   1.103   1.109   1.292
  1.441   1.601   2.256   2.290   3.025   3.090   3.168   3.177
  3.304   3.393   3.421   3.516   3.584   3.621   4.116   4.195
  4.278   4.380   4.604   4.610   4.771   4.801   5.128   5.505
  6.060  35.193  36.952  37.464  37.829  40.130  40.216  40.216
 40.237  40.299
 --------------------------------------------------------------
 
          Ground-State Mulliken Net Atomic Charges

     Atom                 Charge (a.u.)
  ----------------------------------------
      1 N                     0.418410
      2 H                     0.290796
      3 H                     0.290795
  ----------------------------------------
  Sum of atomic charges =     1.000000

 -----------------------------------------------------------------
                    Cartesian Multipole Moments
 -----------------------------------------------------------------
    Charge (ESU x 10^10)
                 4.8032
    Dipole Moment (Debye)
         X       2.2054      Y       0.0000      Z       1.7816
       Tot       2.8351
    Quadrupole Moments (Debye-Ang)
        XX      -3.8181     XY       0.0000     YY      -4.2592
        XZ      -0.7461     YZ       0.0000     ZZ      -3.4973
    Octapole Moments (Debye-Ang^2)
       XXX       1.5102    XXY       0.0000    XYY      -0.2709
       YYY       0.0000    XXZ      -0.8766    XYZ       0.0000
       YYZ      -0.2189    XZZ      -0.2574    YZZ       0.0000
       ZZZ       1.8887
    Hexadecapole Moments (Debye-Ang^3)
      XXXX      -4.0644   XXXY       0.0000   XXYY      -1.5992
      XYYY       0.0000   YYYY      -2.5440   XXXZ      -0.6503
      XXYZ       0.0000   XYYZ       0.0157   YYYZ       0.0000
      XXZZ      -2.2293   XYZZ       0.0000   YYZZ      -1.6060
      XZZZ      -0.0262   YZZZ       0.0000   ZZZZ      -3.7735
 -----------------------------------------------------------------
 Total job time:  15.53s(wall), 5.09s(cpu) 
 Fri Apr 15 15:22:56 2011

        *************************************************************
        *                                                           *
        *  Thank you very much for using Q-Chem.  Have a nice day.  *
        *                                                           *
        *************************************************************


0 sent ACK to 0 
now end server 0 ... 
