Process 0 of 1 is on cl244.stfx.acenet.ca - thread support 1
initial socket setup ...start
initial socket setup ...done 
now start server 0 ... 

cmd = /usr/bin/ssh clhead /usr/local/qchem/bin/get_hostid 865302320 > /globalscratch/itamblyn/bnl/g297_b3lyp_neut_g03Large_worked/g2g71043/omega1000/qchem31277/lic.dat
                  Welcome to Q-Chem
     A Quantum Leap Into The Future Of Chemistry

 Y. Shao, L. Fusti-Molnar, Y. Jung, J. Kussmann, C. Ochsenfeld,
 S. T. Brown, A. T. B. Gilbert, L. V. Slipchenko,S. V. Levchenko,
 D. P. O'Neill, R. A. DiStasio Jr., R. C. Lochan, T. Wang,
 G. J. O. Beran, N. A. Besley, J. M. Herbert, C. Y. Lin,
 T. Van Voorhis, S. H. Chien, A. Sodt, R. P. Steele, 
 V. A. Rassolov, P. E. Maslen, P. P. Korambath, R. D. Adamson,
 B. Austin, J. Baker, E. F. C. Byrd, H. Dachsel, R. J. Doerksen,
 A. Dreuw, B. D. Dunietz, A. D. Dutoi, T. R. Furlani,
 S. R. Gwaltney, A. Heyden, S. Hirata, C.-P. Hsu, G. Kedziora,
 R. Z. Khaliullin, P. Klunzinger, A. M. Lee, M. S. Lee, W. Liang,
 I. Lotan, N. Nair, B. Peters, E. I. Proynov, P. A. Pieniazek, 
 Y. M. Rhee, J. Ritchie, E. Rosta, C. D. Sherrill, 
 A. C. Simmonett, J. E. Subotnik, H. L. Woodcock III,
 W. Zhang, A. T. Bell, A. K. Chakraborty, D. M. Chipman,
 F. J. Keil, A. Warshel, W. J. Hehre, H. F. Schaefer III,
 J. Kong, A. I. Krylov, P. M. W. Gill, M. Head-Gordon,
 Q-Chem, Version 3.1, Q-Chem, Inc., Pittsburgh, PA (2007).

 Additional authors for Version 3.1: 
 Z. Gan, Y. Zhao, N. E. Schultz, D. Truhlar, E. Epifanovsky and M. Oana.

 Additional authors for Version 3.2: 
 R. Baer, B. R. Brooks, D. Casanova, J.-D. Chai, C.-L. Cheng, 
 C. Cramer, D. Crittenden, A. Ghysels, G. Hawkins, E. G. Hohenstein, 
 C. Kelley, W. Kurlancheek, D. Liotard, E. Livshits, P. Manohar, 
 A. Marenich, D. Neuhauser, R. Olson, M. A. Rohrdanz, K. S. Thanthiriwatte, 
 A. J. W. Thom, V. Vanovschi, C. F. Williams, Q. Wu and Z.-Q. You. 


 Intel X86 Linux Version

 Q-chem begins on Tue Apr 12 21:01:41 2011  

 Parallel job on  1  processors
Processing $rem in /usr/local/qchem/config/preferences.

theFileMan(): MAXOPENFILES=974 MAX_SUB_FILE_NUM=16
Maximum size of a physical file is 2.0 GB, maximum size of a tmp-file is 32.0 GB


--------------------------------------------------------------
User input:
--------------------------------------------------------------

$molecule
-1,2
Cl
Cl,1,R

R=2.04231295

$end

$comment
negative
$end

$xc_functional
   X HF 1.0
   X BNL 1.0
   C LYP 1.0
$end

$rem
SYMMETRY_DECOMPOSITION	0
exchange 		general
BASIS                   g3large
omega			1000
separate_jk		true
mem_static              760
max_scf_cycles          200
scf_final_print         1
sym_ignore              true
$end

--------------------------------------------------------------
 Writing REM_CC_EA            2
 ----------------------------------------------------
       Standard Nuclear Orientation (Angstroms)
    I     Atom         X            Y            Z
 ----------------------------------------------------
    1      Cl      0.000000     0.000000     0.000000
    2      Cl      0.000000     0.000000     2.042313
 ----------------------------------------------------
 Nuclear Repulsion Energy =    74.8818705386 hartrees
 There are       18 alpha and       17 beta electrons
 Requested basis set is G3large
 There are 38 shells and 132 basis functions

Total QAlloc Memory Limit   2000 MB
Mega-Array Size       743 MB
MEM_STATIC part       760 MB

                       Distance Matrix (Angstroms)
             Cl(  1)
   Cl(  2)  2.042313
 
 A cutoff of  1.0D-08 yielded    668 shell pairs
 There are   8369 function pairs ( 12060 Cartesian)
Evaluating contribution to one-electron hamiltonian from nuclear
 Smallest overlap matrix eigenvalue = 1.87E-03
 Multipole matrices computed through 2nd order

  Scale SEOQF with 1.000000e-01/1.000000e-01/1.000000e-01

 Standard Electronic Orientation quadrupole field applied
 Nucleus-field energy     =    -0.0000000076 hartrees
 Guess from superposition of atomic densities
 Warning:  Energy on first SCF cycle will be non-variational
 An unrestricted hybrid HF-DFT SCF calculation will be
 performed using Pulay DIIS extrapolation
 Exchange:     1.0000 Hartree-Fock + 1.0000 BNL
 Correlation:  1.0000 LYP
 Using SG-1 standard quadrature grid
 SCF converges when DIIS error is below 1.0E-05
 Warning!  Inaccurate integrated density:
   Number of electrons =    35
   Numerical integral  =    33.999662457378
   Relative error      =    -2.8581072646 %
 ---------------------------------------
  Cycle       Energy         DIIS Error
 ---------------------------------------
    1    -917.3268422354      2.66E-02
    2    -917.3057562845      2.86E-03
    3    -917.3329703191      1.50E-03
    4    -917.3362111151      2.88E-04
    5    -917.3367353560      9.68E-05
    6    -917.3369007728      4.14E-05
    7    -917.3369380000      1.60E-05
    8    -917.3369459812      5.02E-06 Convergence criterion met
 ---------------------------------------
 One-Electron    Energy = -1429.2317494707
 Total Coulomb   Energy =   490.6237863412
 Alpha Exchange  Energy =    -7.7708704186
 Beta  Exchange  Energy =    -7.4080983221
 DFT   Exchange  Energy =   -36.9911255899
 DFT Correlation Energy =    -1.4407590521
 Nuclear Repu.   Energy =    74.8818705310
 Nuclear Attr.   Energy = -2345.1445492617
 Kinetic         Energy =   915.9127997910
 <S^2> = 0.7615
 SCF time:  CPU 35.84 s  wall 48.56 s
 Final Alpha MO Eigenvalues
            1           2           3           4           5           6
    1-100.5650495-100.5650428  -9.4217306  -9.4216915  -7.2329469  -7.2327867
            7           8           9          10          11          12
    1  -7.2215373  -7.2215368  -7.2214942  -7.2214936  -0.9319695  -0.7654727
           13          14          15          16          17          18
    1  -0.3975896  -0.3150946  -0.3150925  -0.2035025  -0.2034989  -0.0834247
           19          20          21          22          23
    1   0.2535397   0.2546335   0.2712651   0.2712681   0.2973925
 Final Beta MO Eigenvalues
            1           2           3           4           5           6
    1-100.5607472-100.5607430  -9.4171510  -9.4170823  -7.2232133  -7.2230208
            7           8           9          10          11          12
    1  -7.2181393  -7.2181384  -7.2181355  -7.2181346  -0.8908397  -0.7171756
           13          14          15          16          17          18
    1  -0.3081458  -0.3013484  -0.3013429  -0.1906049  -0.1905969   0.2118310
           19          20          21          22
    1   0.2515905   0.2719595   0.2719603   0.2962684
 Analysis of SCF Wavefunction
 
 --------------------------------------------------------------
                    Orbital Energies (a.u.)
 --------------------------------------------------------------
 
 Alpha MOs
 -- Occupied --
*******-100.565  -9.422  -9.422  -7.233  -7.233  -7.222  -7.222
 -7.221  -7.221  -0.932  -0.765  -0.398  -0.315  -0.315  -0.204
 -0.203  -0.083
 -- Virtual --
  0.254   0.255   0.271   0.271   0.297   0.297   0.314   0.374
  0.569   0.569   0.576   0.576   0.644   0.692   0.692   0.694
  0.787   0.787   0.801   0.801   0.866   0.926   0.926   0.936
  1.173   1.408   1.408   1.423   1.423   1.452   1.478   1.478
  1.527   1.528   1.552   1.557   1.558   1.595   1.595   1.605
  1.605   1.733   1.781   1.781   1.849   1.849   1.951   2.137
  2.137   2.264   2.585   2.585   2.609   2.726   2.726   3.246
  4.866   4.866   4.867   4.867   4.909   4.909   4.911   4.960
  4.961   5.002   5.002   5.017   5.017   5.100   5.538   5.541
  5.567   5.570   5.592   5.592   5.619   5.619   5.632   6.036
 10.049  10.366  21.069  21.069  21.143  21.143  21.171  21.529
 27.672  27.685  27.710  27.770  27.783  27.784  27.784  27.803
 27.803  27.890  37.434  37.440  37.440  37.440  37.441  37.445
 37.445  37.454  37.454  37.455  37.455  37.460  37.460  37.476
216.519 216.968
 
 Beta MOs
 -- Occupied --
*******-100.561  -9.417  -9.417  -7.223  -7.223  -7.218  -7.218
 -7.218  -7.218  -0.891  -0.717  -0.308  -0.301  -0.301  -0.191
 -0.191
 -- Virtual --
  0.212   0.252   0.272   0.272   0.296   0.296   0.316   0.322
  0.373   0.571   0.571   0.588   0.588   0.667   0.693   0.693
  0.704   0.805   0.805   0.807   0.807   0.903   0.936   0.936
  0.959   1.191   1.416   1.416   1.428   1.428   1.468   1.479
  1.479   1.534   1.534   1.566   1.567   1.579   1.606   1.606
  1.616   1.616   1.748   1.798   1.798   1.855   1.855   1.959
  2.147   2.147   2.278   2.591   2.591   2.637   2.733   2.733
  3.267   4.873   4.873   4.882   4.883   4.916   4.916   4.933
  4.976   4.976   5.021   5.021   5.036   5.036   5.120   5.542
  5.544   5.571   5.573   5.600   5.600   5.628   5.628   5.641
  6.048  10.057  10.373  21.072  21.072  21.147  21.147  21.183
 21.541  27.675  27.689  27.719  27.773  27.787  27.791  27.791
 27.810  27.810  27.899  37.438  37.442  37.442  37.443  37.444
 37.447  37.447  37.457  37.457  37.459  37.459  37.463  37.463
 37.481 216.523 216.973
 --------------------------------------------------------------
 
          Ground-State Mulliken Net Atomic Charges

     Atom                 Charge (a.u.)    Spin (a.u.)
  --------------------------------------------------------
      1 Cl                   -0.499998       0.500004
      2 Cl                   -0.500002       0.499996
  --------------------------------------------------------
  Sum of atomic charges =    -1.000000
  Sum of spin   charges =     1.000000

 -----------------------------------------------------------------
                    Cartesian Multipole Moments
 -----------------------------------------------------------------
    Charge (ESU x 10^10)
                -4.8032
    Dipole Moment (Debye)
         X       0.0000      Y       0.0000      Z      -4.9048
       Tot       4.9048
    Quadrupole Moments (Debye-Ang)
        XX     -29.1658     XY      -0.0002     YY     -29.1658
        XZ       0.0007     YZ      -0.0014     ZZ     -43.0845
    Octapole Moments (Debye-Ang^2)
       XXX       0.0000    XXY       0.0000    XYY       0.0000
       YYY       0.0000    XXZ     -29.7829    XYZ      -0.0002
       YYZ     -29.7828    XZZ       0.0015    YZZ      -0.0030
       ZZZ    -121.7590
    Hexadecapole Moments (Debye-Ang^3)
      XXXX     -39.1000   XXXY      -0.0007   XXYY     -13.0339
      XYYY      -0.0007   YYYY     -39.0998   XXXZ       0.0022
      XXYZ      -0.0014   XYYZ       0.0007   YYYZ      -0.0044
      XXZZ     -78.3525   XYZZ      -0.0009   YYZZ     -78.3523
      XZZZ       0.0080   YZZZ      -0.0159   ZZZZ    -498.3662
 -----------------------------------------------------------------
 Total job time:  50.26s(wall), 36.02s(cpu) 
 Tue Apr 12 21:02:32 2011

        *************************************************************
        *                                                           *
        *  Thank you very much for using Q-Chem.  Have a nice day.  *
        *                                                           *
        *************************************************************


0 sent ACK to 0 
now end server 0 ... 
 
**********************************************************************
Job 2 of 3 
**********************************************************************
 
Process 0 of 1 is on cl244.stfx.acenet.ca - thread support 1
initial socket setup ...start
initial socket setup ...done 
now start server 0 ... 

cmd = /usr/bin/ssh clhead /usr/local/qchem/bin/get_hostid 861066227 > /globalscratch/itamblyn/bnl/g297_b3lyp_neut_g03Large_worked/g2g71043/omega1000/qchem31277/lic.dat
                  Welcome to Q-Chem
     A Quantum Leap Into The Future Of Chemistry

 Y. Shao, L. Fusti-Molnar, Y. Jung, J. Kussmann, C. Ochsenfeld,
 S. T. Brown, A. T. B. Gilbert, L. V. Slipchenko,S. V. Levchenko,
 D. P. O'Neill, R. A. DiStasio Jr., R. C. Lochan, T. Wang,
 G. J. O. Beran, N. A. Besley, J. M. Herbert, C. Y. Lin,
 T. Van Voorhis, S. H. Chien, A. Sodt, R. P. Steele, 
 V. A. Rassolov, P. E. Maslen, P. P. Korambath, R. D. Adamson,
 B. Austin, J. Baker, E. F. C. Byrd, H. Dachsel, R. J. Doerksen,
 A. Dreuw, B. D. Dunietz, A. D. Dutoi, T. R. Furlani,
 S. R. Gwaltney, A. Heyden, S. Hirata, C.-P. Hsu, G. Kedziora,
 R. Z. Khaliullin, P. Klunzinger, A. M. Lee, M. S. Lee, W. Liang,
 I. Lotan, N. Nair, B. Peters, E. I. Proynov, P. A. Pieniazek, 
 Y. M. Rhee, J. Ritchie, E. Rosta, C. D. Sherrill, 
 A. C. Simmonett, J. E. Subotnik, H. L. Woodcock III,
 W. Zhang, A. T. Bell, A. K. Chakraborty, D. M. Chipman,
 F. J. Keil, A. Warshel, W. J. Hehre, H. F. Schaefer III,
 J. Kong, A. I. Krylov, P. M. W. Gill, M. Head-Gordon,
 Q-Chem, Version 3.1, Q-Chem, Inc., Pittsburgh, PA (2007).

 Additional authors for Version 3.1: 
 Z. Gan, Y. Zhao, N. E. Schultz, D. Truhlar, E. Epifanovsky and M. Oana.

 Additional authors for Version 3.2: 
 R. Baer, B. R. Brooks, D. Casanova, J.-D. Chai, C.-L. Cheng, 
 C. Cramer, D. Crittenden, A. Ghysels, G. Hawkins, E. G. Hohenstein, 
 C. Kelley, W. Kurlancheek, D. Liotard, E. Livshits, P. Manohar, 
 A. Marenich, D. Neuhauser, R. Olson, M. A. Rohrdanz, K. S. Thanthiriwatte, 
 A. J. W. Thom, V. Vanovschi, C. F. Williams, Q. Wu and Z.-Q. You. 


 Intel X86 Linux Version

 Q-chem begins on Tue Apr 12 21:02:35 2011  

 Parallel job on  1  processors
Processing $rem in /usr/local/qchem/config/preferences.

theFileMan(): MAXOPENFILES=974 MAX_SUB_FILE_NUM=16
Maximum size of a physical file is 2.0 GB, maximum size of a tmp-file is 32.0 GB


--------------------------------------------------------------
User input:
--------------------------------------------------------------

$molecule
0,1
Cl
Cl,1,R

R=2.04231295

$end

$comment
neutral
$end

$xc_functional
   X HF 1.0
   X BNL 1.0
   C LYP 1.0
$end

$rem
SYMMETRY_DECOMPOSITION	0
exchange 		general
BASIS                   g3large
omega			1000
separate_jk		true
mem_static              760
max_scf_cycles          200
scf_final_print         1
sym_ignore              true
$end

--------------------------------------------------------------
 Writing REM_CC_EA            2
 ----------------------------------------------------
       Standard Nuclear Orientation (Angstroms)
    I     Atom         X            Y            Z
 ----------------------------------------------------
    1      Cl      0.000000     0.000000     0.000000
    2      Cl      0.000000     0.000000     2.042313
 ----------------------------------------------------
 Nuclear Repulsion Energy =    74.8818705386 hartrees
 There are       17 alpha and       17 beta electrons
 Requested basis set is G3large
 There are 38 shells and 132 basis functions

Total QAlloc Memory Limit   2000 MB
Mega-Array Size       743 MB
MEM_STATIC part       760 MB

                       Distance Matrix (Angstroms)
             Cl(  1)
   Cl(  2)  2.042313
 
 A cutoff of  1.0D-08 yielded    668 shell pairs
 There are   8369 function pairs ( 12060 Cartesian)
Evaluating contribution to one-electron hamiltonian from nuclear
 Smallest overlap matrix eigenvalue = 1.87E-03
 Multipole matrices computed through 2nd order

  Scale SEOQF with 1.000000e-01/1.000000e-01/1.000000e-01

 Standard Electronic Orientation quadrupole field applied
 Nucleus-field energy     =    -0.0000000076 hartrees
 Guess from superposition of atomic densities
 Warning:  Energy on first SCF cycle will be non-variational
 A restricted hybrid HF-DFT SCF calculation will be
 performed using Pulay DIIS extrapolation
 Exchange:     1.0000 Hartree-Fock + 1.0000 BNL
 Correlation:  1.0000 LYP
 Using SG-1 standard quadrature grid
 SCF converges when DIIS error is below 1.0E-05
 ---------------------------------------
  Cycle       Energy         DIIS Error
 ---------------------------------------
    1    -917.3268422354      2.66E-02
    2    -917.2655591637      3.20E-03
    3    -917.2831112711      1.63E-03
    4    -917.2866656378      2.92E-04
    5    -917.2872636818      1.07E-04
    6    -917.2873888130      3.49E-05
    7    -917.2874006742      9.72E-06 Convergence criterion met
 ---------------------------------------
 One-Electron    Energy = -1419.0138043119
 Total Coulomb   Energy =   480.1139062978
 Alpha Exchange  Energy =    -7.4674708116
 Beta  Exchange  Energy =    -7.4674708116
 DFT   Exchange  Energy =   -36.9209133129
 DFT Correlation Energy =    -1.4135182550
 Nuclear Repu.   Energy =    74.8818705310
 Nuclear Attr.   Energy = -2334.2111159163
 Kinetic         Energy =   915.1973116043
 SCF time:  CPU 27.94 s  wall 32.44 s
 Final Alpha MO Eigenvalues
            1           2           3           4           5           6
    1-100.8847180-100.8847135  -9.7352526  -9.7351733  -7.5504106  -7.5502134
            7           8           9          10          11          12
    1  -7.5332323  -7.5332308  -7.5332286  -7.5332271  -1.2023477  -1.0202007
           13          14          15          16          17          18
    1  -0.6162608  -0.5882404  -0.5882359  -0.4757037  -0.4757002  -0.0214127
           19          20          21          22
    1   0.0854060   0.1062477   0.1117489   0.1117504
 Analysis of SCF Wavefunction
 
 --------------------------------------------------------------
                    Orbital Energies (a.u.)
 --------------------------------------------------------------
 
 Alpha MOs
 -- Occupied --
*******-100.885  -9.735  -9.735  -7.550  -7.550  -7.533  -7.533
 -7.533  -7.533  -1.202  -1.020  -0.616  -0.588  -0.588  -0.476
 -0.476
 -- Virtual --
 -0.021   0.085   0.106   0.112   0.112   0.134   0.145   0.145
  0.213   0.326   0.326   0.328   0.328   0.419   0.451   0.451
  0.489   0.565   0.565   0.577   0.577   0.644   0.696   0.696
  0.710   0.924   1.137   1.137   1.165   1.165   1.189   1.228
  1.228   1.253   1.253   1.287   1.288   1.290   1.326   1.326
  1.355   1.355   1.471   1.510   1.510   1.593   1.593   1.693
  1.884   1.884   1.998   2.314   2.314   2.333   2.452   2.452
  2.967   4.576   4.577   4.582   4.582   4.616   4.625   4.625
  4.671   4.671   4.706   4.706   4.724   4.724   4.802   5.243
  5.245   5.272   5.275   5.290   5.290   5.316   5.316   5.331
  5.729   9.745  10.065  20.759  20.759  20.833  20.833  20.857
 21.215  27.362  27.376  27.395  27.460  27.470  27.470  27.474
 27.489  27.489  27.574  37.116  37.126  37.126  37.130  37.130
 37.135  37.135  37.139  37.139  37.139  37.140  37.143  37.143
 37.158 216.201 216.650
 --------------------------------------------------------------
 
          Ground-State Mulliken Net Atomic Charges

     Atom                 Charge (a.u.)
  ----------------------------------------
      1 Cl                   -0.000002
      2 Cl                    0.000002
  ----------------------------------------
  Sum of atomic charges =     0.000000

 -----------------------------------------------------------------
                    Cartesian Multipole Moments
 -----------------------------------------------------------------
    Charge (ESU x 10^10)
                 0.0000
    Dipole Moment (Debye)
         X       0.0000      Y       0.0000      Z       0.0000
       Tot       0.0000
    Quadrupole Moments (Debye-Ang)
        XX     -25.3525     XY      -0.0001     YY     -25.3525
        XZ       0.0002     YZ      -0.0004     ZZ     -21.9598
    Octapole Moments (Debye-Ang^2)
       XXX       0.0001    XXY       0.0000    XYY       0.0000
       YYY       0.0000    XXZ     -25.8889    XYZ      -0.0001
       YYZ     -25.8889    XZZ       0.0004    YZZ      -0.0007
       ZZZ     -67.2733
    Hexadecapole Moments (Debye-Ang^3)
      XXXX     -28.2328   XXXY      -0.0004   XXYY      -9.4115
      XYYY      -0.0004   YYYY     -28.2327   XXXZ       0.0000
      XXYZ       0.0000   XYYZ       0.0000   YYYZ       0.0000
      XXZZ     -62.0088   XYZZ      -0.0005   YYZZ     -62.0087
      XZZZ       0.0022   YZZZ      -0.0041   ZZZZ    -292.8498
 -----------------------------------------------------------------
 Total job time:  34.29s(wall), 28.10s(cpu) 
 Tue Apr 12 21:03:09 2011

        *************************************************************
        *                                                           *
        *  Thank you very much for using Q-Chem.  Have a nice day.  *
        *                                                           *
        *************************************************************


0 sent ACK to 0 
now end server 0 ... 
 
**********************************************************************
Job 3 of 3 
**********************************************************************
 
Process 0 of 1 is on cl244.stfx.acenet.ca - thread support 1
initial socket setup ...start
initial socket setup ...done 
now start server 0 ... 

cmd = /usr/bin/ssh clhead /usr/local/qchem/bin/get_hostid 41094397 > /globalscratch/itamblyn/bnl/g297_b3lyp_neut_g03Large_worked/g2g71043/omega1000/qchem31277/lic.dat
                  Welcome to Q-Chem
     A Quantum Leap Into The Future Of Chemistry

 Y. Shao, L. Fusti-Molnar, Y. Jung, J. Kussmann, C. Ochsenfeld,
 S. T. Brown, A. T. B. Gilbert, L. V. Slipchenko,S. V. Levchenko,
 D. P. O'Neill, R. A. DiStasio Jr., R. C. Lochan, T. Wang,
 G. J. O. Beran, N. A. Besley, J. M. Herbert, C. Y. Lin,
 T. Van Voorhis, S. H. Chien, A. Sodt, R. P. Steele, 
 V. A. Rassolov, P. E. Maslen, P. P. Korambath, R. D. Adamson,
 B. Austin, J. Baker, E. F. C. Byrd, H. Dachsel, R. J. Doerksen,
 A. Dreuw, B. D. Dunietz, A. D. Dutoi, T. R. Furlani,
 S. R. Gwaltney, A. Heyden, S. Hirata, C.-P. Hsu, G. Kedziora,
 R. Z. Khaliullin, P. Klunzinger, A. M. Lee, M. S. Lee, W. Liang,
 I. Lotan, N. Nair, B. Peters, E. I. Proynov, P. A. Pieniazek, 
 Y. M. Rhee, J. Ritchie, E. Rosta, C. D. Sherrill, 
 A. C. Simmonett, J. E. Subotnik, H. L. Woodcock III,
 W. Zhang, A. T. Bell, A. K. Chakraborty, D. M. Chipman,
 F. J. Keil, A. Warshel, W. J. Hehre, H. F. Schaefer III,
 J. Kong, A. I. Krylov, P. M. W. Gill, M. Head-Gordon,
 Q-Chem, Version 3.1, Q-Chem, Inc., Pittsburgh, PA (2007).

 Additional authors for Version 3.1: 
 Z. Gan, Y. Zhao, N. E. Schultz, D. Truhlar, E. Epifanovsky and M. Oana.

 Additional authors for Version 3.2: 
 R. Baer, B. R. Brooks, D. Casanova, J.-D. Chai, C.-L. Cheng, 
 C. Cramer, D. Crittenden, A. Ghysels, G. Hawkins, E. G. Hohenstein, 
 C. Kelley, W. Kurlancheek, D. Liotard, E. Livshits, P. Manohar, 
 A. Marenich, D. Neuhauser, R. Olson, M. A. Rohrdanz, K. S. Thanthiriwatte, 
 A. J. W. Thom, V. Vanovschi, C. F. Williams, Q. Wu and Z.-Q. You. 


 Intel X86 Linux Version

 Q-chem begins on Tue Apr 12 21:03:13 2011  

 Parallel job on  1  processors
Processing $rem in /usr/local/qchem/config/preferences.

theFileMan(): MAXOPENFILES=974 MAX_SUB_FILE_NUM=16
Maximum size of a physical file is 2.0 GB, maximum size of a tmp-file is 32.0 GB


--------------------------------------------------------------
User input:
--------------------------------------------------------------

$molecule
1,2
Cl
Cl,1,R

R=2.04231295

$end

$comment
positive
$end

$xc_functional
   X HF 1.0
   X BNL 1.0
   C LYP 1.0
$end

$rem
SYMMETRY_DECOMPOSITION	0
exchange 		general
BASIS                   g3large
omega			1000
separate_jk		true
mem_static              760
max_scf_cycles          200
scf_final_print         1
sym_ignore              true
$end

--------------------------------------------------------------
 Writing REM_CC_EA            2
 ----------------------------------------------------
       Standard Nuclear Orientation (Angstroms)
    I     Atom         X            Y            Z
 ----------------------------------------------------
    1      Cl      0.000000     0.000000     0.000000
    2      Cl      0.000000     0.000000     2.042313
 ----------------------------------------------------
 Nuclear Repulsion Energy =    74.8818705386 hartrees
 There are       17 alpha and       16 beta electrons
 Requested basis set is G3large
 There are 38 shells and 132 basis functions

Total QAlloc Memory Limit   2000 MB
Mega-Array Size       743 MB
MEM_STATIC part       760 MB

                       Distance Matrix (Angstroms)
             Cl(  1)
   Cl(  2)  2.042313
 
 A cutoff of  1.0D-08 yielded    668 shell pairs
 There are   8369 function pairs ( 12060 Cartesian)
Evaluating contribution to one-electron hamiltonian from nuclear
 Smallest overlap matrix eigenvalue = 1.87E-03
 Multipole matrices computed through 2nd order

  Scale SEOQF with 1.000000e-01/1.000000e-01/1.000000e-01

 Standard Electronic Orientation quadrupole field applied
 Nucleus-field energy     =    -0.0000000076 hartrees
 Guess from superposition of atomic densities
 Warning:  Energy on first SCF cycle will be non-variational
 An unrestricted hybrid HF-DFT SCF calculation will be
 performed using Pulay DIIS extrapolation
 Exchange:     1.0000 Hartree-Fock + 1.0000 BNL
 Correlation:  1.0000 LYP
 Using SG-1 standard quadrature grid
 SCF converges when DIIS error is below 1.0E-05
 Warning!  Inaccurate integrated density:
   Number of electrons =    33
   Numerical integral  =    33.999662457378
   Relative error      =     3.0292801739 %
 ---------------------------------------
  Cycle       Energy         DIIS Error
 ---------------------------------------
    1    -917.3268422354      2.66E-02
    2    -916.7651379583      5.11E-03
    3    -916.8275432037      2.62E-03
    4    -916.8355336482      3.34E-04
    5    -916.8365349786      1.36E-04
    6    -916.8368524228      7.04E-05
    7    -916.8369564429      3.70E-05
    8    -916.8370081915      1.97E-05
    9    -916.8370508849      1.30E-05
   10    -916.8370982500      8.39E-06 Convergence criterion met
 ---------------------------------------
 One-Electron    Energy = -1407.6844615952
 Total Coulomb   Energy =   468.8253218845
 Alpha Exchange  Energy =    -7.5257136579
 Beta  Exchange  Energy =    -7.1094979066
 DFT   Exchange  Energy =   -36.8461807314
 DFT Correlation Energy =    -1.3784367745
 Nuclear Repu.   Energy =    74.8818705310
 Nuclear Attr.   Energy = -2322.2549188853
 Kinetic         Energy =   914.5704572901
 <S^2> = 0.7678
 SCF time:  CPU 44.75 s  wall 63.42 s
 Final Alpha MO Eigenvalues
            1           2           3           4           5           6
    1-101.2416649-101.2415034 -10.0853304 -10.0851805  -7.8980184  -7.8977854
            7           8           9          10          11          12
    1  -7.8940080  -7.8938817  -7.8794259  -7.8792998  -1.5330411  -1.3572894
           13          14          15          16          17          18
    1  -0.9307832  -0.9295280  -0.8958863  -0.8273488  -0.7871644  -0.3160602
           19          20          21          22
    1  -0.1083877  -0.0624121  -0.0621715  -0.0576368
 Final Beta MO Eigenvalues
            1           2           3           4           5           6
    1-101.2371926-101.2370317 -10.0807176 -10.0805204  -7.8951465  -7.8949020
            7           8           9          10          11          12
    1  -7.8827525  -7.8826247  -7.8758255  -7.8756982  -1.4963035  -1.2947574
           13          14          15          16          17          18
    1  -0.9165435  -0.8873829  -0.7896740  -0.7756402  -0.4269721  -0.3035801
           19          20          21
    1  -0.1086437  -0.0618104  -0.0587128
 Analysis of SCF Wavefunction
 
 --------------------------------------------------------------
                    Orbital Energies (a.u.)
 --------------------------------------------------------------
 
 Alpha MOs
 -- Occupied --
*******-101.242 -10.085 -10.085  -7.898  -7.898  -7.894  -7.894
 -7.879  -7.879  -1.533  -1.357  -0.931  -0.930  -0.896  -0.827
 -0.787
 -- Virtual --
 -0.316  -0.108  -0.062  -0.062  -0.058  -0.048  -0.017  -0.014
  0.037   0.044   0.054   0.054   0.055   0.173   0.174   0.174
  0.277   0.301   0.317   0.330   0.343   0.385   0.434   0.449
  0.454   0.646   0.841   0.857   0.883   0.884   0.898   0.931
  0.935   0.944   0.944   0.968   0.973   0.997   1.015   1.034
  1.070   1.070   1.192   1.196   1.215   1.307   1.307   1.408
  1.595   1.614   1.704   1.990   2.016   2.026   2.130   2.153
  2.664   4.237   4.237   4.240   4.241   4.281   4.281   4.282
  4.337   4.342   4.365   4.386   4.389   4.409   4.476   4.900
  4.902   4.930   4.932   4.947   4.964   4.972   4.989   5.002
  5.396   9.403   9.724  20.399  20.415  20.474  20.489  20.512
 20.870  27.008  27.022  27.046  27.107  27.115  27.120  27.126
 27.134  27.145  27.226  36.767  36.776  36.776  36.777  36.779
 36.782  36.784  36.785  36.790  36.790  36.792  36.796  36.801
 36.812 215.845 216.295
 
 Beta MOs
 -- Occupied --
*******-101.237 -10.081 -10.081  -7.895  -7.895  -7.883  -7.883
 -7.876  -7.876  -1.496  -1.295  -0.917  -0.887  -0.790  -0.776
 -- Virtual --
 -0.427  -0.304  -0.109  -0.062  -0.059  -0.057  -0.046  -0.014
 -0.013   0.045   0.055   0.070   0.070   0.070   0.183   0.201
  0.201   0.279   0.318   0.328   0.345   0.349   0.392   0.450
  0.453   0.458   0.651   0.853   0.859   0.888   0.889   0.909
  0.953   0.953   0.957   0.957   0.996   0.996   1.002   1.035
  1.037   1.081   1.081   1.197   1.214   1.217   1.315   1.316
  1.416   1.608   1.616   1.710   2.020   2.021   2.030   2.155
  2.157   2.668   4.257   4.257   4.262   4.262   4.298   4.305
  4.306   4.353   4.353   4.384   4.392   4.404   4.412   4.485
  4.911   4.913   4.941   4.943   4.956   4.966   4.982   4.991
  5.006   5.401   9.411   9.733  20.412  20.420  20.487  20.495
 20.515  20.873  27.017  27.031  27.051  27.115  27.123  27.128
 27.129  27.142  27.147  27.231  36.770  36.779  36.780  36.781
 36.783  36.786  36.788  36.789  36.793  36.793  36.795  36.797
 36.802  36.814 215.850 216.300
 --------------------------------------------------------------
 
          Ground-State Mulliken Net Atomic Charges

     Atom                 Charge (a.u.)    Spin (a.u.)
  --------------------------------------------------------
      1 Cl                    0.499928       0.499970
      2 Cl                    0.500072       0.500030
  --------------------------------------------------------
  Sum of atomic charges =     1.000000
  Sum of spin   charges =     1.000000

 -----------------------------------------------------------------
                    Cartesian Multipole Moments
 -----------------------------------------------------------------
    Charge (ESU x 10^10)
                 4.8032
    Dipole Moment (Debye)
         X       0.0000      Y       0.0000      Z       4.9056
       Tot       4.9056
    Quadrupole Moments (Debye-Ang)
        XX     -21.8058     XY      -0.7913     YY     -21.7307
        XZ       0.0139     YZ      -0.0146     ZZ      -7.0807
    Octapole Moments (Debye-Ang^2)
       XXX       0.0000    XXY       0.0000    XYY       0.0000
       YYY       0.0000    XXZ     -22.2671    XYZ      -0.8081
       YYZ     -22.1904    XZZ       0.0284    YZZ      -0.0299
       ZZZ     -31.9216
    Hexadecapole Moments (Debye-Ang^3)
      XXXX     -21.2500   XXXY      -0.5528   XXYY      -7.0674
      XYYY      -0.5526   YYYY     -21.1452   XXXZ       0.0118
      XXYZ      -0.0044   XYYZ       0.0043   YYYZ      -0.0125
      XXZZ     -51.0882   XYZZ      -2.2731   YYZZ     -50.8726
      XZZZ       0.0992   YZZZ      -0.1043   ZZZZ    -192.8801
 -----------------------------------------------------------------
 Total job time:  64.57s(wall), 44.92s(cpu) 
 Tue Apr 12 21:04:17 2011

        *************************************************************
        *                                                           *
        *  Thank you very much for using Q-Chem.  Have a nice day.  *
        *                                                           *
        *************************************************************


0 sent ACK to 0 
now end server 0 ... 
