Process 0 of 1 is on cl213.stfx.acenet.ca - thread support 1
initial socket setup ...start
initial socket setup ...done 
now start server 0 ... 

cmd = /usr/bin/ssh clhead /usr/local/qchem/bin/get_hostid 867149258 > /globalscratch/itamblyn/bnl/g297_b3lyp_neut_g03Large/g2g71031/omega600/qchem9187/lic.dat
                  Welcome to Q-Chem
     A Quantum Leap Into The Future Of Chemistry

 Y. Shao, L. Fusti-Molnar, Y. Jung, J. Kussmann, C. Ochsenfeld,
 S. T. Brown, A. T. B. Gilbert, L. V. Slipchenko,S. V. Levchenko,
 D. P. O'Neill, R. A. DiStasio Jr., R. C. Lochan, T. Wang,
 G. J. O. Beran, N. A. Besley, J. M. Herbert, C. Y. Lin,
 T. Van Voorhis, S. H. Chien, A. Sodt, R. P. Steele, 
 V. A. Rassolov, P. E. Maslen, P. P. Korambath, R. D. Adamson,
 B. Austin, J. Baker, E. F. C. Byrd, H. Dachsel, R. J. Doerksen,
 A. Dreuw, B. D. Dunietz, A. D. Dutoi, T. R. Furlani,
 S. R. Gwaltney, A. Heyden, S. Hirata, C.-P. Hsu, G. Kedziora,
 R. Z. Khaliullin, P. Klunzinger, A. M. Lee, M. S. Lee, W. Liang,
 I. Lotan, N. Nair, B. Peters, E. I. Proynov, P. A. Pieniazek, 
 Y. M. Rhee, J. Ritchie, E. Rosta, C. D. Sherrill, 
 A. C. Simmonett, J. E. Subotnik, H. L. Woodcock III,
 W. Zhang, A. T. Bell, A. K. Chakraborty, D. M. Chipman,
 F. J. Keil, A. Warshel, W. J. Hehre, H. F. Schaefer III,
 J. Kong, A. I. Krylov, P. M. W. Gill, M. Head-Gordon,
 Q-Chem, Version 3.1, Q-Chem, Inc., Pittsburgh, PA (2007).

 Additional authors for Version 3.1: 
 Z. Gan, Y. Zhao, N. E. Schultz, D. Truhlar, E. Epifanovsky and M. Oana.

 Additional authors for Version 3.2: 
 R. Baer, B. R. Brooks, D. Casanova, J.-D. Chai, C.-L. Cheng, 
 C. Cramer, D. Crittenden, A. Ghysels, G. Hawkins, E. G. Hohenstein, 
 C. Kelley, W. Kurlancheek, D. Liotard, E. Livshits, P. Manohar, 
 A. Marenich, D. Neuhauser, R. Olson, M. A. Rohrdanz, K. S. Thanthiriwatte, 
 A. J. W. Thom, V. Vanovschi, C. F. Williams, Q. Wu and Z.-Q. You. 


 Intel X86 Linux Version

 Q-chem begins on Mon Apr 11 17:41:31 2011  

 Parallel job on  1  processors
Processing $rem in /usr/local/qchem/config/preferences.

theFileMan(): MAXOPENFILES=974 MAX_SUB_FILE_NUM=16
Maximum size of a physical file is 2.0 GB, maximum size of a tmp-file is 32.0 GB


--------------------------------------------------------------
User input:
--------------------------------------------------------------

$molecule
-1,2
C
O,1,AB
H,1,AH3,2,H3AB
H,2,BH9,1,H9BA,3,180.,0
X,1,1.,2,BAH12,3,180.,0
H,1,AH1,5,H1AH2,2,90.,0
H,1,AH1,5,H1AH2,2,-90.,0

AB=1.41919435
AH1=1.10117667
AH3=1.09346715
BH9=0.96865998
H1AH2=54.22417123
BAH12=131.27350844
H3AB=106.64369205
H9BA=107.57953769

$end

$comment
negative
$end

$xc_functional
   X HF 1.0
   X BNL 1.0
   C LYP 1.0
$end

$rem
SYMMETRY_DECOMPOSITION	0
exchange 		general
BASIS                   g3large
omega			600
separate_jk		true
mem_static              760
max_scf_cycles          200
scf_final_print         1
sym_ignore              true
$end

--------------------------------------------------------------
 Writing REM_CC_EA            6
 ----------------------------------------------------
       Standard Nuclear Orientation (Angstroms)
    I     Atom         X            Y            Z
 ----------------------------------------------------
    1      C       0.000000     0.000000     0.000000
    2      O       0.000000     0.000000     1.419194
    3      H       1.047656     0.000000    -0.313190
    4      H      -0.923422     0.000000     1.711758
    5      H      -0.483834    -0.893396    -0.424662
    6      H      -0.483834     0.893396    -0.424662
 ----------------------------------------------------
 Nuclear Repulsion Energy =    40.2120470818 hartrees
 There are       10 alpha and        9 beta electrons
 Requested basis set is G3large
 There are 44 shells and 124 basis functions

Total QAlloc Memory Limit   2000 MB
Mega-Array Size       743 MB
MEM_STATIC part       760 MB

                       Distance Matrix (Angstroms)
             C (  1)   O (  2)   H (  3)   H (  4)   H (  5)
   O (  2)  1.419194
   H (  3)  1.093467  2.024534
   H (  4)  1.944949  0.968660  2.825874
   H (  5)  1.101177  2.105246  1.776526  2.357050
   H (  6)  1.101177  2.105246  1.776526  2.357050  1.786792
 
 A cutoff of  1.0D-08 yielded    984 shell pairs
 There are   7854 function pairs (  9481 Cartesian)
Evaluating contribution to one-electron hamiltonian from nuclear
 Smallest overlap matrix eigenvalue = 7.96E-04
 Multipole matrices computed through 2nd order

  Scale SEOQF with 1.000000e-01/1.000000e-01/1.000000e-01

 Standard Electronic Orientation quadrupole field applied
 Nucleus-field energy     =    -0.0000000019 hartrees
 Guess from superposition of atomic densities
 Warning:  Energy on first SCF cycle will be non-variational
 An unrestricted hybrid HF-DFT SCF calculation will be
 performed using Pulay DIIS extrapolation
 Exchange:     1.0000 Hartree-Fock + 1.0000 BNL
 Correlation:  1.0000 LYP
 Using SG-1 standard quadrature grid
 SCF converges when DIIS error is below 1.0E-05
 Warning!  Inaccurate integrated density:
   Number of electrons =    19
   Numerical integral  =    18.000036548586
   Relative error      =    -5.2629655338 %
 ---------------------------------------
  Cycle       Energy         DIIS Error
 ---------------------------------------
    1    -115.0106811807      3.93E-02
    2    -114.6145070021      6.03E-03
    3    -114.6471171577      5.71E-03
    4    -114.6883315013      5.50E-04
    5    -114.6907060587      2.18E-04
    6    -114.6914687109      1.04E-04
    7    -114.6918283946      6.19E-05
    8    -114.6920799904      3.92E-05
    9    -114.6922375508      2.29E-05
   10    -114.6923110840      1.03E-05
   11    -114.6923242799      4.90E-06 Convergence criterion met
 ---------------------------------------
 One-Electron    Energy =  -239.4435401841
 Total Coulomb   Energy =    99.0292005886
 Alpha Exchange  Energy =    -2.5327448482
 Beta  Exchange  Energy =    -2.4582661840
 DFT   Exchange  Energy =    -8.8969524335
 DFT Correlation Energy =    -0.6020682987
 Nuclear Repu.   Energy =    40.2120470800
 Nuclear Attr.   Energy =  -353.5820569150
 Kinetic         Energy =   114.1385167310
 <S^2> = 0.7501
 SCF time:  CPU 44.48 s  wall 92.48 s
 Final Alpha MO Eigenvalues
            1           2           3           4           5           6
    1 -18.7340010  -9.9757787  -1.0722481  -0.7222422  -0.5248311  -0.4531872
            7           8           9          10          11          12
    1  -0.4374100  -0.3414680  -0.2830550   0.0331376   0.1530439   0.1679412
           13          14          15
    1   0.1751714   0.2359875   0.2634608
 Final Beta MO Eigenvalues
            1           2           3           4           5           6
    1 -18.7334790  -9.9749386  -1.0711082  -0.7192693  -0.5222622  -0.4525539
            7           8           9          10          11          12
    1  -0.4362510  -0.3407742  -0.2824125   0.1373486   0.1585793   0.1731443
           13          14
    1   0.1747558   0.2262580
 Analysis of SCF Wavefunction
 
 --------------------------------------------------------------
                    Orbital Energies (a.u.)
 --------------------------------------------------------------
 
 Alpha MOs
 -- Occupied --
-18.734  -9.976  -1.072  -0.722  -0.525  -0.453  -0.437  -0.341
 -0.283   0.033
 -- Virtual --
  0.153   0.168   0.175   0.236   0.263   0.268   0.288   0.384
  0.392   0.397   0.401   0.424   0.432   0.455   0.491   0.568
  0.667   0.675   0.767   0.806   0.811   0.838   0.866   0.867
  0.889   0.977   1.029   1.116   1.147   1.239   1.271   1.302
  1.368   1.396   1.408   1.436   1.486   1.556   1.589   1.621
  1.695   1.717   1.738   1.805   1.857   2.143   2.278   2.304
  2.489   2.545   2.707   2.743   2.825   3.108   3.255   3.362
  3.422   3.425   3.437   3.486   3.599   3.634   3.684   3.719
  3.830   3.936   4.034   4.123   4.152   4.195   4.372   4.475
  4.483   4.543   4.605   4.648   4.666   4.711   5.231   5.289
  5.461   5.492   5.643   5.795   5.869   5.893   5.927   6.122
  6.244   6.722   7.286   7.448   7.493   7.516   7.787   7.949
 24.694  28.322  28.357  28.388  41.195  41.242  41.456  41.496
 41.542  44.065  44.069  44.124  44.150  44.223  46.016  46.320
 46.710  50.371
 
 Beta MOs
 -- Occupied --
-18.733  -9.975  -1.071  -0.719  -0.522  -0.453  -0.436  -0.341
 -0.282
 -- Virtual --
  0.137   0.159   0.173   0.175   0.226   0.257   0.258   0.283
  0.378   0.385   0.389   0.393   0.415   0.423   0.446   0.486
  0.562   0.662   0.671   0.761   0.803   0.805   0.832   0.864
  0.865   0.884   0.976   1.025   1.113   1.146   1.238   1.269
  1.301   1.366   1.394   1.405   1.433   1.484   1.554   1.588
  1.620   1.692   1.714   1.735   1.803   1.855   2.143   2.278
  2.304   2.489   2.544   2.706   2.742   2.824   3.107   3.255
  3.362   3.423   3.425   3.438   3.487   3.599   3.634   3.684
  3.720   3.832   3.937   4.034   4.123   4.152   4.195   4.372
  4.475   4.483   4.543   4.604   4.648   4.666   4.711   5.231
  5.289   5.462   5.493   5.644   5.795   5.869   5.894   5.927
  6.123   6.244   6.723   7.287   7.448   7.493   7.517   7.788
  7.950  24.696  28.323  28.358  28.389  41.196  41.243  41.456
 41.497  41.543  44.065  44.069  44.124  44.151  44.224  46.016
 46.321  46.710  50.371
 --------------------------------------------------------------
 
          Ground-State Mulliken Net Atomic Charges

     Atom                 Charge (a.u.)    Spin (a.u.)
  --------------------------------------------------------
      1 C                     2.904617      -3.066910
      2 O                    -0.538458       0.140323
      3 H                    -0.594359       0.677469
      4 H                    -0.426402       0.710298
      5 H                    -1.172362       1.269055
      6 H                    -1.173035       1.269766
  --------------------------------------------------------
  Sum of atomic charges =    -1.000000
  Sum of spin   charges =     1.000000

 -----------------------------------------------------------------
                    Cartesian Multipole Moments
 -----------------------------------------------------------------
    Charge (ESU x 10^10)
                -4.8032
    Dipole Moment (Debye)
         X       3.5897      Y      -0.0014      Z      -1.2891
       Tot       3.8142
    Quadrupole Moments (Debye-Ang)
        XX     -37.2776     XY       0.0022     YY     -37.5442
        XZ       0.5805     YZ       0.0013     ZZ     -39.0506
    Octapole Moments (Debye-Ang^2)
       XXX      48.4116    XXY      -0.0058    XYY      20.5924
       YYY      -0.0153    XXZ      -9.6898    XYZ      -0.0008
       YYZ      -5.2092    XZZ      18.3328    YZZ      -0.0053
       ZZZ     -32.8273
    Hexadecapole Moments (Debye-Ang^3)
      XXXX    -310.3094   XXXY       0.0170   XXYY    -101.6661
      XYYY       0.0186   YYYY    -288.5919   XXXZ      34.6668
      XXYZ       0.0036   XYYZ       8.3860   YYYZ       0.0124
      XXZZ    -120.1884   XYZZ       0.0060   YYZZ    -112.8818
      XZZZ      32.4358   YZZZ       0.0102   ZZZZ    -381.2840
 -----------------------------------------------------------------
 Total job time:  96.21s(wall), 44.60s(cpu) 
 Mon Apr 11 17:43:07 2011

        *************************************************************
        *                                                           *
        *  Thank you very much for using Q-Chem.  Have a nice day.  *
        *                                                           *
        *************************************************************


0 sent ACK to 0 
now end server 0 ... 
 
**********************************************************************
Job 2 of 3 
**********************************************************************
 
Process 0 of 1 is on cl213.stfx.acenet.ca - thread support 1
initial socket setup ...start
initial socket setup ...done 
now start server 0 ... 

cmd = /usr/bin/ssh clhead /usr/local/qchem/bin/get_hostid 1279495909 > /globalscratch/itamblyn/bnl/g297_b3lyp_neut_g03Large/g2g71031/omega600/qchem9187/lic.dat
                  Welcome to Q-Chem
     A Quantum Leap Into The Future Of Chemistry

 Y. Shao, L. Fusti-Molnar, Y. Jung, J. Kussmann, C. Ochsenfeld,
 S. T. Brown, A. T. B. Gilbert, L. V. Slipchenko,S. V. Levchenko,
 D. P. O'Neill, R. A. DiStasio Jr., R. C. Lochan, T. Wang,
 G. J. O. Beran, N. A. Besley, J. M. Herbert, C. Y. Lin,
 T. Van Voorhis, S. H. Chien, A. Sodt, R. P. Steele, 
 V. A. Rassolov, P. E. Maslen, P. P. Korambath, R. D. Adamson,
 B. Austin, J. Baker, E. F. C. Byrd, H. Dachsel, R. J. Doerksen,
 A. Dreuw, B. D. Dunietz, A. D. Dutoi, T. R. Furlani,
 S. R. Gwaltney, A. Heyden, S. Hirata, C.-P. Hsu, G. Kedziora,
 R. Z. Khaliullin, P. Klunzinger, A. M. Lee, M. S. Lee, W. Liang,
 I. Lotan, N. Nair, B. Peters, E. I. Proynov, P. A. Pieniazek, 
 Y. M. Rhee, J. Ritchie, E. Rosta, C. D. Sherrill, 
 A. C. Simmonett, J. E. Subotnik, H. L. Woodcock III,
 W. Zhang, A. T. Bell, A. K. Chakraborty, D. M. Chipman,
 F. J. Keil, A. Warshel, W. J. Hehre, H. F. Schaefer III,
 J. Kong, A. I. Krylov, P. M. W. Gill, M. Head-Gordon,
 Q-Chem, Version 3.1, Q-Chem, Inc., Pittsburgh, PA (2007).

 Additional authors for Version 3.1: 
 Z. Gan, Y. Zhao, N. E. Schultz, D. Truhlar, E. Epifanovsky and M. Oana.

 Additional authors for Version 3.2: 
 R. Baer, B. R. Brooks, D. Casanova, J.-D. Chai, C.-L. Cheng, 
 C. Cramer, D. Crittenden, A. Ghysels, G. Hawkins, E. G. Hohenstein, 
 C. Kelley, W. Kurlancheek, D. Liotard, E. Livshits, P. Manohar, 
 A. Marenich, D. Neuhauser, R. Olson, M. A. Rohrdanz, K. S. Thanthiriwatte, 
 A. J. W. Thom, V. Vanovschi, C. F. Williams, Q. Wu and Z.-Q. You. 


 Intel X86 Linux Version

 Q-chem begins on Mon Apr 11 17:43:12 2011  

 Parallel job on  1  processors
Processing $rem in /usr/local/qchem/config/preferences.

theFileMan(): MAXOPENFILES=974 MAX_SUB_FILE_NUM=16
Maximum size of a physical file is 2.0 GB, maximum size of a tmp-file is 32.0 GB


--------------------------------------------------------------
User input:
--------------------------------------------------------------

$molecule
0,1
C
O,1,AB
H,1,AH3,2,H3AB
H,2,BH9,1,H9BA,3,180.,0
X,1,1.,2,BAH12,3,180.,0
H,1,AH1,5,H1AH2,2,90.,0
H,1,AH1,5,H1AH2,2,-90.,0

AB=1.41919435
AH1=1.10117667
AH3=1.09346715
BH9=0.96865998
H1AH2=54.22417123
BAH12=131.27350844
H3AB=106.64369205
H9BA=107.57953769

$end

$comment
neutral
$end

$xc_functional
   X HF 1.0
   X BNL 1.0
   C LYP 1.0
$end

$rem
SYMMETRY_DECOMPOSITION	0
exchange 		general
BASIS                   g3large
omega			600
separate_jk		true
mem_static              760
max_scf_cycles          200
scf_final_print         1
sym_ignore              true
$end

--------------------------------------------------------------
 Writing REM_CC_EA            6
 ----------------------------------------------------
       Standard Nuclear Orientation (Angstroms)
    I     Atom         X            Y            Z
 ----------------------------------------------------
    1      C       0.000000     0.000000     0.000000
    2      O       0.000000     0.000000     1.419194
    3      H       1.047656     0.000000    -0.313190
    4      H      -0.923422     0.000000     1.711758
    5      H      -0.483834    -0.893396    -0.424662
    6      H      -0.483834     0.893396    -0.424662
 ----------------------------------------------------
 Nuclear Repulsion Energy =    40.2120470818 hartrees
 There are        9 alpha and        9 beta electrons
 Requested basis set is G3large
 There are 44 shells and 124 basis functions

Total QAlloc Memory Limit   2000 MB
Mega-Array Size       743 MB
MEM_STATIC part       760 MB

                       Distance Matrix (Angstroms)
             C (  1)   O (  2)   H (  3)   H (  4)   H (  5)
   O (  2)  1.419194
   H (  3)  1.093467  2.024534
   H (  4)  1.944949  0.968660  2.825874
   H (  5)  1.101177  2.105246  1.776526  2.357050
   H (  6)  1.101177  2.105246  1.776526  2.357050  1.786792
 
 A cutoff of  1.0D-08 yielded    984 shell pairs
 There are   7854 function pairs (  9481 Cartesian)
Evaluating contribution to one-electron hamiltonian from nuclear
 Smallest overlap matrix eigenvalue = 7.96E-04
 Multipole matrices computed through 2nd order

  Scale SEOQF with 1.000000e-01/1.000000e-01/1.000000e-01

 Standard Electronic Orientation quadrupole field applied
 Nucleus-field energy     =    -0.0000000019 hartrees
 Guess from superposition of atomic densities
 Warning:  Energy on first SCF cycle will be non-variational
 A restricted hybrid HF-DFT SCF calculation will be
 performed using Pulay DIIS extrapolation
 Exchange:     1.0000 Hartree-Fock + 1.0000 BNL
 Correlation:  1.0000 LYP
 Using SG-1 standard quadrature grid
 SCF converges when DIIS error is below 1.0E-05
 ---------------------------------------
  Cycle       Energy         DIIS Error
 ---------------------------------------
    1    -115.0106811807      3.93E-02
    2    -114.6729582223      5.66E-03
    3    -114.6980255963      4.76E-03
    4    -114.7244608205      6.20E-04
    5    -114.7251682716      1.31E-04
    6    -114.7252377126      3.62E-05
    7    -114.7252424899      1.29E-05
    8    -114.7252435381      2.97E-06 Convergence criterion met
 ---------------------------------------
 One-Electron    Energy =  -236.7391057269
 Total Coulomb   Energy =    96.2123210736
 Alpha Exchange  Energy =    -2.4611004089
 Beta  Exchange  Energy =    -2.4611004089
 DFT   Exchange  Energy =    -8.8917152173
 DFT Correlation Energy =    -0.5965899298
 Nuclear Repu.   Energy =    40.2120470800
 Nuclear Attr.   Energy =  -350.8109438328
 Kinetic         Energy =   114.0718381059
 SCF time:  CPU 25.05 s  wall 56.16 s
 Final Alpha MO Eigenvalues
            1           2           3           4           5           6
    1 -18.8857259 -10.1304815  -1.2237313  -0.8736027  -0.6760508  -0.6065682
            7           8           9          10          11          12
    1  -0.5869295  -0.4917927  -0.4347303   0.0305934   0.0541191   0.0656048
           13          14
    1   0.0725707   0.1139858
 Analysis of SCF Wavefunction
 
 --------------------------------------------------------------
                    Orbital Energies (a.u.)
 --------------------------------------------------------------
 
 Alpha MOs
 -- Occupied --
-18.886 -10.130  -1.224  -0.874  -0.676  -0.607  -0.587  -0.492
 -0.435
 -- Virtual --
  0.031   0.054   0.066   0.073   0.114   0.131   0.146   0.167
  0.244   0.256   0.257   0.262   0.285   0.296   0.313   0.351
  0.429   0.517   0.529   0.620   0.657   0.661   0.687   0.713
  0.716   0.740   0.822   0.882   0.965   0.994   1.090   1.127
  1.151   1.218   1.245   1.260   1.286   1.330   1.405   1.438
  1.470   1.542   1.564   1.586   1.654   1.707   1.992   2.127
  2.153   2.339   2.394   2.552   2.594   2.672   2.954   3.102
  3.210   3.268   3.272   3.284   3.334   3.446   3.480   3.531
  3.566   3.677   3.784   3.879   3.970   3.999   4.042   4.218
  4.319   4.331   4.389   4.451   4.494   4.514   4.557   5.078
  5.139   5.311   5.342   5.493   5.643   5.716   5.742   5.774
  5.971   6.093   6.571   7.136   7.295   7.342   7.366   7.636
  7.799  24.540  28.168  28.202  28.234  41.041  41.088  41.301
 41.342  41.388  43.913  43.917  43.972  43.999  44.072  45.864
 46.169  46.558  50.219
 --------------------------------------------------------------
 
          Ground-State Mulliken Net Atomic Charges

     Atom                 Charge (a.u.)
  ----------------------------------------
      1 C                    -0.189963
      2 O                    -0.376283
      3 H                     0.113955
      4 H                     0.266382
      5 H                     0.092947
      6 H                     0.092962
  ----------------------------------------
  Sum of atomic charges =     0.000000

 -----------------------------------------------------------------
                    Cartesian Multipole Moments
 -----------------------------------------------------------------
    Charge (ESU x 10^10)
                 0.0000
    Dipole Moment (Debye)
         X      -1.5374      Y       0.0000      Z      -1.1776
       Tot       1.9366
    Quadrupole Moments (Debye-Ang)
        XX     -11.6403     XY       0.0000     YY     -13.9463
        XZ      -3.2136     YZ      -0.0001     ZZ     -15.2061
    Octapole Moments (Debye-Ang^2)
       XXX       0.3939    XXY       0.0000    XYY      -0.2149
       YYY       0.0001    XXZ      -5.4015    XYZ       0.0001
       YYZ      -9.3057    XZZ      -5.5326    YZZ       0.0000
       ZZZ     -25.5534
    Hexadecapole Moments (Debye-Ang^3)
      XXXX     -19.6729   XXXY      -0.0001   XXYY      -7.1826
      XYYY      -0.0001   YYYY     -20.8149   XXXZ      -1.7166
      XXYZ      -0.0001   XYYZ       0.8578   YYYZ      -0.0002
      XXZZ     -14.6534   XYZZ       0.0000   YYZZ     -20.9568
      XZZZ      -8.9891   YZZZ      -0.0002   ZZZZ     -94.3927
 -----------------------------------------------------------------
 Total job time:  59.87s(wall), 25.18s(cpu) 
 Mon Apr 11 17:44:12 2011

        *************************************************************
        *                                                           *
        *  Thank you very much for using Q-Chem.  Have a nice day.  *
        *                                                           *
        *************************************************************


0 sent ACK to 0 
now end server 0 ... 
 
**********************************************************************
Job 3 of 3 
**********************************************************************
 
Process 0 of 1 is on cl213.stfx.acenet.ca - thread support 1
initial socket setup ...start
initial socket setup ...done 
now start server 0 ... 

cmd = /usr/bin/ssh clhead /usr/local/qchem/bin/get_hostid 836014105 > /globalscratch/itamblyn/bnl/g297_b3lyp_neut_g03Large/g2g71031/omega600/qchem9187/lic.dat
                  Welcome to Q-Chem
     A Quantum Leap Into The Future Of Chemistry

 Y. Shao, L. Fusti-Molnar, Y. Jung, J. Kussmann, C. Ochsenfeld,
 S. T. Brown, A. T. B. Gilbert, L. V. Slipchenko,S. V. Levchenko,
 D. P. O'Neill, R. A. DiStasio Jr., R. C. Lochan, T. Wang,
 G. J. O. Beran, N. A. Besley, J. M. Herbert, C. Y. Lin,
 T. Van Voorhis, S. H. Chien, A. Sodt, R. P. Steele, 
 V. A. Rassolov, P. E. Maslen, P. P. Korambath, R. D. Adamson,
 B. Austin, J. Baker, E. F. C. Byrd, H. Dachsel, R. J. Doerksen,
 A. Dreuw, B. D. Dunietz, A. D. Dutoi, T. R. Furlani,
 S. R. Gwaltney, A. Heyden, S. Hirata, C.-P. Hsu, G. Kedziora,
 R. Z. Khaliullin, P. Klunzinger, A. M. Lee, M. S. Lee, W. Liang,
 I. Lotan, N. Nair, B. Peters, E. I. Proynov, P. A. Pieniazek, 
 Y. M. Rhee, J. Ritchie, E. Rosta, C. D. Sherrill, 
 A. C. Simmonett, J. E. Subotnik, H. L. Woodcock III,
 W. Zhang, A. T. Bell, A. K. Chakraborty, D. M. Chipman,
 F. J. Keil, A. Warshel, W. J. Hehre, H. F. Schaefer III,
 J. Kong, A. I. Krylov, P. M. W. Gill, M. Head-Gordon,
 Q-Chem, Version 3.1, Q-Chem, Inc., Pittsburgh, PA (2007).

 Additional authors for Version 3.1: 
 Z. Gan, Y. Zhao, N. E. Schultz, D. Truhlar, E. Epifanovsky and M. Oana.

 Additional authors for Version 3.2: 
 R. Baer, B. R. Brooks, D. Casanova, J.-D. Chai, C.-L. Cheng, 
 C. Cramer, D. Crittenden, A. Ghysels, G. Hawkins, E. G. Hohenstein, 
 C. Kelley, W. Kurlancheek, D. Liotard, E. Livshits, P. Manohar, 
 A. Marenich, D. Neuhauser, R. Olson, M. A. Rohrdanz, K. S. Thanthiriwatte, 
 A. J. W. Thom, V. Vanovschi, C. F. Williams, Q. Wu and Z.-Q. You. 


 Intel X86 Linux Version

 Q-chem begins on Mon Apr 11 17:44:17 2011  

 Parallel job on  1  processors
Processing $rem in /usr/local/qchem/config/preferences.

theFileMan(): MAXOPENFILES=974 MAX_SUB_FILE_NUM=16
Maximum size of a physical file is 2.0 GB, maximum size of a tmp-file is 32.0 GB


--------------------------------------------------------------
User input:
--------------------------------------------------------------

$molecule
1,2
C
O,1,AB
H,1,AH3,2,H3AB
H,2,BH9,1,H9BA,3,180.,0
X,1,1.,2,BAH12,3,180.,0
H,1,AH1,5,H1AH2,2,90.,0
H,1,AH1,5,H1AH2,2,-90.,0

AB=1.41919435
AH1=1.10117667
AH3=1.09346715
BH9=0.96865998
H1AH2=54.22417123
BAH12=131.27350844
H3AB=106.64369205
H9BA=107.57953769

$end

$comment
positive
$end

$xc_functional
   X HF 1.0
   X BNL 1.0
   C LYP 1.0
$end

$rem
SYMMETRY_DECOMPOSITION	0
exchange 		general
BASIS                   g3large
omega			600
separate_jk		true
mem_static              760
max_scf_cycles          200
scf_final_print         1
sym_ignore              true
$end

--------------------------------------------------------------
 Writing REM_CC_EA            6
 ----------------------------------------------------
       Standard Nuclear Orientation (Angstroms)
    I     Atom         X            Y            Z
 ----------------------------------------------------
    1      C       0.000000     0.000000     0.000000
    2      O       0.000000     0.000000     1.419194
    3      H       1.047656     0.000000    -0.313190
    4      H      -0.923422     0.000000     1.711758
    5      H      -0.483834    -0.893396    -0.424662
    6      H      -0.483834     0.893396    -0.424662
 ----------------------------------------------------
 Nuclear Repulsion Energy =    40.2120470818 hartrees
 There are        9 alpha and        8 beta electrons
 Requested basis set is G3large
 There are 44 shells and 124 basis functions

Total QAlloc Memory Limit   2000 MB
Mega-Array Size       743 MB
MEM_STATIC part       760 MB

                       Distance Matrix (Angstroms)
             C (  1)   O (  2)   H (  3)   H (  4)   H (  5)
   O (  2)  1.419194
   H (  3)  1.093467  2.024534
   H (  4)  1.944949  0.968660  2.825874
   H (  5)  1.101177  2.105246  1.776526  2.357050
   H (  6)  1.101177  2.105246  1.776526  2.357050  1.786792
 
 A cutoff of  1.0D-08 yielded    984 shell pairs
 There are   7854 function pairs (  9481 Cartesian)
Evaluating contribution to one-electron hamiltonian from nuclear
 Smallest overlap matrix eigenvalue = 7.96E-04
 Multipole matrices computed through 2nd order

  Scale SEOQF with 1.000000e-01/1.000000e-01/1.000000e-01

 Standard Electronic Orientation quadrupole field applied
 Nucleus-field energy     =    -0.0000000019 hartrees
 Guess from superposition of atomic densities
 Warning:  Energy on first SCF cycle will be non-variational
 An unrestricted hybrid HF-DFT SCF calculation will be
 performed using Pulay DIIS extrapolation
 Exchange:     1.0000 Hartree-Fock + 1.0000 BNL
 Correlation:  1.0000 LYP
 Using SG-1 standard quadrature grid
 SCF converges when DIIS error is below 1.0E-05
 Warning!  Inaccurate integrated density:
   Number of electrons =    17
   Numerical integral  =    18.000036548586
   Relative error      =     5.8825679329 %
 ---------------------------------------
  Cycle       Energy         DIIS Error
 ---------------------------------------
    1    -115.0106811807      3.93E-02
    2    -114.2322527062      4.53E-03
    3    -114.2822354333      2.92E-03
    4    -114.2961468517      8.71E-04
    5    -114.3012656172      7.01E-04
    6    -114.3045308802      3.90E-04
    7    -114.3080882580      2.23E-04
    8    -114.3101276931      1.02E-04
    9    -114.3105635888      7.71E-05
   10    -114.3108417847      6.47E-05
   11    -114.3109988644      3.68E-05
   12    -114.3110312600      6.46E-06 Convergence criterion met
 ---------------------------------------
 One-Electron    Energy =  -230.3792306597
 Total Coulomb   Energy =    89.8923541626
 Alpha Exchange  Energy =    -2.5022691109
 Beta  Exchange  Energy =    -2.1890438042
 DFT   Exchange  Energy =    -8.7844626990
 DFT Correlation Energy =    -0.5604262287
 Nuclear Repu.   Energy =    40.2120470800
 Nuclear Attr.   Energy =  -344.1231897591
 Kinetic         Energy =   113.7439590994
 <S^2> = 0.7564
 SCF time:  CPU 46.97 s  wall 106.49 s
 Final Alpha MO Eigenvalues
            1           2           3           4           5           6
    1 -19.3547582 -10.4304526  -1.6436720  -1.2055009  -1.0438466  -0.9973534
            7           8           9          10          11          12
    1  -0.9481652  -0.8259036  -0.8170950  -0.1597572  -0.1106700  -0.0851646
           13          14
    1  -0.0821363  -0.0570732
 Final Beta MO Eigenvalues
            1           2           3           4           5           6
    1 -19.3304917 -10.4300447  -1.5885625  -1.1848291  -1.0175745  -0.9266092
            7           8           9          10          11          12
    1  -0.8652720  -0.8056170  -0.3964451  -0.1565664  -0.1091127  -0.0846616
           13
    1  -0.0813427
 Analysis of SCF Wavefunction
 
 --------------------------------------------------------------
                    Orbital Energies (a.u.)
 --------------------------------------------------------------
 
 Alpha MOs
 -- Occupied --
-19.355 -10.430  -1.644  -1.206  -1.044  -0.997  -0.948  -0.826
 -0.817
 -- Virtual --
 -0.160  -0.111  -0.085  -0.082  -0.057  -0.050  -0.030  -0.001
  0.023   0.040   0.043   0.052   0.060   0.061   0.098   0.126
  0.189   0.277   0.280   0.362   0.405   0.407   0.431   0.443
  0.447   0.497   0.515   0.618   0.682   0.739   0.799   0.835
  0.848   0.913   0.955   0.979   1.006   1.062   1.117   1.155
  1.185   1.247   1.296   1.311   1.343   1.413   1.614   1.781
  1.792   1.981   2.055   2.248   2.293   2.384   2.625   2.809
  2.902   2.953   2.973   2.978   3.038   3.143   3.174   3.212
  3.262   3.363   3.459   3.524   3.664   3.697   3.742   3.882
  3.980   4.038   4.076   4.150   4.182   4.212   4.263   4.665
  4.758   4.874   4.923   5.070   5.254   5.312   5.414   5.426
  5.579   5.732   6.183   6.662   6.885   6.894   6.901   7.211
  7.386  24.239  27.866  27.902  27.936  40.741  40.785  41.000
 41.042  41.087  43.413  43.426  43.482  43.541  43.615  45.374
 45.712  46.101  49.752
 
 Beta MOs
 -- Occupied --
-19.330 -10.430  -1.589  -1.185  -1.018  -0.927  -0.865  -0.806
 -- Virtual --
 -0.396  -0.157  -0.109  -0.085  -0.081  -0.056  -0.049  -0.025
  0.001   0.027   0.043   0.047   0.055   0.062   0.075   0.102
  0.129   0.192   0.282   0.294   0.365   0.407   0.418   0.435
  0.449   0.450   0.506   0.527   0.620   0.686   0.744   0.808
  0.841   0.876   0.930   0.968   0.984   1.011   1.066   1.124
  1.164   1.189   1.256   1.303   1.316   1.363   1.420   1.651
  1.795   1.824   2.005   2.068   2.267   2.299   2.394   2.631
  2.816   2.906   2.965   2.977   2.990   3.041   3.150   3.178
  3.222   3.265   3.370   3.466   3.533   3.673   3.703   3.751
  3.886   3.992   4.051   4.086   4.165   4.200   4.222   4.274
  4.746   4.776   4.924   4.965   5.119   5.274   5.353   5.436
  5.443   5.614   5.744   6.205   6.741   6.914   6.951   6.975
  7.251   7.412  24.240  27.866  27.904  27.936  40.742  40.785
 41.001  41.041  41.088  43.484  43.487  43.543  43.567  43.640
 45.421  45.729  46.118  49.781
 --------------------------------------------------------------
 
          Ground-State Mulliken Net Atomic Charges

     Atom                 Charge (a.u.)    Spin (a.u.)
  --------------------------------------------------------
      1 C                    -0.199599      -0.006837
      2 O                     0.188348       0.836439
      3 H                     0.195778      -0.001184
      4 H                     0.358175      -0.020349
      5 H                     0.228517       0.095665
      6 H                     0.228781       0.096267
  --------------------------------------------------------
  Sum of atomic charges =     1.000000
  Sum of spin   charges =     1.000000

 -----------------------------------------------------------------
                    Cartesian Multipole Moments
 -----------------------------------------------------------------
    Charge (ESU x 10^10)
                 4.8032
    Dipole Moment (Debye)
         X      -2.1201      Y       0.0004      Z       2.5474
       Tot       3.3142
    Quadrupole Moments (Debye-Ang)
        XX      -8.5864     XY      -0.0015     YY      -9.9069
        XZ      -3.6676     YZ      -0.0029     ZZ      -5.2544
    Octapole Moments (Debye-Ang^2)
       XXX       0.0458    XXY       0.0004    XYY      -1.0216
       YYY       0.0009    XXZ      -3.7672    XYZ       0.0000
       YYZ      -7.4650    XZZ      -6.8171    YZZ      -0.0031
       ZZZ     -10.4536
    Hexadecapole Moments (Debye-Ang^3)
      XXXX     -13.0624   XXXY      -0.0013   XXYY      -4.8333
      XYYY      -0.0014   YYYY     -12.8940   XXXZ      -2.9763
      XXYZ      -0.0007   XYYZ       1.1552   YYYZ      -0.0025
      XXZZ      -8.8443   XYZZ      -0.0015   YYZZ     -13.9270
      XZZZ     -10.8817   YZZZ      -0.0090   ZZZZ     -57.9119
 -----------------------------------------------------------------
 Total job time:  112.74s(wall), 47.11s(cpu) 
 Mon Apr 11 17:46:09 2011

        *************************************************************
        *                                                           *
        *  Thank you very much for using Q-Chem.  Have a nice day.  *
        *                                                           *
        *************************************************************


0 sent ACK to 0 
now end server 0 ... 
