Process 0 of 1 is on cl186.stfx.acenet.ca - thread support 1
initial socket setup ...start
initial socket setup ...done 
now start server 0 ... 

cmd = /usr/bin/ssh clhead /usr/local/qchem/bin/get_hostid 1812865879 > /globalscratch/itamblyn/bnl/g297_b3lyp_neut_g03Large/g2g71029/omega700/qchem10825/lic.dat
                  Welcome to Q-Chem
     A Quantum Leap Into The Future Of Chemistry

 Y. Shao, L. Fusti-Molnar, Y. Jung, J. Kussmann, C. Ochsenfeld,
 S. T. Brown, A. T. B. Gilbert, L. V. Slipchenko,S. V. Levchenko,
 D. P. O'Neill, R. A. DiStasio Jr., R. C. Lochan, T. Wang,
 G. J. O. Beran, N. A. Besley, J. M. Herbert, C. Y. Lin,
 T. Van Voorhis, S. H. Chien, A. Sodt, R. P. Steele, 
 V. A. Rassolov, P. E. Maslen, P. P. Korambath, R. D. Adamson,
 B. Austin, J. Baker, E. F. C. Byrd, H. Dachsel, R. J. Doerksen,
 A. Dreuw, B. D. Dunietz, A. D. Dutoi, T. R. Furlani,
 S. R. Gwaltney, A. Heyden, S. Hirata, C.-P. Hsu, G. Kedziora,
 R. Z. Khaliullin, P. Klunzinger, A. M. Lee, M. S. Lee, W. Liang,
 I. Lotan, N. Nair, B. Peters, E. I. Proynov, P. A. Pieniazek, 
 Y. M. Rhee, J. Ritchie, E. Rosta, C. D. Sherrill, 
 A. C. Simmonett, J. E. Subotnik, H. L. Woodcock III,
 W. Zhang, A. T. Bell, A. K. Chakraborty, D. M. Chipman,
 F. J. Keil, A. Warshel, W. J. Hehre, H. F. Schaefer III,
 J. Kong, A. I. Krylov, P. M. W. Gill, M. Head-Gordon,
 Q-Chem, Version 3.1, Q-Chem, Inc., Pittsburgh, PA (2007).

 Additional authors for Version 3.1: 
 Z. Gan, Y. Zhao, N. E. Schultz, D. Truhlar, E. Epifanovsky and M. Oana.

 Additional authors for Version 3.2: 
 R. Baer, B. R. Brooks, D. Casanova, J.-D. Chai, C.-L. Cheng, 
 C. Cramer, D. Crittenden, A. Ghysels, G. Hawkins, E. G. Hohenstein, 
 C. Kelley, W. Kurlancheek, D. Liotard, E. Livshits, P. Manohar, 
 A. Marenich, D. Neuhauser, R. Olson, M. A. Rohrdanz, K. S. Thanthiriwatte, 
 A. J. W. Thom, V. Vanovschi, C. F. Williams, Q. Wu and Z.-Q. You. 


 Intel X86 Linux Version

 Q-chem begins on Mon Apr 11 17:40:42 2011  

 Parallel job on  1  processors
Processing $rem in /usr/local/qchem/config/preferences.

theFileMan(): MAXOPENFILES=974 MAX_SUB_FILE_NUM=16
Maximum size of a physical file is 2.0 GB, maximum size of a tmp-file is 32.0 GB


--------------------------------------------------------------
User input:
--------------------------------------------------------------

$molecule
-1,1
C
O,1,CO
H,1,CH,2,HCO

CO=1.18271512
CH=1.12830969
HCO=123.65060441

$end

$comment
negative
$end

$xc_functional
   X HF 1.0
   X BNL 1.0
   C LYP 1.0
$end

$rem
SYMMETRY_DECOMPOSITION	0
exchange 		general
BASIS                   g3large
omega			700
separate_jk		true
mem_static              760
max_scf_cycles          200
scf_final_print         1
sym_ignore              true
$end

--------------------------------------------------------------
 Writing REM_CC_EA            3
 ----------------------------------------------------
       Standard Nuclear Orientation (Angstroms)
    I     Atom         X            Y            Z
 ----------------------------------------------------
    1      C       0.000000     0.000000     0.000000
    2      O       0.000000     0.000000     1.182715
    3      H       0.939241     0.000000    -0.625227
 ----------------------------------------------------
 Nuclear Repulsion Energy =    26.3683319341 hartrees
 There are        8 alpha and        8 beta electrons
 Requested basis set is G3large
 There are 26 shells and 94 basis functions

Total QAlloc Memory Limit   2000 MB
Mega-Array Size       743 MB
MEM_STATIC part       760 MB

                       Distance Matrix (Angstroms)
             C (  1)   O (  2)
   O (  2)  1.182715
   H (  3)  1.128310  2.037358
 
 A cutoff of  1.0D-08 yielded    347 shell pairs
 There are   4563 function pairs (  5830 Cartesian)
Evaluating contribution to one-electron hamiltonian from nuclear
 Smallest overlap matrix eigenvalue = 1.08E-03
 Multipole matrices computed through 2nd order

  Scale SEOQF with 1.000000e-01/1.000000e-01/1.000000e-01

 Standard Electronic Orientation quadrupole field applied
 Nucleus-field energy     =    -0.0000000012 hartrees
 Guess from superposition of atomic densities
 Warning:  Energy on first SCF cycle will be non-variational
 A restricted hybrid HF-DFT SCF calculation will be
 performed using Pulay DIIS extrapolation
 Exchange:     1.0000 Hartree-Fock + 1.0000 BNL
 Correlation:  1.0000 LYP
 Using SG-1 standard quadrature grid
 SCF converges when DIIS error is below 1.0E-05
 Warning!  Inaccurate integrated density:
   Number of electrons =    16
   Numerical integral  =    15.000038108890
   Relative error      =    -6.2497618194 %
 ---------------------------------------
  Cycle       Energy         DIIS Error
 ---------------------------------------
    1    -113.0916755973      4.69E-02
    2    -112.7554976755      1.06E-02
    3    -112.7930363153      1.12E-02
    4    -112.8865351315      1.23E-03
    5    -112.8917084864      7.01E-04
    6    -112.8947304916      4.43E-04
    7    -112.8970921923      2.68E-04
    8    -112.8984309064      1.08E-04
    9    -112.8986441147      3.36E-05
   10    -112.8986580171      8.58E-06 Convergence criterion met
 ---------------------------------------
 One-Electron    Energy =  -211.3608715634
 Total Coulomb   Energy =    85.6118279952
 Alpha Exchange  Energy =    -2.4197128520
 Beta  Exchange  Energy =    -2.4197128520
 DFT   Exchange  Energy =    -8.1401867031
 DFT Correlation Energy =    -0.5383339745
 Nuclear Repu.   Energy =    26.3683319328
 Nuclear Attr.   Energy =  -323.9669904888
 Kinetic         Energy =   112.6061189255
 SCF time:  CPU 15.56 s  wall 26.88 s
 Final Alpha MO Eigenvalues
            1           2           3           4           5           6
    1 -18.6803116  -9.9379840  -1.0341921  -0.5043130  -0.3833130  -0.3078059
            7           8           9          10          11          12
    1  -0.3026527  -0.0258901   0.1807249   0.2479261   0.2491129   0.2805281
           13
    1   0.3308479
 Analysis of SCF Wavefunction
 
 --------------------------------------------------------------
                    Orbital Energies (a.u.)
 --------------------------------------------------------------
 
 Alpha MOs
 -- Occupied --
-18.680  -9.938  -1.034  -0.504  -0.383  -0.308  -0.303  -0.026
 -- Virtual --
  0.181   0.248   0.249   0.281   0.331   0.375   0.433   0.459
  0.481   0.486   0.559   0.720   0.834   0.899   0.904   0.976
  1.005   1.078   1.190   1.211   1.320   1.343   1.383   1.438
  1.472   1.552   1.769   1.823   1.910   2.058   2.107   2.385
  2.546   2.831   2.870   3.096   3.288   3.302   3.320   3.421
  3.500   3.538   3.684   3.705   3.736   3.882   4.000   4.034
  4.149   4.525   4.550   4.734   5.389   5.422   5.506   5.543
  5.558   5.838   5.927   6.210   6.787   6.922   7.282   7.298
  7.325   7.635   7.729   8.038  24.948  27.698  27.956  28.659
 41.259  41.462  41.552  41.648  41.689  44.091  44.167  44.263
 44.302  44.354  46.242  46.282  47.037  50.717
 --------------------------------------------------------------
 
          Ground-State Mulliken Net Atomic Charges

     Atom                 Charge (a.u.)
  ----------------------------------------
      1 C                    -0.644414
      2 O                    -0.315912
      3 H                    -0.039674
  ----------------------------------------
  Sum of atomic charges =    -1.000000

 -----------------------------------------------------------------
                    Cartesian Multipole Moments
 -----------------------------------------------------------------
    Charge (ESU x 10^10)
                -4.8032
    Dipole Moment (Debye)
         X       1.3091      Y       0.0022      Z      -1.2567
       Tot       1.8147
    Quadrupole Moments (Debye-Ang)
        XX     -19.5793     XY      -0.0046     YY     -14.8885
        XZ      -0.9921     YZ      -0.0007     ZZ     -20.8468
    Octapole Moments (Debye-Ang^2)
       XXX      -2.7322    XXY       0.0016    XYY       0.5806
       YYY       0.0118    XXZ      -2.2633    XYZ       0.0031
       YYZ      -4.8626    XZZ      -0.2349    YZZ       0.0030
       ZZZ     -21.5242
    Hexadecapole Moments (Debye-Ang^3)
      XXXX     -58.2122   XXXY      -0.0203   XXYY     -12.7520
      XYYY      -0.0190   YYYY     -22.7481   XXXZ       2.4233
      XXYZ       0.0001   XYYZ      -0.2364   YYYZ      -0.0027
      XXZZ     -24.7757   XYZZ      -0.0061   YYZZ     -17.2748
      XZZZ      -0.1107   YZZZ      -0.0017   ZZZZ     -90.0426
 -----------------------------------------------------------------
 Total job time:  29.75s(wall), 15.65s(cpu) 
 Mon Apr 11 17:41:12 2011

        *************************************************************
        *                                                           *
        *  Thank you very much for using Q-Chem.  Have a nice day.  *
        *                                                           *
        *************************************************************


0 sent ACK to 0 
now end server 0 ... 
 
**********************************************************************
Job 2 of 3 
**********************************************************************
 
Process 0 of 1 is on cl186.stfx.acenet.ca - thread support 1
initial socket setup ...start
initial socket setup ...done 
now start server 0 ... 

cmd = /usr/bin/ssh clhead /usr/local/qchem/bin/get_hostid 355707513 > /globalscratch/itamblyn/bnl/g297_b3lyp_neut_g03Large/g2g71029/omega700/qchem10825/lic.dat
                  Welcome to Q-Chem
     A Quantum Leap Into The Future Of Chemistry

 Y. Shao, L. Fusti-Molnar, Y. Jung, J. Kussmann, C. Ochsenfeld,
 S. T. Brown, A. T. B. Gilbert, L. V. Slipchenko,S. V. Levchenko,
 D. P. O'Neill, R. A. DiStasio Jr., R. C. Lochan, T. Wang,
 G. J. O. Beran, N. A. Besley, J. M. Herbert, C. Y. Lin,
 T. Van Voorhis, S. H. Chien, A. Sodt, R. P. Steele, 
 V. A. Rassolov, P. E. Maslen, P. P. Korambath, R. D. Adamson,
 B. Austin, J. Baker, E. F. C. Byrd, H. Dachsel, R. J. Doerksen,
 A. Dreuw, B. D. Dunietz, A. D. Dutoi, T. R. Furlani,
 S. R. Gwaltney, A. Heyden, S. Hirata, C.-P. Hsu, G. Kedziora,
 R. Z. Khaliullin, P. Klunzinger, A. M. Lee, M. S. Lee, W. Liang,
 I. Lotan, N. Nair, B. Peters, E. I. Proynov, P. A. Pieniazek, 
 Y. M. Rhee, J. Ritchie, E. Rosta, C. D. Sherrill, 
 A. C. Simmonett, J. E. Subotnik, H. L. Woodcock III,
 W. Zhang, A. T. Bell, A. K. Chakraborty, D. M. Chipman,
 F. J. Keil, A. Warshel, W. J. Hehre, H. F. Schaefer III,
 J. Kong, A. I. Krylov, P. M. W. Gill, M. Head-Gordon,
 Q-Chem, Version 3.1, Q-Chem, Inc., Pittsburgh, PA (2007).

 Additional authors for Version 3.1: 
 Z. Gan, Y. Zhao, N. E. Schultz, D. Truhlar, E. Epifanovsky and M. Oana.

 Additional authors for Version 3.2: 
 R. Baer, B. R. Brooks, D. Casanova, J.-D. Chai, C.-L. Cheng, 
 C. Cramer, D. Crittenden, A. Ghysels, G. Hawkins, E. G. Hohenstein, 
 C. Kelley, W. Kurlancheek, D. Liotard, E. Livshits, P. Manohar, 
 A. Marenich, D. Neuhauser, R. Olson, M. A. Rohrdanz, K. S. Thanthiriwatte, 
 A. J. W. Thom, V. Vanovschi, C. F. Williams, Q. Wu and Z.-Q. You. 


 Intel X86 Linux Version

 Q-chem begins on Mon Apr 11 17:41:15 2011  

 Parallel job on  1  processors
Processing $rem in /usr/local/qchem/config/preferences.

theFileMan(): MAXOPENFILES=974 MAX_SUB_FILE_NUM=16
Maximum size of a physical file is 2.0 GB, maximum size of a tmp-file is 32.0 GB


--------------------------------------------------------------
User input:
--------------------------------------------------------------

$molecule
0,2
C
O,1,CO
H,1,CH,2,HCO

CO=1.18271512
CH=1.12830969
HCO=123.65060441

$end

$comment
neutral
$end

$xc_functional
   X HF 1.0
   X BNL 1.0
   C LYP 1.0
$end

$rem
SYMMETRY_DECOMPOSITION	0
exchange 		general
BASIS                   g3large
omega			700
separate_jk		true
mem_static              760
max_scf_cycles          200
scf_final_print         1
sym_ignore              true
$end

--------------------------------------------------------------
 Writing REM_CC_EA            3
 ----------------------------------------------------
       Standard Nuclear Orientation (Angstroms)
    I     Atom         X            Y            Z
 ----------------------------------------------------
    1      C       0.000000     0.000000     0.000000
    2      O       0.000000     0.000000     1.182715
    3      H       0.939241     0.000000    -0.625227
 ----------------------------------------------------
 Nuclear Repulsion Energy =    26.3683319341 hartrees
 There are        8 alpha and        7 beta electrons
 Requested basis set is G3large
 There are 26 shells and 94 basis functions

Total QAlloc Memory Limit   2000 MB
Mega-Array Size       743 MB
MEM_STATIC part       760 MB

                       Distance Matrix (Angstroms)
             C (  1)   O (  2)
   O (  2)  1.182715
   H (  3)  1.128310  2.037358
 
 A cutoff of  1.0D-08 yielded    347 shell pairs
 There are   4563 function pairs (  5830 Cartesian)
Evaluating contribution to one-electron hamiltonian from nuclear
 Smallest overlap matrix eigenvalue = 1.08E-03
 Multipole matrices computed through 2nd order

  Scale SEOQF with 1.000000e-01/1.000000e-01/1.000000e-01

 Standard Electronic Orientation quadrupole field applied
 Nucleus-field energy     =    -0.0000000012 hartrees
 Guess from superposition of atomic densities
 Warning:  Energy on first SCF cycle will be non-variational
 An unrestricted hybrid HF-DFT SCF calculation will be
 performed using Pulay DIIS extrapolation
 Exchange:     1.0000 Hartree-Fock + 1.0000 BNL
 Correlation:  1.0000 LYP
 Using SG-1 standard quadrature grid
 SCF converges when DIIS error is below 1.0E-05
 ---------------------------------------
  Cycle       Energy         DIIS Error
 ---------------------------------------
    1    -113.0916755973      4.69E-02
    2    -112.8202464104      7.54E-03
    3    -112.8311836922      8.82E-03
    4    -112.8939398529      8.64E-04
    5    -112.8979965017      4.21E-04
    6    -112.9004091813      2.53E-04
    7    -112.9017669213      1.62E-04
    8    -112.9025508628      9.79E-05
    9    -112.9029182849      3.86E-05
   10    -112.9029636744      1.50E-05
   11    -112.9029687611      5.98E-06 Convergence criterion met
 ---------------------------------------
 One-Electron    Energy =  -206.8250801774
 Total Coulomb   Energy =    80.8028293763
 Alpha Exchange  Energy =    -2.4803420488
 Beta  Exchange  Energy =    -2.1739374866
 DFT   Exchange  Energy =    -8.0869448272
 DFT Correlation Energy =    -0.5078255304
 Nuclear Repu.   Energy =    26.3683319328
 Nuclear Attr.   Energy =  -319.1262038741
 Kinetic         Energy =   112.3011236967
 <S^2> = 0.7561
 SCF time:  CPU 19.52 s  wall 35.48 s
 Final Alpha MO Eigenvalues
            1           2           3           4           5           6
    1 -19.0036199 -10.2712708  -1.3445684  -0.8239481  -0.6943644  -0.6335519
            7           8           9          10          11          12
    1  -0.6049599  -0.3856017   0.0384218   0.0445383   0.0873107   0.1033860
           13
    1   0.1248526
 Final Beta MO Eigenvalues
            1           2           3           4           5           6
    1 -18.9948891 -10.2600508  -1.3275027  -0.7811024  -0.6618000  -0.5971421
            7           8           9          10          11          12
    1  -0.5515519   0.0187130   0.0361615   0.0528820   0.0863958   0.1165104
 Analysis of SCF Wavefunction
 
 --------------------------------------------------------------
                    Orbital Energies (a.u.)
 --------------------------------------------------------------
 
 Alpha MOs
 -- Occupied --
-19.004 -10.271  -1.345  -0.824  -0.694  -0.634  -0.605  -0.386
 -- Virtual --
  0.038   0.045   0.087   0.103   0.125   0.156   0.232   0.248
  0.284   0.293   0.351   0.467   0.562   0.627   0.631   0.686
  0.719   0.782   0.906   0.925   1.042   1.088   1.110   1.169
  1.208   1.263   1.481   1.531   1.632   1.769   1.815   2.100
  2.247   2.524   2.582   2.783   2.962   2.983   2.998   3.101
  3.184   3.202   3.345   3.366   3.405   3.566   3.673   3.729
  3.819   4.203   4.227   4.407   5.069   5.124   5.188   5.239
  5.253   5.542   5.622   5.891   6.482   6.602   6.964   6.980
  7.019   7.337   7.415   7.734  24.616  27.369  27.617  28.330
 40.924  41.129  41.217  41.318  41.354  43.761  43.838  43.945
 43.972  44.031  45.923  45.953  46.718  50.395
 
 Beta MOs
 -- Occupied --
-18.995 -10.260  -1.328  -0.781  -0.662  -0.597  -0.552
 -- Virtual --
  0.019   0.036   0.053   0.086   0.117   0.132   0.158   0.248
  0.250   0.284   0.296   0.353   0.479   0.590   0.639   0.646
  0.703   0.737   0.810   0.921   0.935   1.054   1.092   1.117
  1.182   1.212   1.285   1.490   1.545   1.640   1.785   1.833
  2.105   2.267   2.549   2.595   2.796   2.989   3.002   3.019
  3.120   3.201   3.235   3.380   3.403   3.432   3.588   3.697
  3.738   3.847   4.220   4.254   4.437   5.094   5.132   5.215
  5.256   5.270   5.548   5.636   5.914   6.490   6.624   6.991
  7.006   7.031   7.345   7.440   7.748  24.630  27.376  27.635
 28.337  40.938  41.140  41.231  41.326  41.368  43.782  43.859
 43.953  43.994  44.044  45.929  45.970  46.724  50.406
 --------------------------------------------------------------
 
          Ground-State Mulliken Net Atomic Charges

     Atom                 Charge (a.u.)    Spin (a.u.)
  --------------------------------------------------------
      1 C                     0.027104       0.604868
      2 O                    -0.158104       0.229663
      3 H                     0.131000       0.165468
  --------------------------------------------------------
  Sum of atomic charges =     0.000000
  Sum of spin   charges =     1.000000

 -----------------------------------------------------------------
                    Cartesian Multipole Moments
 -----------------------------------------------------------------
    Charge (ESU x 10^10)
                 0.0000
    Dipole Moment (Debye)
         X       1.0731      Y      -0.0002      Z      -1.7945
       Tot       2.0909
    Quadrupole Moments (Debye-Ang)
        XX     -11.2293     XY      -0.0001     YY     -11.0308
        XZ      -0.7482     YZ      -0.0001     ZZ     -13.7186
    Octapole Moments (Debye-Ang^2)
       XXX      -0.5635    XXY      -0.0001    XYY      -0.4557
       YYY      -0.0005    XXZ      -6.4170    XYZ      -0.0003
       YYZ      -5.7973    XZZ       0.0049    YZZ      -0.0002
       ZZZ     -20.6168
    Hexadecapole Moments (Debye-Ang^3)
      XXXX     -14.9525   XXXY       0.0001   XXYY      -4.3336
      XYYY       0.0001   YYYY      -9.9747   XXXZ       0.3559
      XXYZ      -0.0001   XYYZ       0.3340   YYYZ      -0.0002
      XXZZ     -12.3985   XYZZ      -0.0006   YYZZ     -11.3982
      XZZZ       0.6862   YZZZ      -0.0004   ZZZZ     -62.2516
 -----------------------------------------------------------------
 Total job time:  38.94s(wall), 19.62s(cpu) 
 Mon Apr 11 17:41:54 2011

        *************************************************************
        *                                                           *
        *  Thank you very much for using Q-Chem.  Have a nice day.  *
        *                                                           *
        *************************************************************


0 sent ACK to 0 
now end server 0 ... 
 
**********************************************************************
Job 3 of 3 
**********************************************************************
 
Process 0 of 1 is on cl186.stfx.acenet.ca - thread support 1
initial socket setup ...start
initial socket setup ...done 
now start server 0 ... 

cmd = /usr/bin/ssh clhead /usr/local/qchem/bin/get_hostid 942028144 > /globalscratch/itamblyn/bnl/g297_b3lyp_neut_g03Large/g2g71029/omega700/qchem10825/lic.dat
                  Welcome to Q-Chem
     A Quantum Leap Into The Future Of Chemistry

 Y. Shao, L. Fusti-Molnar, Y. Jung, J. Kussmann, C. Ochsenfeld,
 S. T. Brown, A. T. B. Gilbert, L. V. Slipchenko,S. V. Levchenko,
 D. P. O'Neill, R. A. DiStasio Jr., R. C. Lochan, T. Wang,
 G. J. O. Beran, N. A. Besley, J. M. Herbert, C. Y. Lin,
 T. Van Voorhis, S. H. Chien, A. Sodt, R. P. Steele, 
 V. A. Rassolov, P. E. Maslen, P. P. Korambath, R. D. Adamson,
 B. Austin, J. Baker, E. F. C. Byrd, H. Dachsel, R. J. Doerksen,
 A. Dreuw, B. D. Dunietz, A. D. Dutoi, T. R. Furlani,
 S. R. Gwaltney, A. Heyden, S. Hirata, C.-P. Hsu, G. Kedziora,
 R. Z. Khaliullin, P. Klunzinger, A. M. Lee, M. S. Lee, W. Liang,
 I. Lotan, N. Nair, B. Peters, E. I. Proynov, P. A. Pieniazek, 
 Y. M. Rhee, J. Ritchie, E. Rosta, C. D. Sherrill, 
 A. C. Simmonett, J. E. Subotnik, H. L. Woodcock III,
 W. Zhang, A. T. Bell, A. K. Chakraborty, D. M. Chipman,
 F. J. Keil, A. Warshel, W. J. Hehre, H. F. Schaefer III,
 J. Kong, A. I. Krylov, P. M. W. Gill, M. Head-Gordon,
 Q-Chem, Version 3.1, Q-Chem, Inc., Pittsburgh, PA (2007).

 Additional authors for Version 3.1: 
 Z. Gan, Y. Zhao, N. E. Schultz, D. Truhlar, E. Epifanovsky and M. Oana.

 Additional authors for Version 3.2: 
 R. Baer, B. R. Brooks, D. Casanova, J.-D. Chai, C.-L. Cheng, 
 C. Cramer, D. Crittenden, A. Ghysels, G. Hawkins, E. G. Hohenstein, 
 C. Kelley, W. Kurlancheek, D. Liotard, E. Livshits, P. Manohar, 
 A. Marenich, D. Neuhauser, R. Olson, M. A. Rohrdanz, K. S. Thanthiriwatte, 
 A. J. W. Thom, V. Vanovschi, C. F. Williams, Q. Wu and Z.-Q. You. 


 Intel X86 Linux Version

 Q-chem begins on Mon Apr 11 17:41:59 2011  

 Parallel job on  1  processors
Processing $rem in /usr/local/qchem/config/preferences.

theFileMan(): MAXOPENFILES=974 MAX_SUB_FILE_NUM=16
Maximum size of a physical file is 2.0 GB, maximum size of a tmp-file is 32.0 GB


--------------------------------------------------------------
User input:
--------------------------------------------------------------

$molecule
1,1
C
O,1,CO
H,1,CH,2,HCO

CO=1.18271512
CH=1.12830969
HCO=123.65060441

$end

$comment
positive
$end

$xc_functional
   X HF 1.0
   X BNL 1.0
   C LYP 1.0
$end

$rem
SYMMETRY_DECOMPOSITION	0
exchange 		general
BASIS                   g3large
omega			700
separate_jk		true
mem_static              760
max_scf_cycles          200
scf_final_print         1
sym_ignore              true
$end

--------------------------------------------------------------
 Writing REM_CC_EA            3
 ----------------------------------------------------
       Standard Nuclear Orientation (Angstroms)
    I     Atom         X            Y            Z
 ----------------------------------------------------
    1      C       0.000000     0.000000     0.000000
    2      O       0.000000     0.000000     1.182715
    3      H       0.939241     0.000000    -0.625227
 ----------------------------------------------------
 Nuclear Repulsion Energy =    26.3683319341 hartrees
 There are        7 alpha and        7 beta electrons
 Requested basis set is G3large
 There are 26 shells and 94 basis functions

Total QAlloc Memory Limit   2000 MB
Mega-Array Size       743 MB
MEM_STATIC part       760 MB

                       Distance Matrix (Angstroms)
             C (  1)   O (  2)
   O (  2)  1.182715
   H (  3)  1.128310  2.037358
 
 A cutoff of  1.0D-08 yielded    347 shell pairs
 There are   4563 function pairs (  5830 Cartesian)
Evaluating contribution to one-electron hamiltonian from nuclear
 Smallest overlap matrix eigenvalue = 1.08E-03
 Multipole matrices computed through 2nd order

  Scale SEOQF with 1.000000e-01/1.000000e-01/1.000000e-01

 Standard Electronic Orientation quadrupole field applied
 Nucleus-field energy     =    -0.0000000012 hartrees
 Guess from superposition of atomic densities
 Warning:  Energy on first SCF cycle will be non-variational
 A restricted hybrid HF-DFT SCF calculation will be
 performed using Pulay DIIS extrapolation
 Exchange:     1.0000 Hartree-Fock + 1.0000 BNL
 Correlation:  1.0000 LYP
 Using SG-1 standard quadrature grid
 SCF converges when DIIS error is below 1.0E-05
 Warning!  Inaccurate integrated density:
   Number of electrons =    14
   Numerical integral  =    15.000038108890
   Relative error      =     7.1431293492 %
 ---------------------------------------
  Cycle       Energy         DIIS Error
 ---------------------------------------
    1    -113.0916755973      4.69E-02
    2    -112.4208021411      8.77E-03
    3    -112.4414714528      1.05E-02
    4    -112.5234860173      2.04E-03
    5    -112.5274219958      5.01E-04
    6    -112.5284249171      1.96E-04
    7    -112.5286409456      6.15E-05
    8    -112.5286597971      2.16E-05
    9    -112.5286631182      8.01E-06 Convergence criterion met
 ---------------------------------------
 One-Electron    Energy =  -201.1261352064
 Total Coulomb   Energy =    75.0524283339
 Alpha Exchange  Energy =    -2.1935174986
 Beta  Exchange  Energy =    -2.1935174986
 DFT   Exchange  Energy =    -7.9553786495
 DFT Correlation Energy =    -0.4808745319
 Nuclear Repu.   Energy =    26.3683319328
 Nuclear Attr.   Energy =  -312.7686043931
 Kinetic         Energy =   111.6424691868
 SCF time:  CPU 13.88 s  wall 24.22 s
 Final Alpha MO Eigenvalues
            1           2           3           4           5           6
    1 -19.4231640 -10.6967718  -1.7216061  -1.1663628  -1.0434571  -0.9717750
            7           8           9          10          11          12
    1  -0.9557002  -0.3632894  -0.2786876  -0.1419323  -0.1019569  -0.0809569
 Analysis of SCF Wavefunction
 
 --------------------------------------------------------------
                    Orbital Energies (a.u.)
 --------------------------------------------------------------
 
 Alpha MOs
 -- Occupied --
-19.423 -10.697  -1.722  -1.166  -1.043  -0.972  -0.956
 -- Virtual --
 -0.363  -0.279  -0.142  -0.102  -0.081  -0.076  -0.017   0.001
  0.039   0.072   0.083   0.118   0.204   0.294   0.331   0.342
  0.374   0.418   0.473   0.594   0.606   0.728   0.802   0.804
  0.872   0.903   0.947   1.154   1.211   1.309   1.434   1.480
  1.757   1.907   2.189   2.243   2.413   2.597   2.621   2.633
  2.738   2.818   2.832   2.972   2.997   3.026   3.202   3.302
  3.367   3.447   3.823   3.873   4.050   4.701   4.754   4.813
  4.874   4.888   5.178   5.255   5.518   6.107   6.220   6.584
  6.600   6.642   6.966   7.039   7.359  24.198  26.946  27.192
 27.908  40.499  40.705  40.792  40.894  40.929  43.349  43.426
 43.534  43.559  43.619  45.508  45.534  46.303  49.980
 --------------------------------------------------------------
 
          Ground-State Mulliken Net Atomic Charges

     Atom                 Charge (a.u.)
  ----------------------------------------
      1 C                     0.419662
      2 O                     0.235770
      3 H                     0.344568
  ----------------------------------------
  Sum of atomic charges =     1.000000

 -----------------------------------------------------------------
                    Cartesian Multipole Moments
 -----------------------------------------------------------------
    Charge (ESU x 10^10)
                 4.8032
    Dipole Moment (Debye)
         X       1.3232      Y       0.0001      Z      -0.7687
       Tot       1.5303
    Quadrupole Moments (Debye-Ang)
        XX      -7.1166     XY      -0.0001     YY      -9.0921
        XZ      -0.9881     YZ      -0.0001     ZZ      -8.0137
    Octapole Moments (Debye-Ang^2)
       XXX       0.8651    XXY       0.0000    XYY      -0.4920
       YYY       0.0001    XXZ      -6.6777    XYZ       0.0002
       YYZ      -5.3392    XZZ       0.5309    YZZ       0.0000
       ZZZ     -15.1013
    Hexadecapole Moments (Debye-Ang^3)
      XXXX      -6.5484   XXXY      -0.0001   XXYY      -2.6374
      XYYY      -0.0001   YYYY      -6.7871   XXXZ      -0.6376
      XXYZ       0.0000   XYYZ       0.3256   YYYZ       0.0000
      XXZZ      -8.1910   XYZZ       0.0002   YYZZ      -9.0164
      XZZZ       0.5366   YZZZ      -0.0002   ZZZZ     -45.4570
 -----------------------------------------------------------------
 Total job time:  28.56s(wall), 13.98s(cpu) 
 Mon Apr 11 17:42:27 2011

        *************************************************************
        *                                                           *
        *  Thank you very much for using Q-Chem.  Have a nice day.  *
        *                                                           *
        *************************************************************


0 sent ACK to 0 
now end server 0 ... 
