Process 0 of 1 is on cl123.stfx.acenet.ca - thread support 1
initial socket setup ...start
initial socket setup ...done 
now start server 0 ... 

cmd = /usr/bin/ssh clhead /usr/local/qchem/bin/get_hostid 1353198157 > /scratch/tmp/5998527.1.short.q/qchem23083/lic.dat
                  Welcome to Q-Chem
     A Quantum Leap Into The Future Of Chemistry

 Y. Shao, L. Fusti-Molnar, Y. Jung, J. Kussmann, C. Ochsenfeld,
 S. T. Brown, A. T. B. Gilbert, L. V. Slipchenko,S. V. Levchenko,
 D. P. O'Neill, R. A. DiStasio Jr., R. C. Lochan, T. Wang,
 G. J. O. Beran, N. A. Besley, J. M. Herbert, C. Y. Lin,
 T. Van Voorhis, S. H. Chien, A. Sodt, R. P. Steele, 
 V. A. Rassolov, P. E. Maslen, P. P. Korambath, R. D. Adamson,
 B. Austin, J. Baker, E. F. C. Byrd, H. Dachsel, R. J. Doerksen,
 A. Dreuw, B. D. Dunietz, A. D. Dutoi, T. R. Furlani,
 S. R. Gwaltney, A. Heyden, S. Hirata, C.-P. Hsu, G. Kedziora,
 R. Z. Khaliullin, P. Klunzinger, A. M. Lee, M. S. Lee, W. Liang,
 I. Lotan, N. Nair, B. Peters, E. I. Proynov, P. A. Pieniazek, 
 Y. M. Rhee, J. Ritchie, E. Rosta, C. D. Sherrill, 
 A. C. Simmonett, J. E. Subotnik, H. L. Woodcock III,
 W. Zhang, A. T. Bell, A. K. Chakraborty, D. M. Chipman,
 F. J. Keil, A. Warshel, W. J. Hehre, H. F. Schaefer III,
 J. Kong, A. I. Krylov, P. M. W. Gill, M. Head-Gordon,
 Q-Chem, Version 3.1, Q-Chem, Inc., Pittsburgh, PA (2007).

 Additional authors for Version 3.1: 
 Z. Gan, Y. Zhao, N. E. Schultz, D. Truhlar, E. Epifanovsky and M. Oana.

 Additional authors for Version 3.2: 
 R. Baer, B. R. Brooks, D. Casanova, J.-D. Chai, C.-L. Cheng, 
 C. Cramer, D. Crittenden, A. Ghysels, G. Hawkins, E. G. Hohenstein, 
 C. Kelley, W. Kurlancheek, D. Liotard, E. Livshits, P. Manohar, 
 A. Marenich, D. Neuhauser, R. Olson, M. A. Rohrdanz, K. S. Thanthiriwatte, 
 A. J. W. Thom, V. Vanovschi, C. F. Williams, Q. Wu and Z.-Q. You. 


 Intel X86 Linux Version

 Q-chem begins on Wed May 22 11:37:22 2013  

 Parallel job on  1  processors
Processing $rem in /usr/local/qchem/config/preferences.

theFileMan(): MAXOPENFILES=974 MAX_SUB_FILE_NUM=16
Maximum size of a physical file is 2.0 GB, maximum size of a tmp-file is 32.0 GB


--------------------------------------------------------------
User input:
--------------------------------------------------------------

$molecule
-1,2
C         -0.00766       -0.00000       -0.00626
O         -0.00215        0.00000        1.17183
F          1.15810        0.00000       -0.68919
C         -1.16221       -0.00000       -0.94411
H         -2.09119        0.00000       -0.38324
H         -1.10578        0.87911       -1.58454
H         -1.10578       -0.87911       -1.58454
$end

$comment
negative
$end

$xc_functional
C PBE   1.00
X wPBE  1.00
$end

$rem
SYMMETRY_DECOMPOSITION	0
exchange 		general
LRC_DFT                 true
BASIS                   g3large
omega			900
mem_static              760
max_scf_cycles          200
scf_final_print         1
sym_ignore              true
$end

--------------------------------------------------------------
 Writing REM_CC_EA            7
 ----------------------------------------------------
       Standard Nuclear Orientation (Angstroms)
    I     Atom         X            Y            Z
 ----------------------------------------------------
    1      C      -0.007660     0.000000    -0.006260
    2      O      -0.002150     0.000000     1.171830
    3      F       1.158100     0.000000    -0.689190
    4      C      -1.162210     0.000000    -0.944110
    5      H      -2.091190     0.000000    -0.383240
    6      H      -1.105780     0.879110    -1.584540
    7      H      -1.105780    -0.879110    -1.584540
 ----------------------------------------------------
 Nuclear Repulsion Energy =   119.3118408321 hartrees
 There are       17 alpha and       16 beta electrons
 Requested basis set is G3large
 There are 58 shells and 198 basis functions

Total QAlloc Memory Limit   2000 MB
Mega-Array Size       743 MB
MEM_STATIC part       760 MB

                       Distance Matrix (Angstroms)
             C (  1)   O (  2)   F (  3)   C (  4)   H (  5)   H (  6)
   O (  2)  1.178103
   F (  3)  1.351070  2.193074
   C (  4)  1.487464  2.413077  2.334271
   H (  5)  2.117359  2.604291  3.263662  1.085163
   H (  6)  2.114159  3.096516  2.588366  1.089114  1.785214
   H (  7)  2.114159  3.096516  2.588366  1.089114  1.785214  1.758220

 
 A cutoff of  1.0D-08 yielded   1557 shell pairs
 There are  18364 function pairs ( 23163 Cartesian)
Evaluating contribution to one-electron hamiltonian from nuclear
 Smallest overlap matrix eigenvalue = 1.27E-04
 Multipole matrices computed through 2nd order

  Scale SEOQF with 1.000000e-01/1.000000e-01/1.000000e-01

 Standard Electronic Orientation quadrupole field applied
 Nucleus-field energy     =    -0.0000000017 hartrees
 Guess from superposition of atomic densities
 Warning:  Energy on first SCF cycle will be non-variational
 Long-range K will be added via erf
 Coulomb attenuation parameter = 0.9 bohr**(-1)
 An unrestricted Kohn-Sham SCF calculation will be
 performed using Pulay DIIS extrapolation
 Exchange:  wPBE + LR-HF      Correlation:  PBE
 Using SG-1 standard quadrature grid
 SCF converges when DIIS error is below 1.0E-05
 Requested basis set is G3large
 There are 58 shells and 198 basis functions
 A cutoff of  1.0D-08 yielded   1557 shell pairs
 There are  18364 function pairs ( 23163 Cartesian)
 Warning!  Inaccurate integrated density:
   Number of electrons =    33
   Numerical integral  =    31.999815476587
   Relative error      =    -3.0308621922 %
 ---------------------------------------
  Cycle       Energy         DIIS Error
 ---------------------------------------
    1    -254.0526866503      3.43E-02
    2    -252.8359912755      5.55E-03
    3    -252.9164027230      4.28E-03
    4    -252.9746271588      5.16E-04
    5    -252.9772532425      2.51E-04
    6    -252.9779082427      8.78E-05
    7    -252.9781286193      4.03E-05
    8    -252.9782306248      2.10E-05
    9    -252.9782695433      8.69E-06 Convergence criterion met
 ---------------------------------------
 One-Electron    Energy =  -592.4457820593
 Total Coulomb   Energy =   251.4451324026
 Alpha Exchange  Energy =    -6.2633237154
 Beta  Exchange  Energy =    -5.9351353650
 DFT   Exchange  Energy =   -17.9847081550
 DFT Correlation Energy =    -1.1062934816
 Nuclear Repu.   Energy =   119.3118408305
 Nuclear Attr.   Energy =  -845.1668303642
 Kinetic         Energy =   252.7210483049
 <S^2> = 0.7599
 SCF time:  CPU 109.50 s  wall 110.32 s
 Final Alpha MO Eigenvalues
            1           2           3           4           5           6
    1 -24.4721936 -18.9060023 -10.1953682 -10.1718170  -1.2951347  -1.0757222
            7           8           9          10          11          12
    1  -0.8001721  -0.5921249  -0.4903732  -0.4783556  -0.4500443  -0.3951249
           13          14          15          16          17          18
    1  -0.3833698  -0.3421395  -0.3223025  -0.2173095   0.0219868   0.1573731
           19          20          21          22
    1   0.1888198   0.1892545   0.2388433   0.2698664
 Final Beta MO Eigenvalues
            1           2           3           4           5           6
    1 -24.4711354 -18.8992056 -10.1831689 -10.1738201  -1.2889281  -1.0578498
            7           8           9          10          11          12
    1  -0.7927251  -0.5748992  -0.4718075  -0.4526906  -0.4362973  -0.3838831
           13          14          15          16          17          18
    1  -0.3790039  -0.3366259  -0.2450993  -0.2101993   0.1598151   0.1881084
           19          20          21
    1   0.1894549   0.2392488   0.2706098
 Analysis of SCF Wavefunction
 
 --------------------------------------------------------------
                    Orbital Energies (a.u.)
 --------------------------------------------------------------
 
 Alpha MOs
 -- Occupied --
-24.472 -18.906 -10.195 -10.172  -1.295  -1.076  -0.800  -0.592
 -0.490  -0.478  -0.450  -0.395  -0.383  -0.342  -0.322  -0.217
  0.022
 -- Virtual --
  0.157   0.189   0.189   0.239   0.270   0.273   0.279   0.297
  0.306   0.328   0.339   0.428   0.435   0.486   0.501   0.507
  0.518   0.549   0.575   0.582   0.585   0.626   0.638   0.701
  0.718   0.761   0.817   0.832   0.886   0.893   0.922   0.948
  0.987   1.003   1.032   1.078   1.151   1.170   1.196   1.242
  1.336   1.355   1.419   1.451   1.462   1.487   1.524   1.529
  1.556   1.585   1.630   1.714   1.741   1.768   1.769   1.806
  1.818   1.833   1.896   1.985   2.005   2.119   2.128   2.271
  2.352   2.397   2.520   2.570   2.629   2.723   2.914   2.988
  3.073   3.074   3.108   3.205   3.216   3.234   3.264   3.351
  3.422   3.493   3.520   3.546   3.577   3.604   3.725   3.769
  3.799   3.834   3.875   3.904   4.017   4.023   4.054   4.068
  4.087   4.240   4.317   4.368   4.440   4.484   4.572   4.633
  4.690   4.758   4.785   4.876   4.891   4.953   5.034   5.153
  5.566   5.621   5.633   5.673   5.741   6.009   6.037   6.106
  6.129   6.265   6.744   6.786   6.887   7.020   7.153   7.161
  7.202   7.297   7.323   7.436   7.489   7.556   7.605   7.805
  8.002   8.064   8.120   8.243   9.652   9.705  10.017  10.211
 10.510  24.740  25.206  27.833  28.212  28.541  28.574  28.625
 28.959  41.385  41.415  41.494  41.577  41.601  41.628  41.668
 41.707  41.715  41.825  44.310  44.355  44.464  44.549  44.570
 46.320  46.454  47.191  50.662  50.679  50.680  50.819  50.868
 51.014  56.143  56.218  56.589  67.184
 
 Beta MOs
 -- Occupied --
-24.471 -18.899 -10.183 -10.174  -1.289  -1.058  -0.793  -0.575
 -0.472  -0.453  -0.436  -0.384  -0.379  -0.337  -0.245  -0.210
 -- Virtual --
  0.160   0.188   0.189   0.239   0.271   0.274   0.279   0.298
  0.307   0.330   0.340   0.410   0.429   0.458   0.487   0.504
  0.508   0.539   0.559   0.582   0.585   0.588   0.635   0.646
  0.706   0.723   0.764   0.833   0.857   0.891   0.922   0.924
  0.952   1.012   1.014   1.039   1.082   1.176   1.181   1.200
  1.245   1.350   1.359   1.425   1.453   1.474   1.492   1.533
  1.537   1.577   1.589   1.638   1.716   1.747   1.769   1.774
  1.808   1.820   1.835   1.898   1.989   2.009   2.136   2.141
  2.280   2.371   2.400   2.523   2.579   2.634   2.738   2.920
  2.996   3.078   3.082   3.119   3.224   3.232   3.269   3.271
  3.354   3.439   3.508   3.537   3.557   3.584   3.613   3.729
  3.779   3.827   3.859   3.879   3.913   4.028   4.034   4.061
  4.075   4.108   4.255   4.320   4.372   4.446   4.491   4.576
  4.637   4.703   4.761   4.791   4.880   4.896   4.960   5.038
  5.157   5.595   5.635   5.650   5.677   5.749   6.026   6.047
  6.106   6.134   6.269   6.750   6.788   6.905   7.022   7.156
  7.164   7.205   7.300   7.333   7.459   7.513   7.563   7.610
  7.829   8.007   8.068   8.122   8.252   9.657   9.710  10.021
 10.211  10.511  24.738  25.218  27.860  28.214  28.539  28.573
 28.631  28.963  41.396  41.421  41.495  41.595  41.607  41.627
 41.686  41.706  41.713  41.827  44.328  44.373  44.481  44.551
 44.577  46.337  46.458  47.194  50.666  50.684  50.685  50.822
 50.867  51.014  56.147  56.218  56.589  67.185
 --------------------------------------------------------------
 
          Ground-State Mulliken Net Atomic Charges

     Atom                 Charge (a.u.)    Spin (a.u.)
  --------------------------------------------------------
      1 C                     0.085069       0.682910
      2 O                    -0.706977       0.234899
      3 F                    -0.289148      -0.006377
      4 C                    -0.051672      -0.161729
      5 H                     0.042870       0.002247
      6 H                    -0.034010       0.117994
      7 H                    -0.046133       0.130055
  --------------------------------------------------------
  Sum of atomic charges =    -1.000000
  Sum of spin   charges =     1.000000

 -----------------------------------------------------------------
                    Cartesian Multipole Moments
 -----------------------------------------------------------------
    Charge (ESU x 10^10)
                -4.8032
    Dipole Moment (Debye)
         X      -0.8725      Y       0.0216      Z      -1.6570
       Tot       1.8728
    Quadrupole Moments (Debye-Ang)
        XX     -29.3934     XY      -0.0248     YY     -27.0153
        XZ      -0.8027     YZ      -0.0359     ZZ     -35.4096
    Octapole Moments (Debye-Ang^2)
       XXX      12.2015    XXY       0.1060    XYY       6.9642
       YYY       0.2148    XXZ      11.3570    XYZ       0.0462
       YYZ       8.7959    XZZ       7.9359    YZZ       0.1695
       ZZZ      16.5390
    Hexadecapole Moments (Debye-Ang^3)
      XXXX    -159.3965   XXXY      -0.2434   XXYY     -37.8599
      XYYY      -0.2574   YYYY     -54.3668   XXXZ     -26.8649
      XXYZ      -0.1610   XYYZ     -12.1348   YYYZ      -0.3802
      XXZZ     -63.7414   XYZZ      -0.1317   YYZZ     -46.4008
      XZZZ     -29.8874   YZZZ      -0.3658   ZZZZ    -196.7195
 -----------------------------------------------------------------
 Total job time:  110.56s(wall), 109.73s(cpu) 
 Wed May 22 11:39:12 2013

        *************************************************************
        *                                                           *
        *  Thank you very much for using Q-Chem.  Have a nice day.  *
        *                                                           *
        *************************************************************


0 sent ACK to 0 
now end server 0 ... 
 
**********************************************************************
Job 2 of 3 
**********************************************************************
 
Process 0 of 1 is on cl123.stfx.acenet.ca - thread support 1
initial socket setup ...start
initial socket setup ...done 
now start server 0 ... 

cmd = /usr/bin/ssh clhead /usr/local/qchem/bin/get_hostid 2107370807 > /scratch/tmp/5998527.1.short.q/qchem23083/lic.dat
                  Welcome to Q-Chem
     A Quantum Leap Into The Future Of Chemistry

 Y. Shao, L. Fusti-Molnar, Y. Jung, J. Kussmann, C. Ochsenfeld,
 S. T. Brown, A. T. B. Gilbert, L. V. Slipchenko,S. V. Levchenko,
 D. P. O'Neill, R. A. DiStasio Jr., R. C. Lochan, T. Wang,
 G. J. O. Beran, N. A. Besley, J. M. Herbert, C. Y. Lin,
 T. Van Voorhis, S. H. Chien, A. Sodt, R. P. Steele, 
 V. A. Rassolov, P. E. Maslen, P. P. Korambath, R. D. Adamson,
 B. Austin, J. Baker, E. F. C. Byrd, H. Dachsel, R. J. Doerksen,
 A. Dreuw, B. D. Dunietz, A. D. Dutoi, T. R. Furlani,
 S. R. Gwaltney, A. Heyden, S. Hirata, C.-P. Hsu, G. Kedziora,
 R. Z. Khaliullin, P. Klunzinger, A. M. Lee, M. S. Lee, W. Liang,
 I. Lotan, N. Nair, B. Peters, E. I. Proynov, P. A. Pieniazek, 
 Y. M. Rhee, J. Ritchie, E. Rosta, C. D. Sherrill, 
 A. C. Simmonett, J. E. Subotnik, H. L. Woodcock III,
 W. Zhang, A. T. Bell, A. K. Chakraborty, D. M. Chipman,
 F. J. Keil, A. Warshel, W. J. Hehre, H. F. Schaefer III,
 J. Kong, A. I. Krylov, P. M. W. Gill, M. Head-Gordon,
 Q-Chem, Version 3.1, Q-Chem, Inc., Pittsburgh, PA (2007).

 Additional authors for Version 3.1: 
 Z. Gan, Y. Zhao, N. E. Schultz, D. Truhlar, E. Epifanovsky and M. Oana.

 Additional authors for Version 3.2: 
 R. Baer, B. R. Brooks, D. Casanova, J.-D. Chai, C.-L. Cheng, 
 C. Cramer, D. Crittenden, A. Ghysels, G. Hawkins, E. G. Hohenstein, 
 C. Kelley, W. Kurlancheek, D. Liotard, E. Livshits, P. Manohar, 
 A. Marenich, D. Neuhauser, R. Olson, M. A. Rohrdanz, K. S. Thanthiriwatte, 
 A. J. W. Thom, V. Vanovschi, C. F. Williams, Q. Wu and Z.-Q. You. 


 Intel X86 Linux Version

 Q-chem begins on Wed May 22 11:39:15 2013  

 Parallel job on  1  processors
Processing $rem in /usr/local/qchem/config/preferences.

theFileMan(): MAXOPENFILES=974 MAX_SUB_FILE_NUM=16
Maximum size of a physical file is 2.0 GB, maximum size of a tmp-file is 32.0 GB


--------------------------------------------------------------
User input:
--------------------------------------------------------------

$molecule
0,1
C         -0.00766       -0.00000       -0.00626
O         -0.00215        0.00000        1.17183
F          1.15810        0.00000       -0.68919
C         -1.16221       -0.00000       -0.94411
H         -2.09119        0.00000       -0.38324
H         -1.10578        0.87911       -1.58454
H         -1.10578       -0.87911       -1.58454
$end

$comment
neutral
$end

$xc_functional
C PBE   1.00
X wPBE  1.00
$end


$rem
SYMMETRY_DECOMPOSITION	0
LRC_DFT                 true
exchange 		general
BASIS                   g3large
omega			900
mem_static              760
max_scf_cycles          200
scf_final_print         1
sym_ignore              true
$end

--------------------------------------------------------------
 Writing REM_CC_EA            7
 ----------------------------------------------------
       Standard Nuclear Orientation (Angstroms)
    I     Atom         X            Y            Z
 ----------------------------------------------------
    1      C      -0.007660     0.000000    -0.006260
    2      O      -0.002150     0.000000     1.171830
    3      F       1.158100     0.000000    -0.689190
    4      C      -1.162210     0.000000    -0.944110
    5      H      -2.091190     0.000000    -0.383240
    6      H      -1.105780     0.879110    -1.584540
    7      H      -1.105780    -0.879110    -1.584540
 ----------------------------------------------------
 Nuclear Repulsion Energy =   119.3118408321 hartrees
 There are       16 alpha and       16 beta electrons
 Requested basis set is G3large
 There are 58 shells and 198 basis functions

Total QAlloc Memory Limit   2000 MB
Mega-Array Size       743 MB
MEM_STATIC part       760 MB

                       Distance Matrix (Angstroms)
             C (  1)   O (  2)   F (  3)   C (  4)   H (  5)   H (  6)
   O (  2)  1.178103
   F (  3)  1.351070  2.193074
   C (  4)  1.487464  2.413077  2.334271
   H (  5)  2.117359  2.604291  3.263662  1.085163
   H (  6)  2.114159  3.096516  2.588366  1.089114  1.785214
   H (  7)  2.114159  3.096516  2.588366  1.089114  1.785214  1.758220

 
 A cutoff of  1.0D-08 yielded   1557 shell pairs
 There are  18364 function pairs ( 23163 Cartesian)
Evaluating contribution to one-electron hamiltonian from nuclear
 Smallest overlap matrix eigenvalue = 1.27E-04
 Multipole matrices computed through 2nd order

  Scale SEOQF with 1.000000e-01/1.000000e-01/1.000000e-01

 Standard Electronic Orientation quadrupole field applied
 Nucleus-field energy     =    -0.0000000017 hartrees
 Guess from superposition of atomic densities
 Warning:  Energy on first SCF cycle will be non-variational
 Long-range K will be added via erf
 Coulomb attenuation parameter = 0.9 bohr**(-1)
 A restricted Kohn-Sham SCF calculation will be
 performed using Pulay DIIS extrapolation
 Exchange:  wPBE + LR-HF      Correlation:  PBE
 Using SG-1 standard quadrature grid
 SCF converges when DIIS error is below 1.0E-05
 Requested basis set is G3large
 There are 58 shells and 198 basis functions
 A cutoff of  1.0D-08 yielded   1557 shell pairs
 There are  18364 function pairs ( 23163 Cartesian)
 ---------------------------------------
  Cycle       Energy         DIIS Error
 ---------------------------------------
    1    -254.0526866503      3.43E-02
    2    -252.8983305203      5.80E-03
    3    -252.9603452332      5.00E-03
    4    -253.0368406580      5.78E-04
    5    -253.0388545446      2.92E-04
    6    -253.0392521940      9.44E-05
    7    -253.0393103337      3.02E-05
    8    -253.0393222569      9.86E-06 Convergence criterion met
 ---------------------------------------
 One-Electron    Energy =  -583.6463713189
 Total Coulomb   Energy =   242.2291491454
 Alpha Exchange  Energy =    -5.9748121843
 Beta  Exchange  Energy =    -5.9748121843
 DFT   Exchange  Energy =   -17.9084417304
 DFT Correlation Energy =    -1.0758748149
 Nuclear Repu.   Energy =   119.3118408305
 Nuclear Attr.   Energy =  -835.8193865053
 Kinetic         Energy =   252.1730151864
 SCF time:  CPU 77.95 s  wall 79.10 s
 Final Alpha MO Eigenvalues
            1           2           3           4           5           6
    1 -24.7422400 -19.2336160 -10.5662921 -10.4051151  -1.5666082  -1.3822921
            7           8           9          10          11          12
    1  -1.0543694  -0.8507945  -0.7438513  -0.7349926  -0.7250305  -0.6348152
           13          14          15          16          17          18
    1  -0.6283703  -0.6047324  -0.5618270  -0.5066716   0.0338014   0.0624377
           19          20          21
    1   0.0678569   0.0918346   0.1030139
 Analysis of SCF Wavefunction
 
 --------------------------------------------------------------
                    Orbital Energies (a.u.)
 --------------------------------------------------------------
 
 Alpha MOs
 -- Occupied --
-24.742 -19.234 -10.566 -10.405  -1.567  -1.382  -1.054  -0.851
 -0.744  -0.735  -0.725  -0.635  -0.628  -0.605  -0.562  -0.507
 -- Virtual --
  0.034   0.062   0.068   0.092   0.103   0.127   0.130   0.134
  0.146   0.150   0.169   0.188   0.247   0.257   0.304   0.315
  0.326   0.337   0.351   0.377   0.394   0.399   0.420   0.447
  0.489   0.519   0.555   0.596   0.621   0.649   0.677   0.704
  0.734   0.755   0.779   0.790   0.861   0.900   0.901   0.988
  1.014   1.100   1.119   1.186   1.230   1.230   1.248   1.283
  1.287   1.319   1.356   1.394   1.478   1.513   1.537   1.550
  1.585   1.587   1.606   1.666   1.735   1.766   1.849   1.858
  1.996   2.082   2.150   2.259   2.319   2.375   2.456   2.651
  2.736   2.807   2.820   2.842   2.908   2.953   2.957   2.995
  3.116   3.130   3.226   3.240   3.300   3.334   3.347   3.467
  3.506   3.508   3.561   3.606   3.648   3.734   3.748   3.781
  3.807   3.809   3.967   4.072   4.122   4.177   4.227   4.329
  4.390   4.433   4.493   4.509   4.641   4.644   4.708   4.778
  4.893   5.265   5.324   5.333   5.404   5.448   5.704   5.744
  5.877   5.886   5.975   6.484   6.519   6.584   6.741   6.893
  6.901   6.930   7.027   7.044   7.142   7.189   7.255   7.331
  7.502   7.701   7.778   7.838   7.943   9.391   9.444   9.752
  9.948  10.244  24.499  24.850  27.467  27.911  28.276  28.307
 28.342  28.640  41.026  41.176  41.205  41.231  41.258  41.295
 41.396  41.400  41.482  41.525  43.988  44.032  44.140  44.225
 44.245  45.994  46.129  46.864  50.359  50.395  50.413  50.549
 50.595  50.741  55.874  55.949  56.318  66.914
 --------------------------------------------------------------
 
          Ground-State Mulliken Net Atomic Charges

     Atom                 Charge (a.u.)
  ----------------------------------------
      1 C                     0.301487
      2 O                    -0.360062
      3 F                    -0.172593
      4 C                    -0.062403
      5 H                     0.093070
      6 H                     0.100243
      7 H                     0.100257
  ----------------------------------------
  Sum of atomic charges =     0.000000

 -----------------------------------------------------------------
                    Cartesian Multipole Moments
 -----------------------------------------------------------------
    Charge (ESU x 10^10)
                 0.0000
    Dipole Moment (Debye)
         X      -2.1858      Y       0.0001      Z      -2.5041
       Tot       3.3239
    Quadrupole Moments (Debye-Ang)
        XX     -22.1152     XY       0.0001     YY     -20.9513
        XZ       1.9114     YZ       0.0001     ZZ     -24.2966
    Octapole Moments (Debye-Ang^2)
       XXX       4.3626    XXY       0.0005    XYY       2.7928
       YYY       0.0001    XXZ       4.2836    XYZ      -0.0001
       YYZ       2.6762    XZZ       1.1189    YZZ      -0.0001
       ZZZ       7.1694
    Hexadecapole Moments (Debye-Ang^3)
      XXXX    -120.9084   XXXY      -0.0001   XXYY     -25.3443
      XYYY      -0.0001   YYYY     -23.1879   XXXZ     -13.5059
      XXYZ       0.0000   XYYZ      -3.0370   YYYZ       0.0001
      XXZZ     -42.7242   XYZZ       0.0006   YYZZ     -21.9970
      XZZZ     -10.8366   YZZZ       0.0008   ZZZZ    -127.2273
 -----------------------------------------------------------------
 Total job time:  79.33s(wall), 78.17s(cpu) 
 Wed May 22 11:40:35 2013

        *************************************************************
        *                                                           *
        *  Thank you very much for using Q-Chem.  Have a nice day.  *
        *                                                           *
        *************************************************************


0 sent ACK to 0 
now end server 0 ... 
 
**********************************************************************
Job 3 of 3 
**********************************************************************
 
Process 0 of 1 is on cl123.stfx.acenet.ca - thread support 1
initial socket setup ...start
initial socket setup ...done 
now start server 0 ... 

cmd = /usr/bin/ssh clhead /usr/local/qchem/bin/get_hostid 801631889 > /scratch/tmp/5998527.1.short.q/qchem23083/lic.dat
                  Welcome to Q-Chem
     A Quantum Leap Into The Future Of Chemistry

 Y. Shao, L. Fusti-Molnar, Y. Jung, J. Kussmann, C. Ochsenfeld,
 S. T. Brown, A. T. B. Gilbert, L. V. Slipchenko,S. V. Levchenko,
 D. P. O'Neill, R. A. DiStasio Jr., R. C. Lochan, T. Wang,
 G. J. O. Beran, N. A. Besley, J. M. Herbert, C. Y. Lin,
 T. Van Voorhis, S. H. Chien, A. Sodt, R. P. Steele, 
 V. A. Rassolov, P. E. Maslen, P. P. Korambath, R. D. Adamson,
 B. Austin, J. Baker, E. F. C. Byrd, H. Dachsel, R. J. Doerksen,
 A. Dreuw, B. D. Dunietz, A. D. Dutoi, T. R. Furlani,
 S. R. Gwaltney, A. Heyden, S. Hirata, C.-P. Hsu, G. Kedziora,
 R. Z. Khaliullin, P. Klunzinger, A. M. Lee, M. S. Lee, W. Liang,
 I. Lotan, N. Nair, B. Peters, E. I. Proynov, P. A. Pieniazek, 
 Y. M. Rhee, J. Ritchie, E. Rosta, C. D. Sherrill, 
 A. C. Simmonett, J. E. Subotnik, H. L. Woodcock III,
 W. Zhang, A. T. Bell, A. K. Chakraborty, D. M. Chipman,
 F. J. Keil, A. Warshel, W. J. Hehre, H. F. Schaefer III,
 J. Kong, A. I. Krylov, P. M. W. Gill, M. Head-Gordon,
 Q-Chem, Version 3.1, Q-Chem, Inc., Pittsburgh, PA (2007).

 Additional authors for Version 3.1: 
 Z. Gan, Y. Zhao, N. E. Schultz, D. Truhlar, E. Epifanovsky and M. Oana.

 Additional authors for Version 3.2: 
 R. Baer, B. R. Brooks, D. Casanova, J.-D. Chai, C.-L. Cheng, 
 C. Cramer, D. Crittenden, A. Ghysels, G. Hawkins, E. G. Hohenstein, 
 C. Kelley, W. Kurlancheek, D. Liotard, E. Livshits, P. Manohar, 
 A. Marenich, D. Neuhauser, R. Olson, M. A. Rohrdanz, K. S. Thanthiriwatte, 
 A. J. W. Thom, V. Vanovschi, C. F. Williams, Q. Wu and Z.-Q. You. 


 Intel X86 Linux Version

 Q-chem begins on Wed May 22 11:40:38 2013  

 Parallel job on  1  processors
Processing $rem in /usr/local/qchem/config/preferences.

theFileMan(): MAXOPENFILES=974 MAX_SUB_FILE_NUM=16
Maximum size of a physical file is 2.0 GB, maximum size of a tmp-file is 32.0 GB


--------------------------------------------------------------
User input:
--------------------------------------------------------------

$molecule
1,2
C         -0.00766       -0.00000       -0.00626
O         -0.00215        0.00000        1.17183
F          1.15810        0.00000       -0.68919
C         -1.16221       -0.00000       -0.94411
H         -2.09119        0.00000       -0.38324
H         -1.10578        0.87911       -1.58454
H         -1.10578       -0.87911       -1.58454
$end

$comment
positive
$end

$xc_functional
C PBE   1.00
X wPBE  1.00
$end

$rem
SYMMETRY_DECOMPOSITION	0
LRC_DFT                 true
exchange 		general
BASIS                   g3large
omega			900
mem_static              760
max_scf_cycles          200
scf_final_print         1
sym_ignore              true
$end

--------------------------------------------------------------
 Writing REM_CC_EA            7
 ----------------------------------------------------
       Standard Nuclear Orientation (Angstroms)
    I     Atom         X            Y            Z
 ----------------------------------------------------
    1      C      -0.007660     0.000000    -0.006260
    2      O      -0.002150     0.000000     1.171830
    3      F       1.158100     0.000000    -0.689190
    4      C      -1.162210     0.000000    -0.944110
    5      H      -2.091190     0.000000    -0.383240
    6      H      -1.105780     0.879110    -1.584540
    7      H      -1.105780    -0.879110    -1.584540
 ----------------------------------------------------
 Nuclear Repulsion Energy =   119.3118408321 hartrees
 There are       16 alpha and       15 beta electrons
 Requested basis set is G3large
 There are 58 shells and 198 basis functions

Total QAlloc Memory Limit   2000 MB
Mega-Array Size       743 MB
MEM_STATIC part       760 MB

                       Distance Matrix (Angstroms)
             C (  1)   O (  2)   F (  3)   C (  4)   H (  5)   H (  6)
   O (  2)  1.178103
   F (  3)  1.351070  2.193074
   C (  4)  1.487464  2.413077  2.334271
   H (  5)  2.117359  2.604291  3.263662  1.085163
   H (  6)  2.114159  3.096516  2.588366  1.089114  1.785214
   H (  7)  2.114159  3.096516  2.588366  1.089114  1.785214  1.758220

 
 A cutoff of  1.0D-08 yielded   1557 shell pairs
 There are  18364 function pairs ( 23163 Cartesian)
Evaluating contribution to one-electron hamiltonian from nuclear
 Smallest overlap matrix eigenvalue = 1.27E-04
 Multipole matrices computed through 2nd order

  Scale SEOQF with 1.000000e-01/1.000000e-01/1.000000e-01

 Standard Electronic Orientation quadrupole field applied
 Nucleus-field energy     =    -0.0000000017 hartrees
 Guess from superposition of atomic densities
 Warning:  Energy on first SCF cycle will be non-variational
 Long-range K will be added via erf
 Coulomb attenuation parameter = 0.9 bohr**(-1)
 An unrestricted Kohn-Sham SCF calculation will be
 performed using Pulay DIIS extrapolation
 Exchange:  wPBE + LR-HF      Correlation:  PBE
 Using SG-1 standard quadrature grid
 SCF converges when DIIS error is below 1.0E-05
 Requested basis set is G3large
 There are 58 shells and 198 basis functions
 A cutoff of  1.0D-08 yielded   1557 shell pairs
 There are  18364 function pairs ( 23163 Cartesian)
 Warning!  Inaccurate integrated density:
   Number of electrons =    31
   Numerical integral  =    31.999815476587
   Relative error      =     3.2252112148 %
 ---------------------------------------
  Cycle       Energy         DIIS Error
 ---------------------------------------
    1    -254.0526866503      3.43E-02
    2    -252.3925260117      5.45E-03
    3    -252.5169076154      3.90E-03
    4    -252.5747887690      8.12E-04
    5    -252.5861737625      4.61E-04
    6    -252.5932547183      2.50E-04
    7    -252.5971385503      1.83E-04
    8    -252.5990209604      9.40E-05
    9    -252.5996818541      4.75E-05
   10    -252.5998707359      2.36E-05
   11    -252.5999195293      1.18E-05
   12    -252.5999258773      3.15E-06 Convergence criterion met
 ---------------------------------------
 One-Electron    Energy =  -573.6340651634
 Total Coulomb   Energy =   232.2739394761
 Alpha Exchange  Energy =    -6.0494920914
 Beta  Exchange  Energy =    -5.6320154667
 DFT   Exchange  Energy =   -17.8374409946
 DFT Correlation Energy =    -1.0326924679
 Nuclear Repu.   Energy =   119.3118408305
 Nuclear Attr.   Energy =  -825.4694133124
 Kinetic         Energy =   251.8353481490
 <S^2> = 0.7601
 SCF time:  CPU 145.19 s  wall 146.42 s
 Final Alpha MO Eigenvalues
            1           2           3           4           5           6
    1 -25.0453213 -19.6948511 -10.8997307 -10.6518760  -1.8803252  -1.7955259
            7           8           9          10          11          12
    1  -1.3254364  -1.1647227  -1.1115407  -1.0573192  -1.0511955  -0.9568926
           13          14          15          16          17          18
    1  -0.9379395  -0.8834460  -0.8539081  -0.8505904  -0.2050046  -0.1137558
           19          20          21
    1  -0.0700938  -0.0679161  -0.0669912
 Final Beta MO Eigenvalues
            1           2           3           4           5           6
    1 -25.0424380 -19.6705466 -10.9021856 -10.6503519  -1.8582290  -1.7294754
            7           8           9          10          11          12
    1  -1.3077479  -1.1276779  -1.0588874  -1.0388657  -0.9935914  -0.9203490
           13          14          15          16          17          18
    1  -0.9014591  -0.8496467  -0.8475154  -0.3715310  -0.2026541  -0.1125138
           19          20
    1  -0.0698737  -0.0666225
 Analysis of SCF Wavefunction
 
 --------------------------------------------------------------
                    Orbital Energies (a.u.)
 --------------------------------------------------------------
 
 Alpha MOs
 -- Occupied --
-25.045 -19.695 -10.900 -10.652  -1.880  -1.796  -1.325  -1.165
 -1.112  -1.057  -1.051  -0.957  -0.938  -0.883  -0.854  -0.851
 -- Virtual --
 -0.205  -0.114  -0.070  -0.068  -0.067  -0.032  -0.028  -0.023
 -0.011  -0.011   0.013   0.031   0.058   0.082   0.089   0.107
  0.121   0.130   0.139   0.155   0.182   0.209   0.235   0.244
  0.286   0.323   0.323   0.364   0.387   0.415   0.462   0.488
  0.502   0.513   0.524   0.585   0.603   0.626   0.653   0.772
  0.785   0.850   0.851   0.922   0.943   0.955   0.982   1.019
  1.038   1.069   1.120   1.147   1.234   1.279   1.291   1.299
  1.340   1.366   1.370   1.396   1.473   1.503   1.530   1.534
  1.651   1.764   1.878   1.960   2.055   2.103   2.160   2.331
  2.471   2.517   2.561   2.590   2.603   2.678   2.681   2.687
  2.829   2.884   2.949   2.949   3.048   3.070   3.094   3.180
  3.197   3.246   3.292   3.316   3.372   3.429   3.455   3.476
  3.533   3.550   3.683   3.823   3.870   3.891   3.970   4.072
  4.122   4.182   4.211   4.227   4.395   4.407   4.466   4.518
  4.606   4.847   4.881   4.907   4.990   5.099   5.324   5.342
  5.602   5.646   5.647   6.191   6.193   6.219   6.406   6.589
  6.612   6.623   6.633   6.718   6.746   6.795   6.887   7.025
  7.110   7.246   7.435   7.501   7.572   9.104   9.158   9.459
  9.653   9.949  24.245  24.524  27.134  27.614  27.955  28.062
 28.096  28.344  40.695  40.873  40.897  40.928  40.959  41.007
 41.081  41.149  41.236  41.264  43.502  43.549  43.698  43.738
 43.788  45.547  45.641  46.414  49.909  50.096  50.114  50.245
 50.288  50.431  55.574  55.650  56.012  66.613
 
 Beta MOs
 -- Occupied --
-25.042 -19.671 -10.902 -10.650  -1.858  -1.729  -1.308  -1.128
 -1.059  -1.039  -0.994  -0.920  -0.901  -0.850  -0.848
 -- Virtual --
 -0.372  -0.203  -0.113  -0.070  -0.067  -0.065  -0.031  -0.024
 -0.023  -0.011  -0.009   0.016   0.033   0.063   0.083   0.095
  0.112   0.128   0.132   0.155   0.161   0.193   0.210   0.239
  0.246   0.291   0.323   0.328   0.369   0.386   0.427   0.463
  0.490   0.509   0.514   0.527   0.586   0.605   0.628   0.655
  0.781   0.785   0.852   0.864   0.929   0.954   0.991   0.996
  1.024   1.043   1.074   1.127   1.158   1.241   1.285   1.294
  1.307   1.346   1.373   1.375   1.416   1.481   1.538   1.541
  1.553   1.682   1.769   1.890   1.975   2.057   2.109   2.168
  2.343   2.476   2.518   2.563   2.593   2.600   2.685   2.690
  2.699   2.830   2.885   2.948   2.949   3.049   3.075   3.096
  3.185   3.192   3.248   3.293   3.322   3.373   3.430   3.458
  3.481   3.535   3.555   3.686   3.826   3.875   3.900   3.972
  4.076   4.130   4.184   4.217   4.232   4.398   4.408   4.468
  4.522   4.624   4.885   4.949   4.958   5.069   5.124   5.342
  5.379   5.637   5.649   5.650   6.197   6.213   6.227   6.426
  6.610   6.623   6.635   6.708   6.731   6.814   6.830   6.902
  7.036   7.127   7.326   7.455   7.520   7.593   9.107   9.160
  9.468   9.664   9.962  24.247  24.522  27.132  27.613  27.953
 28.062  28.098  28.344  40.692  40.870  40.895  40.931  40.958
 41.008  41.079  41.150  41.237  41.266  43.564  43.609  43.708
 43.796  43.813  45.563  45.704  46.429  49.932  50.098  50.116
 50.253  50.296  50.442  55.576  55.652  56.019  66.616
 --------------------------------------------------------------
 
          Ground-State Mulliken Net Atomic Charges

     Atom                 Charge (a.u.)    Spin (a.u.)
  --------------------------------------------------------
      1 C                     0.348746      -0.109412
      2 O                     0.183298       0.938953
      3 F                    -0.000684       0.092927
      4 C                     0.016708       0.076799
      5 H                     0.118584      -0.004743
      6 H                     0.166653       0.002645
      7 H                     0.166694       0.002832
  --------------------------------------------------------
  Sum of atomic charges =     1.000000
  Sum of spin   charges =     1.000000

 -----------------------------------------------------------------
                    Cartesian Multipole Moments
 -----------------------------------------------------------------
    Charge (ESU x 10^10)
                 4.8032
    Dipole Moment (Debye)
         X      -2.6611      Y      -0.0005      Z      -1.2265
       Tot       2.9302
    Quadrupole Moments (Debye-Ang)
        XX     -15.7072     XY      -0.0009     YY     -18.5072
        XZ       3.1843     YZ       0.0003     ZZ     -15.4571
    Octapole Moments (Debye-Ang^2)
       XXX       0.8591    XXY      -0.0001    XYY       1.8596
       YYY      -0.0005    XXZ       1.4174    XYZ      -0.0027
       YYZ       1.8672    XZZ      -1.5535    YZZ      -0.0009
       ZZZ       7.9829
    Hexadecapole Moments (Debye-Ang^3)
      XXXX     -97.3706   XXXY       0.0008   XXYY     -21.7325
      XYYY      -0.0001   YYYY     -18.6346   XXXZ      -8.9195
      XXYZ       0.0005   XYYZ      -1.2747   YYYZ       0.0005
      XXZZ     -31.1255   XYZZ      -0.0010   YYZZ     -16.8030
      XZZZ      -4.5455   YZZZ       0.0013   ZZZZ     -97.3080
 -----------------------------------------------------------------
 Total job time:  146.65s(wall), 145.41s(cpu) 
 Wed May 22 11:43:04 2013

        *************************************************************
        *                                                           *
        *  Thank you very much for using Q-Chem.  Have a nice day.  *
        *                                                           *
        *************************************************************


0 sent ACK to 0 
now end server 0 ... 
