Process 0 of 1 is on cl136.stfx.acenet.ca - thread support 1
initial socket setup ...start
initial socket setup ...done 
now start server 0 ... 

cmd = /usr/bin/ssh clhead /usr/local/qchem/bin/get_hostid 2017313615 > /globalscratch/itamblyn/bnl/g297_b3lyp_neut_g03Large_worked/g2g71053/omega2000/qchem11006/lic.dat
                  Welcome to Q-Chem
     A Quantum Leap Into The Future Of Chemistry

 Y. Shao, L. Fusti-Molnar, Y. Jung, J. Kussmann, C. Ochsenfeld,
 S. T. Brown, A. T. B. Gilbert, L. V. Slipchenko,S. V. Levchenko,
 D. P. O'Neill, R. A. DiStasio Jr., R. C. Lochan, T. Wang,
 G. J. O. Beran, N. A. Besley, J. M. Herbert, C. Y. Lin,
 T. Van Voorhis, S. H. Chien, A. Sodt, R. P. Steele, 
 V. A. Rassolov, P. E. Maslen, P. P. Korambath, R. D. Adamson,
 B. Austin, J. Baker, E. F. C. Byrd, H. Dachsel, R. J. Doerksen,
 A. Dreuw, B. D. Dunietz, A. D. Dutoi, T. R. Furlani,
 S. R. Gwaltney, A. Heyden, S. Hirata, C.-P. Hsu, G. Kedziora,
 R. Z. Khaliullin, P. Klunzinger, A. M. Lee, M. S. Lee, W. Liang,
 I. Lotan, N. Nair, B. Peters, E. I. Proynov, P. A. Pieniazek, 
 Y. M. Rhee, J. Ritchie, E. Rosta, C. D. Sherrill, 
 A. C. Simmonett, J. E. Subotnik, H. L. Woodcock III,
 W. Zhang, A. T. Bell, A. K. Chakraborty, D. M. Chipman,
 F. J. Keil, A. Warshel, W. J. Hehre, H. F. Schaefer III,
 J. Kong, A. I. Krylov, P. M. W. Gill, M. Head-Gordon,
 Q-Chem, Version 3.1, Q-Chem, Inc., Pittsburgh, PA (2007).

 Additional authors for Version 3.1: 
 Z. Gan, Y. Zhao, N. E. Schultz, D. Truhlar, E. Epifanovsky and M. Oana.

 Additional authors for Version 3.2: 
 R. Baer, B. R. Brooks, D. Casanova, J.-D. Chai, C.-L. Cheng, 
 C. Cramer, D. Crittenden, A. Ghysels, G. Hawkins, E. G. Hohenstein, 
 C. Kelley, W. Kurlancheek, D. Liotard, E. Livshits, P. Manohar, 
 A. Marenich, D. Neuhauser, R. Olson, M. A. Rohrdanz, K. S. Thanthiriwatte, 
 A. J. W. Thom, V. Vanovschi, C. F. Williams, Q. Wu and Z.-Q. You. 


 Intel X86 Linux Version

 Q-chem begins on Tue Apr 12 21:11:41 2011  

 Parallel job on  1  processors
Processing $rem in /usr/local/qchem/config/preferences.

theFileMan(): MAXOPENFILES=974 MAX_SUB_FILE_NUM=16
Maximum size of a physical file is 2.0 GB, maximum size of a tmp-file is 32.0 GB


--------------------------------------------------------------
User input:
--------------------------------------------------------------

$molecule
-1,2
O
H,1,OH
Cl,1,OCl,2,HOCl

OH=0.97539202
OCl=1.72761993
HOCl=102.3697763

$end

$comment
negative
$end

$xc_functional
   X HF 1.0
   X BNL 1.0
   C LYP 1.0
$end

$rem
SYMMETRY_DECOMPOSITION	0
exchange 		general
BASIS                   g3large
omega			2000
separate_jk		true
mem_static              760
max_scf_cycles          200
scf_final_print         1
sym_ignore              true
$end

--------------------------------------------------------------
 Writing REM_CC_EA            3
 ----------------------------------------------------
       Standard Nuclear Orientation (Angstroms)
    I     Atom         X            Y            Z
 ----------------------------------------------------
    1      O       0.000000     0.000000     0.000000
    2      H       0.000000     0.000000     0.975392
    3      Cl      1.687514     0.000000    -0.370091
 ----------------------------------------------------
 Nuclear Repulsion Energy =    50.1657951768 hartrees
 There are       14 alpha and       13 beta electrons
 Requested basis set is G3large
 There are 35 shells and 118 basis functions

Total QAlloc Memory Limit   2000 MB
Mega-Array Size       743 MB
MEM_STATIC part       760 MB

                       Distance Matrix (Angstroms)
             O (  1)   H (  2)
   H (  2)  0.975392
   Cl(  3)  1.727620  2.158246
 
 A cutoff of  1.0D-08 yielded    597 shell pairs
 There are   6931 function pairs (  9413 Cartesian)
Evaluating contribution to one-electron hamiltonian from nuclear
 Smallest overlap matrix eigenvalue = 2.94E-03
 Multipole matrices computed through 2nd order

  Scale SEOQF with 1.000000e-01/1.000000e-01/1.000000e-01

 Standard Electronic Orientation quadrupole field applied
 Nucleus-field energy     =     0.0000000014 hartrees
 Guess from superposition of atomic densities
 Warning:  Energy on first SCF cycle will be non-variational
 An unrestricted hybrid HF-DFT SCF calculation will be
 performed using Pulay DIIS extrapolation
 Exchange:     1.0000 Hartree-Fock + 1.0000 BNL
 Correlation:  1.0000 LYP
 Using SG-1 standard quadrature grid
 SCF converges when DIIS error is below 1.0E-05
 Warning!  Inaccurate integrated density:
   Number of electrons =    27
   Numerical integral  =    26.000011885683
   Relative error      =    -3.7036596827 %
 ---------------------------------------
  Cycle       Energy         DIIS Error
 ---------------------------------------
    1    -534.5575552681      3.41E-02
    2    -534.4009108568      6.22E-03
    3    -534.4527261373      4.64E-03
    4    -534.4803798831      7.08E-04
    5    -534.4825996806      3.09E-04
    6    -534.4833623168      1.28E-04
    7    -534.4835494903      4.45E-05
    8    -534.4835954967      2.28E-05
    9    -534.4836073276      1.32E-05
   10    -534.4836135724      6.97E-06 Convergence criterion met
 ---------------------------------------
 One-Electron    Energy =  -846.9905271196
 Total Coulomb   Energy =   298.2701406350
 Alpha Exchange  Energy =    -8.9283359271
 Beta  Exchange  Energy =    -8.4506961462
 DFT   Exchange  Energy =   -17.4982605436
 DFT Correlation Energy =    -1.0517296490
 Nuclear Repu.   Energy =    50.1657951782
 Nuclear Attr.   Energy = -1380.3780483847
 Kinetic         Energy =   533.3875212651
 <S^2> = 0.7630
 SCF time:  CPU 34.20 s  wall 46.50 s
 Final Alpha MO Eigenvalues
            1           2           3           4           5           6
    1-101.1183348 -19.3502925  -9.8472036  -7.5403074  -7.5285385  -7.5283553
            7           8           9          10          11          12
    1  -1.1420053  -0.8084522  -0.4671764  -0.3999085  -0.3487927  -0.2196983
           13          14          15          16          17          18
    1  -0.1937354  -0.0389537   0.1873821   0.2757566   0.2839012   0.2861673
           19
    1   0.3214100
 Final Beta MO Eigenvalues
            1           2           3           4           5           6
    1-101.1146561 -19.3331146  -9.8428742  -7.5287668  -7.5254653  -7.5253950
            7           8           9          10          11          12
    1  -1.0794846  -0.7625604  -0.4340304  -0.3257903  -0.3055701  -0.2000466
           13          14          15          16          17          18
    1  -0.1743168   0.1749714   0.2540484   0.2784491   0.2815273   0.3017585
 Analysis of SCF Wavefunction
 
 --------------------------------------------------------------
                    Orbital Energies (a.u.)
 --------------------------------------------------------------
 
 Alpha MOs
 -- Occupied --
******* -19.350  -9.847  -7.540  -7.529  -7.528  -1.142  -0.808
 -0.467  -0.400  -0.349  -0.220  -0.194  -0.039
 -- Virtual --
  0.187   0.276   0.284   0.286   0.321   0.411   0.438   0.444
  0.464   0.584   0.640   0.669   0.701   0.710   0.792   0.818
  0.840   0.842   0.897   1.071   1.192   1.318   1.420   1.476
  1.498   1.560   1.561   1.572   1.580   1.587   1.590   1.612
  1.638   1.647   1.683   1.806   1.905   1.994   2.066   2.290
  2.440   2.454   2.576   2.734   2.736   2.767   3.193   3.279
  4.190   4.391   4.691   4.984   4.995   5.000   5.001   5.021
  5.037   5.087   5.463   5.509   5.575   5.585   5.682   5.713
  5.717   5.760   5.832   5.906   5.974   6.170   6.182   6.547
  7.615   7.692   7.710   7.761   8.011   8.273  10.431  21.432
 21.444  21.689  28.041  28.119  28.126  28.134  28.261  37.835
 37.836  37.837  37.840  37.842  37.844  37.853  44.685  44.697
 44.704  44.732  44.819  46.643  46.773  47.186  51.042 217.234
 
 Beta MOs
 -- Occupied --
******* -19.333  -9.843  -7.529  -7.525  -7.525  -1.079  -0.763
 -0.434  -0.326  -0.306  -0.200  -0.174
 -- Virtual --
  0.175   0.254   0.278   0.282   0.302   0.395   0.411   0.445
  0.448   0.475   0.586   0.642   0.672   0.716   0.729   0.802
  0.842   0.844   0.861   0.903   1.070   1.202   1.320   1.456
  1.488   1.516   1.566   1.567   1.576   1.586   1.597   1.608
  1.623   1.640   1.651   1.703   1.815   1.916   2.008   2.087
  2.295   2.457   2.469   2.604   2.740   2.745   2.775   3.201
  3.295   4.190   4.393   4.695   4.997   5.004   5.006   5.007
  5.032   5.049   5.098   5.484   5.521   5.586   5.596   5.693
  5.716   5.723   5.779   5.846   5.921   5.988   6.177   6.196
  6.573   7.632   7.720   7.729   7.797   8.027   8.306  10.438
 21.435  21.447  21.700  28.044  28.122  28.132  28.141  28.269
 37.837  37.838  37.840  37.841  37.844  37.847  37.856  44.696
 44.716  44.727  44.752  44.841  46.654  46.794  47.196  51.059
217.238
 --------------------------------------------------------------
 
          Ground-State Mulliken Net Atomic Charges

     Atom                 Charge (a.u.)    Spin (a.u.)
  --------------------------------------------------------
      1 O                    -0.439163       0.242031
      2 H                     0.151245       0.076534
      3 Cl                   -0.712082       0.681435
  --------------------------------------------------------
  Sum of atomic charges =    -1.000000
  Sum of spin   charges =     1.000000

 -----------------------------------------------------------------
                    Cartesian Multipole Moments
 -----------------------------------------------------------------
    Charge (ESU x 10^10)
                -4.8032
    Dipole Moment (Debye)
         X      -5.5698      Y      -0.0004      Z       2.3182
       Tot       6.0329
    Quadrupole Moments (Debye-Ang)
        XX     -36.1130     XY       0.0002     YY     -23.2088
        XZ       2.6179     YZ      -0.0001     ZZ     -21.6885
    Octapole Moments (Debye-Ang^2)
       XXX    -106.3682    XXY       0.0012    XYY     -26.5495
       YYY      -0.0018    XXZ      10.1658    XYZ      -0.0004
       YYZ       4.7150    XZZ     -27.5346    YZZ      -0.0006
       ZZZ      15.7946
    Hexadecapole Moments (Debye-Ang^3)
      XXXX    -371.7338   XXXY       0.0063   XXYY     -58.7923
      XYYY       0.0002   YYYY     -32.4700   XXXZ      41.9034
      XXYZ      -0.0013   XYYZ      10.4432   YYYZ      -0.0002
      XXZZ     -63.4625   XYZZ       0.0002   YYZZ     -13.8263
      XZZZ      31.6221   YZZZ      -0.0002   ZZZZ     -48.6745
 -----------------------------------------------------------------
 Total job time:  47.61s(wall), 34.35s(cpu) 
 Tue Apr 12 21:12:29 2011

        *************************************************************
        *                                                           *
        *  Thank you very much for using Q-Chem.  Have a nice day.  *
        *                                                           *
        *************************************************************


0 sent ACK to 0 
now end server 0 ... 
 
**********************************************************************
Job 2 of 3 
**********************************************************************
 
Process 0 of 1 is on cl136.stfx.acenet.ca - thread support 1
initial socket setup ...start
initial socket setup ...done 
now start server 0 ... 

cmd = /usr/bin/ssh clhead /usr/local/qchem/bin/get_hostid 1834420041 > /globalscratch/itamblyn/bnl/g297_b3lyp_neut_g03Large_worked/g2g71053/omega2000/qchem11006/lic.dat
                  Welcome to Q-Chem
     A Quantum Leap Into The Future Of Chemistry

 Y. Shao, L. Fusti-Molnar, Y. Jung, J. Kussmann, C. Ochsenfeld,
 S. T. Brown, A. T. B. Gilbert, L. V. Slipchenko,S. V. Levchenko,
 D. P. O'Neill, R. A. DiStasio Jr., R. C. Lochan, T. Wang,
 G. J. O. Beran, N. A. Besley, J. M. Herbert, C. Y. Lin,
 T. Van Voorhis, S. H. Chien, A. Sodt, R. P. Steele, 
 V. A. Rassolov, P. E. Maslen, P. P. Korambath, R. D. Adamson,
 B. Austin, J. Baker, E. F. C. Byrd, H. Dachsel, R. J. Doerksen,
 A. Dreuw, B. D. Dunietz, A. D. Dutoi, T. R. Furlani,
 S. R. Gwaltney, A. Heyden, S. Hirata, C.-P. Hsu, G. Kedziora,
 R. Z. Khaliullin, P. Klunzinger, A. M. Lee, M. S. Lee, W. Liang,
 I. Lotan, N. Nair, B. Peters, E. I. Proynov, P. A. Pieniazek, 
 Y. M. Rhee, J. Ritchie, E. Rosta, C. D. Sherrill, 
 A. C. Simmonett, J. E. Subotnik, H. L. Woodcock III,
 W. Zhang, A. T. Bell, A. K. Chakraborty, D. M. Chipman,
 F. J. Keil, A. Warshel, W. J. Hehre, H. F. Schaefer III,
 J. Kong, A. I. Krylov, P. M. W. Gill, M. Head-Gordon,
 Q-Chem, Version 3.1, Q-Chem, Inc., Pittsburgh, PA (2007).

 Additional authors for Version 3.1: 
 Z. Gan, Y. Zhao, N. E. Schultz, D. Truhlar, E. Epifanovsky and M. Oana.

 Additional authors for Version 3.2: 
 R. Baer, B. R. Brooks, D. Casanova, J.-D. Chai, C.-L. Cheng, 
 C. Cramer, D. Crittenden, A. Ghysels, G. Hawkins, E. G. Hohenstein, 
 C. Kelley, W. Kurlancheek, D. Liotard, E. Livshits, P. Manohar, 
 A. Marenich, D. Neuhauser, R. Olson, M. A. Rohrdanz, K. S. Thanthiriwatte, 
 A. J. W. Thom, V. Vanovschi, C. F. Williams, Q. Wu and Z.-Q. You. 


 Intel X86 Linux Version

 Q-chem begins on Tue Apr 12 21:12:32 2011  

 Parallel job on  1  processors
Processing $rem in /usr/local/qchem/config/preferences.

theFileMan(): MAXOPENFILES=974 MAX_SUB_FILE_NUM=16
Maximum size of a physical file is 2.0 GB, maximum size of a tmp-file is 32.0 GB


--------------------------------------------------------------
User input:
--------------------------------------------------------------

$molecule
0,1
O
H,1,OH
Cl,1,OCl,2,HOCl

OH=0.97539202
OCl=1.72761993
HOCl=102.3697763

$end

$comment
neutral
$end

$xc_functional
   X HF 1.0
   X BNL 1.0
   C LYP 1.0
$end

$rem
SYMMETRY_DECOMPOSITION	0
exchange 		general
BASIS                   g3large
omega			2000
separate_jk		true
mem_static              760
max_scf_cycles          200
scf_final_print         1
sym_ignore              true
$end

--------------------------------------------------------------
 Writing REM_CC_EA            3
 ----------------------------------------------------
       Standard Nuclear Orientation (Angstroms)
    I     Atom         X            Y            Z
 ----------------------------------------------------
    1      O       0.000000     0.000000     0.000000
    2      H       0.000000     0.000000     0.975392
    3      Cl      1.687514     0.000000    -0.370091
 ----------------------------------------------------
 Nuclear Repulsion Energy =    50.1657951768 hartrees
 There are       13 alpha and       13 beta electrons
 Requested basis set is G3large
 There are 35 shells and 118 basis functions

Total QAlloc Memory Limit   2000 MB
Mega-Array Size       743 MB
MEM_STATIC part       760 MB

                       Distance Matrix (Angstroms)
             O (  1)   H (  2)
   H (  2)  0.975392
   Cl(  3)  1.727620  2.158246
 
 A cutoff of  1.0D-08 yielded    597 shell pairs
 There are   6931 function pairs (  9413 Cartesian)
Evaluating contribution to one-electron hamiltonian from nuclear
 Smallest overlap matrix eigenvalue = 2.94E-03
 Multipole matrices computed through 2nd order

  Scale SEOQF with 1.000000e-01/1.000000e-01/1.000000e-01

 Standard Electronic Orientation quadrupole field applied
 Nucleus-field energy     =     0.0000000014 hartrees
 Guess from superposition of atomic densities
 Warning:  Energy on first SCF cycle will be non-variational
 A restricted hybrid HF-DFT SCF calculation will be
 performed using Pulay DIIS extrapolation
 Exchange:     1.0000 Hartree-Fock + 1.0000 BNL
 Correlation:  1.0000 LYP
 Using SG-1 standard quadrature grid
 SCF converges when DIIS error is below 1.0E-05
 ---------------------------------------
  Cycle       Energy         DIIS Error
 ---------------------------------------
    1    -534.5575552681      3.41E-02
    2    -534.4399068982      4.72E-03
    3    -534.4777271917      1.84E-03
    4    -534.4836891593      7.82E-04
    5    -534.4856630073      3.72E-04
    6    -534.4862569518      1.30E-04
    7    -534.4863522962      3.95E-05
    8    -534.4863635361      1.44E-05
    9    -534.4863651961      6.56E-06 Convergence criterion met
 ---------------------------------------
 One-Electron    Energy =  -838.9429827121
 Total Coulomb   Energy =   289.9024774927
 Alpha Exchange  Energy =    -8.5582468649
 Beta  Exchange  Energy =    -8.5582468649
 DFT   Exchange  Energy =   -17.4699762023
 DFT Correlation Energy =    -1.0251852228
 Nuclear Repu.   Energy =    50.1657951782
 Nuclear Attr.   Energy = -1371.7115317410
 Kinetic         Energy =   532.7685490289
 SCF time:  CPU 26.65 s  wall 38.01 s
 Final Alpha MO Eigenvalues
            1           2           3           4           5           6
    1-101.4476104 -19.6794448 -10.1733755  -7.8666585  -7.8534614  -7.8532944
            7           8           9          10          11          12
    1  -1.4140744  -1.0839992  -0.7469187  -0.6406728  -0.6316613  -0.5059576
           13          14          15          16          17          18
    1  -0.4833807   0.0217196   0.0527479   0.1091773   0.1183887   0.1236936
 Analysis of SCF Wavefunction
 
 --------------------------------------------------------------
                    Orbital Energies (a.u.)
 --------------------------------------------------------------
 
 Alpha MOs
 -- Occupied --
******* -19.679 -10.173  -7.867  -7.853  -7.853  -1.414  -1.084
 -0.747  -0.641  -0.632  -0.506  -0.483
 -- Virtual --
  0.022   0.053   0.109   0.118   0.124   0.159   0.211   0.251
  0.252   0.274   0.376   0.385   0.417   0.451   0.456   0.556
  0.590   0.600   0.605   0.658   0.818   0.944   1.067   1.172
  1.210   1.236   1.279   1.282   1.300   1.306   1.307   1.310
  1.329   1.359   1.371   1.399   1.536   1.637   1.729   1.795
  2.013   2.162   2.178   2.291   2.448   2.455   2.489   2.911
  2.994   3.910   4.110   4.407   4.673   4.685   4.698   4.699
  4.710   4.722   4.773   5.151   5.197   5.265   5.282   5.382
  5.403   5.411   5.464   5.537   5.596   5.666   5.879   5.884
  6.234   7.315   7.396   7.413   7.466   7.715   7.975  10.113
 21.110  21.121  21.363  27.718  27.797  27.799  27.808  27.934
 37.508  37.509  37.510  37.515  37.517  37.517  37.523  44.363
 44.372  44.378  44.406  44.494  46.317  46.442  46.858  50.714
216.906
 --------------------------------------------------------------
 
          Ground-State Mulliken Net Atomic Charges

     Atom                 Charge (a.u.)
  ----------------------------------------
      1 O                    -0.314755
      2 H                     0.300572
      3 Cl                    0.014183
  ----------------------------------------
  Sum of atomic charges =     0.000000

 -----------------------------------------------------------------
                    Cartesian Multipole Moments
 -----------------------------------------------------------------
    Charge (ESU x 10^10)
                 0.0000
    Dipole Moment (Debye)
         X       0.2152      Y      -0.0001      Z       1.6860
       Tot       1.6996
    Quadrupole Moments (Debye-Ang)
        XX     -17.3110     XY      -0.0004     YY     -19.1498
        XZ      -0.7819     YZ       0.0001     ZZ     -16.2635
    Octapole Moments (Debye-Ang^2)
       XXX     -57.1208    XXY      -0.0026    XYY     -21.8816
       YYY      -0.0002    XXZ       1.8865    XYZ       0.0006
       YYZ       4.2894    XZZ     -21.2439    YZZ      -0.0002
       ZZZ      14.9937
    Hexadecapole Moments (Debye-Ang^3)
      XXXX    -205.4703   XXXY      -0.0080   XXYY     -43.5600
      XYYY      -0.0004   YYYY     -19.2727   XXXZ      14.9797
      XXYZ       0.0018   XYYZ       7.9639   YYYZ       0.0001
      XXZZ     -43.2043   XYZZ      -0.0006   YYZZ      -8.3867
      XZZZ      23.3062   YZZZ       0.0002   ZZZZ     -28.2427
 -----------------------------------------------------------------
 Total job time:  39.34s(wall), 26.80s(cpu) 
 Tue Apr 12 21:13:11 2011

        *************************************************************
        *                                                           *
        *  Thank you very much for using Q-Chem.  Have a nice day.  *
        *                                                           *
        *************************************************************


0 sent ACK to 0 
now end server 0 ... 
 
**********************************************************************
Job 3 of 3 
**********************************************************************
 
Process 0 of 1 is on cl136.stfx.acenet.ca - thread support 1
initial socket setup ...start
initial socket setup ...done 
now start server 0 ... 

cmd = /usr/bin/ssh clhead /usr/local/qchem/bin/get_hostid 1644327985 > /globalscratch/itamblyn/bnl/g297_b3lyp_neut_g03Large_worked/g2g71053/omega2000/qchem11006/lic.dat
                  Welcome to Q-Chem
     A Quantum Leap Into The Future Of Chemistry

 Y. Shao, L. Fusti-Molnar, Y. Jung, J. Kussmann, C. Ochsenfeld,
 S. T. Brown, A. T. B. Gilbert, L. V. Slipchenko,S. V. Levchenko,
 D. P. O'Neill, R. A. DiStasio Jr., R. C. Lochan, T. Wang,
 G. J. O. Beran, N. A. Besley, J. M. Herbert, C. Y. Lin,
 T. Van Voorhis, S. H. Chien, A. Sodt, R. P. Steele, 
 V. A. Rassolov, P. E. Maslen, P. P. Korambath, R. D. Adamson,
 B. Austin, J. Baker, E. F. C. Byrd, H. Dachsel, R. J. Doerksen,
 A. Dreuw, B. D. Dunietz, A. D. Dutoi, T. R. Furlani,
 S. R. Gwaltney, A. Heyden, S. Hirata, C.-P. Hsu, G. Kedziora,
 R. Z. Khaliullin, P. Klunzinger, A. M. Lee, M. S. Lee, W. Liang,
 I. Lotan, N. Nair, B. Peters, E. I. Proynov, P. A. Pieniazek, 
 Y. M. Rhee, J. Ritchie, E. Rosta, C. D. Sherrill, 
 A. C. Simmonett, J. E. Subotnik, H. L. Woodcock III,
 W. Zhang, A. T. Bell, A. K. Chakraborty, D. M. Chipman,
 F. J. Keil, A. Warshel, W. J. Hehre, H. F. Schaefer III,
 J. Kong, A. I. Krylov, P. M. W. Gill, M. Head-Gordon,
 Q-Chem, Version 3.1, Q-Chem, Inc., Pittsburgh, PA (2007).

 Additional authors for Version 3.1: 
 Z. Gan, Y. Zhao, N. E. Schultz, D. Truhlar, E. Epifanovsky and M. Oana.

 Additional authors for Version 3.2: 
 R. Baer, B. R. Brooks, D. Casanova, J.-D. Chai, C.-L. Cheng, 
 C. Cramer, D. Crittenden, A. Ghysels, G. Hawkins, E. G. Hohenstein, 
 C. Kelley, W. Kurlancheek, D. Liotard, E. Livshits, P. Manohar, 
 A. Marenich, D. Neuhauser, R. Olson, M. A. Rohrdanz, K. S. Thanthiriwatte, 
 A. J. W. Thom, V. Vanovschi, C. F. Williams, Q. Wu and Z.-Q. You. 


 Intel X86 Linux Version

 Q-chem begins on Tue Apr 12 21:13:14 2011  

 Parallel job on  1  processors
Processing $rem in /usr/local/qchem/config/preferences.

theFileMan(): MAXOPENFILES=974 MAX_SUB_FILE_NUM=16
Maximum size of a physical file is 2.0 GB, maximum size of a tmp-file is 32.0 GB


--------------------------------------------------------------
User input:
--------------------------------------------------------------

$molecule
1,2
O
H,1,OH
Cl,1,OCl,2,HOCl

OH=0.97539202
OCl=1.72761993
HOCl=102.3697763

$end

$comment
positive
$end

$xc_functional
   X HF 1.0
   X BNL 1.0
   C LYP 1.0
$end

$rem
SYMMETRY_DECOMPOSITION	0
exchange 		general
BASIS                   g3large
omega			2000
separate_jk		true
mem_static              760
max_scf_cycles          200
scf_final_print         1
sym_ignore              true
$end

--------------------------------------------------------------
 Writing REM_CC_EA            3
 ----------------------------------------------------
       Standard Nuclear Orientation (Angstroms)
    I     Atom         X            Y            Z
 ----------------------------------------------------
    1      O       0.000000     0.000000     0.000000
    2      H       0.000000     0.000000     0.975392
    3      Cl      1.687514     0.000000    -0.370091
 ----------------------------------------------------
 Nuclear Repulsion Energy =    50.1657951768 hartrees
 There are       13 alpha and       12 beta electrons
 Requested basis set is G3large
 There are 35 shells and 118 basis functions

Total QAlloc Memory Limit   2000 MB
Mega-Array Size       743 MB
MEM_STATIC part       760 MB

                       Distance Matrix (Angstroms)
             O (  1)   H (  2)
   H (  2)  0.975392
   Cl(  3)  1.727620  2.158246
 
 A cutoff of  1.0D-08 yielded    597 shell pairs
 There are   6931 function pairs (  9413 Cartesian)
Evaluating contribution to one-electron hamiltonian from nuclear
 Smallest overlap matrix eigenvalue = 2.94E-03
 Multipole matrices computed through 2nd order

  Scale SEOQF with 1.000000e-01/1.000000e-01/1.000000e-01

 Standard Electronic Orientation quadrupole field applied
 Nucleus-field energy     =     0.0000000014 hartrees
 Guess from superposition of atomic densities
 Warning:  Energy on first SCF cycle will be non-variational
 An unrestricted hybrid HF-DFT SCF calculation will be
 performed using Pulay DIIS extrapolation
 Exchange:     1.0000 Hartree-Fock + 1.0000 BNL
 Correlation:  1.0000 LYP
 Using SG-1 standard quadrature grid
 SCF converges when DIIS error is below 1.0E-05
 Warning!  Inaccurate integrated density:
   Number of electrons =    25
   Numerical integral  =    26.000011885683
   Relative error      =     4.0000475427 %
 ---------------------------------------
  Cycle       Energy         DIIS Error
 ---------------------------------------
    1    -534.5575552681      3.41E-02
    2    -533.9416632323      6.36E-03
    3    -534.0260768004      2.49E-03
    4    -534.0355344478      6.66E-04
    5    -534.0386500578      3.49E-04
    6    -534.0399521161      2.73E-04
    7    -534.0407024682      1.36E-04
    8    -534.0414172916      1.12E-04
    9    -534.0421106197      9.31E-05
   10    -534.0430971826      7.36E-05
   11    -534.0437651627      5.93E-05
   12    -534.0444603386      4.73E-05
   13    -534.0447356014      3.79E-05
   14    -534.0449613307      4.24E-05
   15    -534.0451601914      2.47E-05
   16    -534.0452931200      2.61E-05
   17    -534.0453110876      1.61E-05
   18    -534.0453193827      8.41E-06 Convergence criterion met
 ---------------------------------------
 One-Electron    Energy =  -829.3641756014
 Total Coulomb   Energy =   280.3673707696
 Alpha Exchange  Energy =    -8.6559481281
 Beta  Exchange  Energy =    -8.1287294376
 DFT   Exchange  Energy =   -17.4418841710
 DFT Correlation Energy =    -0.9877479924
 Nuclear Repu.   Energy =    50.1657951782
 Nuclear Attr.   Energy = -1361.5802518975
 Kinetic         Energy =   532.2160762961
 <S^2> = 0.7644
 SCF time:  CPU 62.75 s  wall 83.98 s
 Final Alpha MO Eigenvalues
            1           2           3           4           5           6
    1-101.8705507 -20.0344079 -10.5886533  -8.2863926  -8.2768296  -8.2638027
            7           8           9          10          11          12
    1  -1.7572226  -1.4770175  -1.0779469  -1.0148101  -0.9657189  -0.8858403
           13          14          15          16          17          18
    1  -0.8653193  -0.2746783  -0.1400807  -0.0818108  -0.0659183  -0.0553187
 Final Beta MO Eigenvalues
            1           2           3           4           5           6
    1-101.8631361 -20.0267545 -10.5815298  -8.2717332  -8.2592605  -8.2589335
            7           8           9          10          11          12
    1  -1.7297886  -1.3878372  -1.0661224  -0.9579670  -0.8784780  -0.8489783
           13          14          15          16          17
    1  -0.4031846  -0.2594245  -0.1382945  -0.0813945  -0.0586809
 Analysis of SCF Wavefunction
 
 --------------------------------------------------------------
                    Orbital Energies (a.u.)
 --------------------------------------------------------------
 
 Alpha MOs
 -- Occupied --
******* -20.034 -10.589  -8.286  -8.277  -8.264  -1.757  -1.477
 -1.078  -1.015  -0.966  -0.886  -0.865
 -- Virtual --
 -0.275  -0.140  -0.082  -0.066  -0.055  -0.032   0.001   0.039
  0.042   0.068   0.069   0.116   0.142   0.162   0.175   0.280
  0.317   0.320   0.341   0.411   0.551   0.676   0.796   0.849
  0.889   0.930   0.931   0.949   0.964   0.967   0.972   0.979
  1.005   1.031   1.050   1.060   1.242   1.350   1.432   1.471
  1.710   1.841   1.850   1.951   2.076   2.122   2.195   2.597
  2.685   3.619   3.818   4.109   4.280   4.285   4.290   4.306
  4.319   4.324   4.403   4.793   4.828   4.914   4.930   4.989
  4.997   5.070   5.131   5.206   5.247   5.303   5.559   5.562
  5.872   6.973   7.048   7.094   7.132   7.379   7.641   9.709
 20.679  20.714  20.957  27.296  27.375  27.386  27.392  27.525
 37.087  37.094  37.097  37.097  37.102  37.111  37.116  44.007
 44.013  44.017  44.054  44.146  45.958  46.089  46.510  50.361
216.485
 
 Beta MOs
 -- Occupied --
******* -20.027 -10.582  -8.272  -8.259  -8.259  -1.730  -1.388
 -1.066  -0.958  -0.878  -0.849
 -- Virtual --
 -0.403  -0.259  -0.138  -0.081  -0.059  -0.055  -0.031   0.006
  0.048   0.053   0.071   0.103   0.129   0.163   0.178   0.187
  0.292   0.324   0.344   0.350   0.412   0.557   0.676   0.798
  0.864   0.918   0.945   0.955   0.964   0.982   0.982   0.986
  0.992   1.011   1.051   1.068   1.070   1.245   1.353   1.438
  1.477   1.723   1.851   1.864   1.960   2.113   2.126   2.201
  2.601   2.686   3.621   3.818   4.111   4.309   4.310   4.312
  4.320   4.332   4.344   4.408   4.796   4.838   4.916   4.957
  5.000   5.007   5.077   5.139   5.216   5.249   5.314   5.563
  5.567   5.878   6.996   7.068   7.099   7.139   7.396   7.644
  9.720  20.706  20.719  20.962  27.311  27.389  27.397  27.400
 27.531  37.094  37.100  37.101  37.103  37.107  37.114  37.118
 44.021  44.026  44.029  44.060  44.149  45.970  46.092  46.514
 50.368 216.493
 --------------------------------------------------------------
 
          Ground-State Mulliken Net Atomic Charges

     Atom                 Charge (a.u.)    Spin (a.u.)
  --------------------------------------------------------
      1 O                    -0.056549       0.133415
      2 H                     0.364431      -0.003094
      3 Cl                    0.692118       0.869680
  --------------------------------------------------------
  Sum of atomic charges =     1.000000
  Sum of spin   charges =     1.000000

 -----------------------------------------------------------------
                    Cartesian Multipole Moments
 -----------------------------------------------------------------
    Charge (ESU x 10^10)
                 4.8032
    Dipole Moment (Debye)
         X       6.2096      Y       0.0014      Z       0.6553
       Tot       6.2441
    Quadrupole Moments (Debye-Ang)
        XX      -3.6992     XY       0.0126     YY     -15.1353
        XZ      -3.2189     YZ      -0.0107     ZZ     -13.0434
    Octapole Moments (Debye-Ang^2)
       XXX     -28.8261    XXY       0.0312    XYY     -15.7875
       YYY       0.0012    XXZ      -2.6871    XYZ      -0.0205
       YYZ       3.0393    XZZ     -16.9670    YZZ       0.0076
       ZZZ      13.1314
    Hexadecapole Moments (Debye-Ang^3)
      XXXX    -137.5446   XXXY       0.0857   XXYY     -30.4296
      XYYY       0.0097   YYYY     -12.1612   XXXZ       5.4422
      XXYZ      -0.0436   XYYZ       5.5668   YYYZ      -0.0084
      XXZZ     -33.8608   XYZZ       0.0173   YYZZ      -5.8422
      XZZZ      19.0111   YZZZ      -0.0127   ZZZZ     -21.0790
 -----------------------------------------------------------------
 Total job time:  85.21s(wall), 62.90s(cpu) 
 Tue Apr 12 21:14:39 2011

        *************************************************************
        *                                                           *
        *  Thank you very much for using Q-Chem.  Have a nice day.  *
        *                                                           *
        *************************************************************


0 sent ACK to 0 
now end server 0 ... 
