Process 0 of 1 is on cl054.stfx.acenet.ca - thread support 1
initial socket setup ...start
initial socket setup ...done 
now start server 0 ... 

cmd = /usr/bin/ssh clhead /usr/local/qchem/bin/get_hostid 2011368046 > /scratch/tmp/6000926.1.short.q/qchem726/lic.dat
                  Welcome to Q-Chem
     A Quantum Leap Into The Future Of Chemistry

 Y. Shao, L. Fusti-Molnar, Y. Jung, J. Kussmann, C. Ochsenfeld,
 S. T. Brown, A. T. B. Gilbert, L. V. Slipchenko,S. V. Levchenko,
 D. P. O'Neill, R. A. DiStasio Jr., R. C. Lochan, T. Wang,
 G. J. O. Beran, N. A. Besley, J. M. Herbert, C. Y. Lin,
 T. Van Voorhis, S. H. Chien, A. Sodt, R. P. Steele, 
 V. A. Rassolov, P. E. Maslen, P. P. Korambath, R. D. Adamson,
 B. Austin, J. Baker, E. F. C. Byrd, H. Dachsel, R. J. Doerksen,
 A. Dreuw, B. D. Dunietz, A. D. Dutoi, T. R. Furlani,
 S. R. Gwaltney, A. Heyden, S. Hirata, C.-P. Hsu, G. Kedziora,
 R. Z. Khaliullin, P. Klunzinger, A. M. Lee, M. S. Lee, W. Liang,
 I. Lotan, N. Nair, B. Peters, E. I. Proynov, P. A. Pieniazek, 
 Y. M. Rhee, J. Ritchie, E. Rosta, C. D. Sherrill, 
 A. C. Simmonett, J. E. Subotnik, H. L. Woodcock III,
 W. Zhang, A. T. Bell, A. K. Chakraborty, D. M. Chipman,
 F. J. Keil, A. Warshel, W. J. Hehre, H. F. Schaefer III,
 J. Kong, A. I. Krylov, P. M. W. Gill, M. Head-Gordon,
 Q-Chem, Version 3.1, Q-Chem, Inc., Pittsburgh, PA (2007).

 Additional authors for Version 3.1: 
 Z. Gan, Y. Zhao, N. E. Schultz, D. Truhlar, E. Epifanovsky and M. Oana.

 Additional authors for Version 3.2: 
 R. Baer, B. R. Brooks, D. Casanova, J.-D. Chai, C.-L. Cheng, 
 C. Cramer, D. Crittenden, A. Ghysels, G. Hawkins, E. G. Hohenstein, 
 C. Kelley, W. Kurlancheek, D. Liotard, E. Livshits, P. Manohar, 
 A. Marenich, D. Neuhauser, R. Olson, M. A. Rohrdanz, K. S. Thanthiriwatte, 
 A. J. W. Thom, V. Vanovschi, C. F. Williams, Q. Wu and Z.-Q. You. 


 Intel X86 Linux Version

 Q-chem begins on Wed May 22 20:12:37 2013  

 Parallel job on  1  processors
Processing $rem in /usr/local/qchem/config/preferences.

theFileMan(): MAXOPENFILES=974 MAX_SUB_FILE_NUM=16
Maximum size of a physical file is 2.0 GB, maximum size of a tmp-file is 32.0 GB


--------------------------------------------------------------
User input:
--------------------------------------------------------------

$molecule
-1,2
C          0.00000        0.00000        0.00000
C          0.00000        0.00000        1.29999
C          0.00000        0.00000       -1.29999
H          0.93152        0.00000        1.85791
H         -0.93152        0.00000        1.85791
H          0.00000       -0.93152       -1.85791
H          0.00000        0.93152       -1.85791
$end

$comment
negative
$end

$xc_functional
C PBE   1.00
X wPBE  1.00
$end

$rem
SYMMETRY_DECOMPOSITION	0
exchange 		general
LRC_DFT                 true
BASIS                   g3large
omega			900
mem_static              760
max_scf_cycles          200
scf_final_print         1
sym_ignore              true
$end

--------------------------------------------------------------
 Writing REM_CC_EA            7
 ----------------------------------------------------
       Standard Nuclear Orientation (Angstroms)
    I     Atom         X            Y            Z
 ----------------------------------------------------
    1      C       0.000000     0.000000     0.000000
    2      C       0.000000     0.000000     1.299990
    3      C       0.000000     0.000000    -1.299990
    4      H       0.931520     0.000000     1.857910
    5      H      -0.931520     0.000000     1.857910
    6      H       0.000000    -0.931520    -1.857910
    7      H       0.000000     0.931520    -1.857910
 ----------------------------------------------------
 Nuclear Repulsion Energy =    59.4052175437 hartrees
 There are       12 alpha and       11 beta electrons
 Requested basis set is G3large
 There are 54 shells and 166 basis functions

Total QAlloc Memory Limit   2000 MB
Mega-Array Size       743 MB
MEM_STATIC part       760 MB

                       Distance Matrix (Angstroms)
             C (  1)   C (  2)   C (  3)   H (  4)   H (  5)   H (  6)
   C (  2)  1.299990
   C (  3)  1.299990  2.599980
   H (  4)  2.078355  1.085820  3.292425
   H (  5)  2.078355  1.085820  3.292425  1.863040
   H (  6)  2.078355  3.292425  1.085820  3.942433  3.942433
   H (  7)  2.078355  3.292425  1.085820  3.942433  3.942433  1.863040

 
 A cutoff of  1.0D-08 yielded   1392 shell pairs
 There are  13284 function pairs ( 16389 Cartesian)
Evaluating contribution to one-electron hamiltonian from nuclear
 Smallest overlap matrix eigenvalue = 2.92E-06

 Q-Chem warning in module mkSTV.C, line 194:

 Overlap eigenvalue is smaller than square root of threshold

 Multipole matrices computed through 2nd order

  Scale SEOQF with 1.000000e-01/1.000000e-01/1.000000e-01

 Standard Electronic Orientation quadrupole field applied
 Nucleus-field energy     =    -0.0000000035 hartrees
 Guess from superposition of atomic densities
 Warning:  Energy on first SCF cycle will be non-variational
 Long-range K will be added via erf
 Coulomb attenuation parameter = 0.9 bohr**(-1)
 An unrestricted Kohn-Sham SCF calculation will be
 performed using Pulay DIIS extrapolation
 Exchange:  wPBE + LR-HF      Correlation:  PBE
 Using SG-1 standard quadrature grid
 SCF converges when DIIS error is below 1.0E-05
 Requested basis set is G3large
 There are 54 shells and 166 basis functions
 A cutoff of  1.0D-08 yielded   1392 shell pairs
 There are  13284 function pairs ( 16389 Cartesian)
 Warning!  Inaccurate integrated density:
   Number of electrons =    23
   Numerical integral  =    21.999578197634
   Relative error      =    -4.3496600103 %
 ---------------------------------------
  Cycle       Energy         DIIS Error
 ---------------------------------------
    1    -117.4668136139      3.53E-02
    2    -116.3919351247      4.22E-03
    3    -116.4718022781      2.60E-03
    4    -116.4992260028      4.74E-04
    5    -116.5037353008      2.52E-04
    6    -116.5053194980      1.43E-04
    7    -116.5070634850      1.18E-04
    8    -116.5086112946      1.12E-04
    9    -116.5093766337      1.13E-04
   10    -116.5044910306      2.39E-04
   11    -116.5105964463      1.35E-04
   12    -116.5114041780      1.32E-04
   13    -116.5104531320      1.44E-04
   14    -116.5090534904      1.72E-04
   15    -116.5077568801      2.11E-04
   16    -116.5083711291      1.96E-04
   17    -116.5086200704      1.86E-04
   18    -116.5085316417      1.89E-04
   19    -116.5084691983      1.89E-04
   20    -116.5090839064      1.74E-04
   21    -116.5099405777      9.50E-05
   22    -116.5106615580      1.16E-04
   23    -116.5120742795      1.25E-04
   24    -116.5102305493      1.22E-04
   25    -116.5013928437      5.70E-04
   26    -116.5071997355      2.21E-04
   27    -116.5051979979      3.02E-04
   28    -116.5061329940      2.58E-04
   29    -116.5075294266      1.95E-04
   30    -116.5071165552      2.08E-04
   31    -116.5072066515      2.04E-04
   32    -116.5067736959      2.18E-04
   33    -116.5053081408      2.85E-04
   34    -116.5068140885      2.16E-04
   35    -116.5078271591      1.85E-04
   36    -116.5045100873      3.60E-04
   37    -116.5058502695      2.71E-04
   38    -116.5016413438      5.55E-04
   39    -116.5042118349      3.37E-04
   40    -116.5045595816      3.24E-04
   41    -116.5046821802      3.19E-04
   42    -116.5054686449      2.66E-04
   43    -116.5054644728      2.67E-04
   44    -116.5051354552      2.80E-04
   45    -116.5071750060      2.00E-04
   46    -116.5077557333      1.81E-04
   47    -116.5071838645      2.02E-04
   48    -116.5073315453      2.04E-04
   49    -116.5059065318      2.54E-04
   50    -116.5077150117      1.84E-04
   51    -116.5079023695      1.82E-04
   52    -116.5084634230      1.79E-04
   53    -116.5077131191      1.75E-04
   54    -116.5067073509      2.08E-04
   55    -116.5077268574      1.75E-04
   56    -116.5075556463      1.80E-04
   57    -116.5073467371      1.91E-04
   58    -116.5080816950      1.66E-04
   59    -116.5077705087      1.76E-04
   60    -116.5085873995      9.45E-05
   61    -116.5092378826      1.08E-04
   62    -116.5107925683      1.23E-04
   63    -116.5090186873      1.20E-04
   64    -116.4992223762      6.59E-04
   65    -116.5058202817      2.45E-04
   66    -116.5050838590      2.69E-04
   67    -116.5089164160      1.65E-04
   68    -116.5047860879      3.15E-04
   69    -116.5012336290      5.33E-04
   70    -116.5028390077      4.21E-04
   71    -116.5024165221      4.40E-04
   72    -116.5027729401      4.29E-04
   73    -116.5027506285      4.35E-04
   74    -116.5029081773      4.26E-04
   75    -116.5019165405      4.87E-04
   76    -116.5017967792      4.90E-04
   77    -116.5017616179      4.94E-04
   78    -116.5036352046      3.66E-04
   79    -116.5008219729      5.46E-04
   80    -116.5020435351      4.62E-04
   81    -116.5040415137      2.68E-04
   82    -116.5050852679      1.13E-04
   83    -116.5065455913      1.18E-04
   84    -116.5076319233      1.21E-04
   85    -116.5109853509      1.40E-04
   86    -116.5140311278      1.13E-04
   87    -116.5124504547      1.33E-04
   88    -116.5074302127      2.07E-04
   89    -116.5071181068      1.38E-04
   90    -116.5058331814      1.92E-04
   91    -116.5088284151      1.57E-04
   92    -116.5058738722      4.01E-04
   93    -116.5040456256      5.29E-04
   94    -116.5064374075      3.84E-04
   95    -116.5060862425      4.01E-04
   96    -116.5054735682      4.36E-04
   97    -116.5054403252      4.43E-04
   98    -116.5054290920      4.39E-04
   99    -116.5057145746      4.16E-04
  100    -116.5066286641      3.61E-04
  101    -116.5062809553      4.09E-04
  102    -116.5078539665      2.44E-04
  103    -116.5087045932      1.11E-04
  104    -116.5100226252      1.26E-04
  105    -116.5106103172      1.29E-04
  106    -116.5092062796      1.27E-04
  107    -116.5064568713      1.86E-04
  108    -116.5083760067      1.84E-04
  109    -116.5084825234      2.07E-04
  110    -116.5089520412      1.97E-04
  111    -116.5103430629      1.72E-04
  112    -116.5085811864      2.26E-04
  113    -116.5087526349      2.21E-04
  114    -116.5086779242      2.24E-04
  115    -116.5083997108      2.30E-04
  116    -116.5093779799      1.24E-04
  117    -116.5100585381      1.12E-04
  118    -116.5117165260      1.29E-04
  119    -116.5115292412      1.28E-04
  120    -116.5124495687      9.78E-05
  121    -116.5136981690      1.25E-04
  122    -116.5112898164      1.23E-04
  123    -116.5090301147      1.53E-04
  124    -116.5102148508      1.53E-04
  125    -116.5098519671      1.82E-04
  126    -116.5115336452      1.44E-04
  127    -116.5119520978      1.41E-04
  128    -116.5112815720      1.50E-04
  129    -116.5114991174      1.46E-04
  130    -116.5117229320      1.45E-04
  131    -116.5120578389      1.42E-04
  132    -116.5129237516      9.31E-05
  133    -116.5138315969      1.19E-04
  134    -116.5155525480      1.08E-04
  135    -116.5161907844      6.70E-04
  136    -116.5179715202      9.66E-05
  137    -116.5193141306      4.78E-05
  138    -116.5193371999      9.75E-05
  139    -116.5193099107      1.06E-04
  140    -116.5195433204      6.30E-05
  141    -116.5197778044      4.77E-05
  142    -116.5199634925      5.20E-05
  143    -116.5193929742      3.23E-05
  144    -116.5192759126      2.06E-05
  145    -116.5193605273      1.03E-05
  146    -116.5194033173      5.97E-06 Convergence criterion met
 ---------------------------------------
 One-Electron    Energy =  -275.7076304042
 Total Coulomb   Energy =   117.4528458765
 Alpha Exchange  Energy =    -3.8607396289
 Beta  Exchange  Energy =    -3.7936487383
 DFT   Exchange  Energy =    -9.3124927258
 DFT Correlation Energy =    -0.7029552369
 Nuclear Repu.   Energy =    59.4052175403
 Nuclear Attr.   Energy =  -391.6933497942
 Kinetic         Energy =   115.9857193899
 <S^2> = 0.7571
 SCF time:  CPU 1288.09 s  wall 1301.52 s
 Final Alpha MO Eigenvalues
            1           2           3           4           5           6
    1 -10.2683645 -10.2433585 -10.2432045  -0.9430187  -0.8278877  -0.5987551
            7           8           9          10          11          12
    1  -0.5121652  -0.5041250  -0.5026589  -0.2860002  -0.2824808   0.0558371
           13          14          15          16          17
    1   0.1254035   0.1414643   0.1444786   0.2082941   0.2132301
 Final Beta MO Eigenvalues
            1           2           3           4           5           6
    1 -10.2658138 -10.2443513 -10.2441876  -0.9385115  -0.8307926  -0.5962667
            7           8           9          10          11          12
    1  -0.5116956  -0.4996042  -0.4990330  -0.2852142  -0.2832223   0.1389655
           13          14          15          16
    1   0.1532090   0.1573367   0.1587047   0.2152099
 Analysis of SCF Wavefunction
 
 --------------------------------------------------------------
                    Orbital Energies (a.u.)
 --------------------------------------------------------------
 
 Alpha MOs
 -- Occupied --
-10.268 -10.243 -10.243  -0.943  -0.828  -0.599  -0.512  -0.504
 -0.503  -0.286  -0.282   0.056
 -- Virtual --
  0.125   0.141   0.144   0.208   0.213   0.215   0.233   0.266
  0.267   0.284   0.297   0.306   0.313   0.326   0.326   0.364
  0.369   0.382   0.420   0.498   0.499   0.568   0.638   0.738
  0.743   0.745   0.758   0.759   0.771   0.828   0.836   0.839
  0.853   0.853   0.858   0.900   0.929   0.929   0.946   1.009
  1.053   1.081   1.180   1.181   1.198   1.199   1.237   1.275
  1.317   1.317   1.389   1.481   1.583   1.584   1.603   1.670
  1.691   1.747   1.747   1.779   1.788   1.852   1.892   1.952
  1.952   2.371   2.818   2.831   2.960   2.961   3.020   3.020
  3.048   3.068   3.068   3.101   3.110   3.119   3.119   3.322
  3.322   3.322   3.404   3.404   3.437   3.464   3.491   3.501
  3.501   3.517   3.533   3.541   3.542   3.598   3.770   3.770
  3.857   3.864   3.864   3.903   3.924   3.939   4.132   4.132
  4.198   4.208   4.382   4.450   4.552   4.552   4.586   4.604
  4.627   4.627   4.736   4.801   4.805   5.314   5.314   5.785
  5.845   5.926   5.944   5.945   6.062   6.062   7.008  24.137
 25.117  25.176  27.842  27.842  27.922  27.922  28.523  28.523
 28.552  28.696  29.706  41.221  41.247  41.365  41.375  41.468
 41.514  41.515  41.515  41.535  41.642  41.642  41.728  41.728
 41.783  41.791
 
 Beta MOs
 -- Occupied --
-10.266 -10.244 -10.244  -0.939  -0.831  -0.596  -0.512  -0.500
 -0.499  -0.285  -0.283
 -- Virtual --
  0.139   0.153   0.157   0.159   0.215   0.217   0.219   0.234
  0.261   0.264   0.285   0.300   0.311   0.312   0.325   0.326
  0.361   0.369   0.381   0.418   0.497   0.499   0.570   0.636
  0.738   0.740   0.746   0.757   0.758   0.767   0.827   0.836
  0.837   0.851   0.852   0.857   0.897   0.931   0.933   0.949
  1.011   1.057   1.082   1.181   1.181   1.198   1.199   1.238
  1.275   1.317   1.317   1.389   1.482   1.584   1.585   1.603
  1.670   1.689   1.746   1.746   1.779   1.788   1.851   1.890
  1.953   1.953   2.371   2.818   2.831   2.960   2.961   3.020
  3.020   3.049   3.071   3.072   3.101   3.111   3.122   3.123
  3.322   3.323   3.323   3.404   3.404   3.441   3.463   3.494
  3.501   3.501   3.518   3.532   3.542   3.542   3.597   3.770
  3.770   3.858   3.863   3.863   3.903   3.926   3.943   4.132
  4.132   4.198   4.207   4.383   4.450   4.552   4.552   4.586
  4.604   4.628   4.628   4.735   4.801   4.806   5.315   5.316
  5.785   5.845   5.927   5.944   5.945   6.063   6.064   7.008
 24.137  25.117  25.176  27.840  27.840  27.925  27.926  28.522
 28.523  28.551  28.695  29.707  41.221  41.251  41.364  41.373
 41.472  41.513  41.515  41.515  41.535  41.643  41.643  41.728
 41.728  41.782  41.792
 --------------------------------------------------------------
 
          Ground-State Mulliken Net Atomic Charges

     Atom                 Charge (a.u.)    Spin (a.u.)
  --------------------------------------------------------
      1 C                     0.184180       0.874921
      2 C                     0.606557      -1.350421
      3 C                     0.625011      -1.368365
      4 H                    -0.485752       0.590453
      5 H                    -0.711385       0.820523
      6 H                    -0.494538       0.599463
      7 H                    -0.724073       0.833426
  --------------------------------------------------------
  Sum of atomic charges =    -1.000000
  Sum of spin   charges =     1.000000

 -----------------------------------------------------------------
                    Cartesian Multipole Moments
 -----------------------------------------------------------------
    Charge (ESU x 10^10)
                -4.8032
    Dipole Moment (Debye)
         X       0.5634      Y      -0.5736      Z       0.0761
       Tot       0.8077
    Quadrupole Moments (Debye-Ang)
        XX     -48.4717     XY      -6.1311     YY     -48.7295
        XZ       2.0737     YZ       2.0991     ZZ     -56.1509
    Octapole Moments (Debye-Ang^2)
       XXX       6.9499    XXY      -1.2347    XYY       1.2088
       YYY      -7.0633    XXZ     -30.8952    XYZ       0.0172
       YYZ      31.8642    XZZ       6.2103    YZZ      -6.3064
       ZZZ       1.1806
    Hexadecapole Moments (Debye-Ang^3)
      XXXX    -419.8640   XXXY     -51.9176   XXYY    -125.4352
      XYYY     -51.9237   YYYY    -424.4541   XXXZ      21.1480
      XXYZ       5.4210   XYYZ       5.3586   YYYZ      21.4073
      XXZZ    -259.9942   XYZZ     -21.1742   YYZZ    -261.9958
      XZZZ      28.2620   YZZZ      28.6158   ZZZZ    -855.6627
 -----------------------------------------------------------------
 Total job time:  1301.72s(wall), 1288.27s(cpu) 
 Wed May 22 20:34:18 2013

        *************************************************************
        *                                                           *
        *  Thank you very much for using Q-Chem.  Have a nice day.  *
        *                                                           *
        *************************************************************


0 sent ACK to 0 
now end server 0 ... 
 
**********************************************************************
Job 2 of 3 
**********************************************************************
 
Process 0 of 1 is on cl054.stfx.acenet.ca - thread support 1
initial socket setup ...start
initial socket setup ...done 
now start server 0 ... 

cmd = /usr/bin/ssh clhead /usr/local/qchem/bin/get_hostid 1330860399 > /scratch/tmp/6000926.1.short.q/qchem726/lic.dat
                  Welcome to Q-Chem
     A Quantum Leap Into The Future Of Chemistry

 Y. Shao, L. Fusti-Molnar, Y. Jung, J. Kussmann, C. Ochsenfeld,
 S. T. Brown, A. T. B. Gilbert, L. V. Slipchenko,S. V. Levchenko,
 D. P. O'Neill, R. A. DiStasio Jr., R. C. Lochan, T. Wang,
 G. J. O. Beran, N. A. Besley, J. M. Herbert, C. Y. Lin,
 T. Van Voorhis, S. H. Chien, A. Sodt, R. P. Steele, 
 V. A. Rassolov, P. E. Maslen, P. P. Korambath, R. D. Adamson,
 B. Austin, J. Baker, E. F. C. Byrd, H. Dachsel, R. J. Doerksen,
 A. Dreuw, B. D. Dunietz, A. D. Dutoi, T. R. Furlani,
 S. R. Gwaltney, A. Heyden, S. Hirata, C.-P. Hsu, G. Kedziora,
 R. Z. Khaliullin, P. Klunzinger, A. M. Lee, M. S. Lee, W. Liang,
 I. Lotan, N. Nair, B. Peters, E. I. Proynov, P. A. Pieniazek, 
 Y. M. Rhee, J. Ritchie, E. Rosta, C. D. Sherrill, 
 A. C. Simmonett, J. E. Subotnik, H. L. Woodcock III,
 W. Zhang, A. T. Bell, A. K. Chakraborty, D. M. Chipman,
 F. J. Keil, A. Warshel, W. J. Hehre, H. F. Schaefer III,
 J. Kong, A. I. Krylov, P. M. W. Gill, M. Head-Gordon,
 Q-Chem, Version 3.1, Q-Chem, Inc., Pittsburgh, PA (2007).

 Additional authors for Version 3.1: 
 Z. Gan, Y. Zhao, N. E. Schultz, D. Truhlar, E. Epifanovsky and M. Oana.

 Additional authors for Version 3.2: 
 R. Baer, B. R. Brooks, D. Casanova, J.-D. Chai, C.-L. Cheng, 
 C. Cramer, D. Crittenden, A. Ghysels, G. Hawkins, E. G. Hohenstein, 
 C. Kelley, W. Kurlancheek, D. Liotard, E. Livshits, P. Manohar, 
 A. Marenich, D. Neuhauser, R. Olson, M. A. Rohrdanz, K. S. Thanthiriwatte, 
 A. J. W. Thom, V. Vanovschi, C. F. Williams, Q. Wu and Z.-Q. You. 


 Intel X86 Linux Version

 Q-chem begins on Wed May 22 20:34:21 2013  

 Parallel job on  1  processors
Processing $rem in /usr/local/qchem/config/preferences.

theFileMan(): MAXOPENFILES=974 MAX_SUB_FILE_NUM=16
Maximum size of a physical file is 2.0 GB, maximum size of a tmp-file is 32.0 GB


--------------------------------------------------------------
User input:
--------------------------------------------------------------

$molecule
0,1
C          0.00000        0.00000        0.00000
C          0.00000        0.00000        1.29999
C          0.00000        0.00000       -1.29999
H          0.93152        0.00000        1.85791
H         -0.93152        0.00000        1.85791
H          0.00000       -0.93152       -1.85791
H          0.00000        0.93152       -1.85791
$end

$comment
neutral
$end

$xc_functional
C PBE   1.00
X wPBE  1.00
$end


$rem
SYMMETRY_DECOMPOSITION	0
LRC_DFT                 true
exchange 		general
BASIS                   g3large
omega			900
mem_static              760
max_scf_cycles          200
scf_final_print         1
sym_ignore              true
$end

--------------------------------------------------------------
 Writing REM_CC_EA            7
 ----------------------------------------------------
       Standard Nuclear Orientation (Angstroms)
    I     Atom         X            Y            Z
 ----------------------------------------------------
    1      C       0.000000     0.000000     0.000000
    2      C       0.000000     0.000000     1.299990
    3      C       0.000000     0.000000    -1.299990
    4      H       0.931520     0.000000     1.857910
    5      H      -0.931520     0.000000     1.857910
    6      H       0.000000    -0.931520    -1.857910
    7      H       0.000000     0.931520    -1.857910
 ----------------------------------------------------
 Nuclear Repulsion Energy =    59.4052175437 hartrees
 There are       11 alpha and       11 beta electrons
 Requested basis set is G3large
 There are 54 shells and 166 basis functions

Total QAlloc Memory Limit   2000 MB
Mega-Array Size       743 MB
MEM_STATIC part       760 MB

                       Distance Matrix (Angstroms)
             C (  1)   C (  2)   C (  3)   H (  4)   H (  5)   H (  6)
   C (  2)  1.299990
   C (  3)  1.299990  2.599980
   H (  4)  2.078355  1.085820  3.292425
   H (  5)  2.078355  1.085820  3.292425  1.863040
   H (  6)  2.078355  3.292425  1.085820  3.942433  3.942433
   H (  7)  2.078355  3.292425  1.085820  3.942433  3.942433  1.863040

 
 A cutoff of  1.0D-08 yielded   1392 shell pairs
 There are  13284 function pairs ( 16389 Cartesian)
Evaluating contribution to one-electron hamiltonian from nuclear
 Smallest overlap matrix eigenvalue = 2.92E-06

 Q-Chem warning in module mkSTV.C, line 194:

 Overlap eigenvalue is smaller than square root of threshold

 Multipole matrices computed through 2nd order

  Scale SEOQF with 1.000000e-01/1.000000e-01/1.000000e-01

 Standard Electronic Orientation quadrupole field applied
 Nucleus-field energy     =    -0.0000000035 hartrees
 Guess from superposition of atomic densities
 Warning:  Energy on first SCF cycle will be non-variational
 Long-range K will be added via erf
 Coulomb attenuation parameter = 0.9 bohr**(-1)
 A restricted Kohn-Sham SCF calculation will be
 performed using Pulay DIIS extrapolation
 Exchange:  wPBE + LR-HF      Correlation:  PBE
 Using SG-1 standard quadrature grid
 SCF converges when DIIS error is below 1.0E-05
 Requested basis set is G3large
 There are 54 shells and 166 basis functions
 A cutoff of  1.0D-08 yielded   1392 shell pairs
 There are  13284 function pairs ( 16389 Cartesian)
 ---------------------------------------
  Cycle       Energy         DIIS Error
 ---------------------------------------
    1    -117.4668136139      3.53E-02
    2    -116.5250534389      2.71E-03
    3    -116.5700807795      8.53E-04
    4    -116.5766333612      3.89E-04
    5    -116.5778872578      1.25E-04
    6    -116.5780822512      5.66E-05
    7    -116.5781201874      1.01E-05
    8    -116.5781225249      2.55E-06 Convergence criterion met
 ---------------------------------------
 One-Electron    Energy =  -272.8761340458
 Total Coulomb   Energy =   114.4928920599
 Alpha Exchange  Energy =    -3.7969508255
 Beta  Exchange  Energy =    -3.7969508255
 DFT   Exchange  Energy =    -9.3101294635
 DFT Correlation Energy =    -0.6960669649
 Nuclear Repu.   Energy =    59.4052175403
 Nuclear Attr.   Energy =  -388.7856685125
 Kinetic         Energy =   115.9095344667
 SCF time:  CPU 53.69 s  wall 54.49 s
 Final Alpha MO Eigenvalues
            1           2           3           4           5           6
    1 -10.4017342 -10.3756251 -10.3754883  -1.0728964  -0.9609294  -0.7282953
            7           8           9          10          11          12
    1  -0.6433493  -0.6319678  -0.6319642  -0.4151693  -0.4151492   0.0434517
           13          14          15          16
    1   0.0591312   0.0636072   0.0636134   0.1027479
 Analysis of SCF Wavefunction
 
 --------------------------------------------------------------
                    Orbital Energies (a.u.)
 --------------------------------------------------------------
 
 Alpha MOs
 -- Occupied --
-10.402 -10.376 -10.375  -1.073  -0.961  -0.728  -0.643  -0.632
 -0.632  -0.415  -0.415
 -- Virtual --
  0.043   0.059   0.064   0.064   0.103   0.103   0.113   0.135
  0.153   0.153   0.178   0.188   0.205   0.205   0.221   0.221
  0.253   0.253   0.264   0.306   0.381   0.381   0.443   0.520
  0.614   0.615   0.618   0.634   0.634   0.646   0.698   0.713
  0.713   0.727   0.727   0.734   0.777   0.804   0.804   0.820
  0.884   0.925   0.955   1.052   1.052   1.071   1.071   1.109
  1.146   1.188   1.188   1.259   1.352   1.455   1.455   1.476
  1.540   1.562   1.619   1.619   1.651   1.659   1.723   1.763
  1.823   1.823   2.241   2.689   2.702   2.830   2.830   2.889
  2.889   2.917   2.938   2.938   2.970   2.979   2.989   2.989
  3.191   3.191   3.191   3.272   3.272   3.307   3.332   3.360
  3.369   3.369   3.386   3.403   3.410   3.410   3.466   3.639
  3.639   3.727   3.733   3.733   3.773   3.793   3.808   4.001
  4.001   4.067   4.078   4.252   4.320   4.421   4.421   4.455
  4.473   4.496   4.496   4.604   4.670   4.674   5.183   5.183
  5.654   5.714   5.794   5.814   5.814   5.931   5.931   6.876
 24.004  24.984  25.044  27.709  27.709  27.789  27.789  28.391
 28.391  28.420  28.564  29.572  41.088  41.114  41.233  41.242
 41.336  41.381  41.382  41.382  41.403  41.509  41.509  41.596
 41.596  41.651  41.658
 --------------------------------------------------------------
 
          Ground-State Mulliken Net Atomic Charges

     Atom                 Charge (a.u.)
  ----------------------------------------
      1 C                     0.847492
      2 C                    -0.632389
      3 C                    -0.631828
      4 H                     0.104182
      5 H                     0.104182
      6 H                     0.104179
      7 H                     0.104181
  ----------------------------------------
  Sum of atomic charges =     0.000000

 -----------------------------------------------------------------
                    Cartesian Multipole Moments
 -----------------------------------------------------------------
    Charge (ESU x 10^10)
                 0.0000
    Dipole Moment (Debye)
         X       0.0000      Y       0.0000      Z       0.0000
       Tot       0.0000
    Quadrupole Moments (Debye-Ang)
        XX     -19.2174     XY       0.0000     YY     -19.2174
        XZ       0.0000     YZ       0.0000     ZZ     -14.7993
    Octapole Moments (Debye-Ang^2)
       XXX       0.0000    XXY       0.0000    XYY       0.0000
       YYY       0.0000    XXZ       3.9970    XYZ       0.0000
       YYZ      -3.9970    XZZ       0.0000    YZZ       0.0000
       ZZZ       0.0001
    Hexadecapole Moments (Debye-Ang^3)
      XXXX     -28.1529   XXXY      -0.0001   XXYY     -10.3286
      XYYY      -0.0001   YYYY     -28.1529   XXXZ       0.0000
      XXYZ       0.0000   XYYZ       0.0000   YYYZ       0.0000
      XXZZ     -32.7095   XYZZ       0.0002   YYZZ     -32.7095
      XZZZ       0.0000   YZZZ       0.0000   ZZZZ    -168.0389
 -----------------------------------------------------------------
 Total job time:  54.67s(wall), 53.86s(cpu) 
 Wed May 22 20:35:16 2013

        *************************************************************
        *                                                           *
        *  Thank you very much for using Q-Chem.  Have a nice day.  *
        *                                                           *
        *************************************************************


0 sent ACK to 0 
now end server 0 ... 
 
**********************************************************************
Job 3 of 3 
**********************************************************************
 
Process 0 of 1 is on cl054.stfx.acenet.ca - thread support 1
initial socket setup ...start
initial socket setup ...done 
now start server 0 ... 

cmd = /usr/bin/ssh clhead /usr/local/qchem/bin/get_hostid 1181922054 > /scratch/tmp/6000926.1.short.q/qchem726/lic.dat
                  Welcome to Q-Chem
     A Quantum Leap Into The Future Of Chemistry

 Y. Shao, L. Fusti-Molnar, Y. Jung, J. Kussmann, C. Ochsenfeld,
 S. T. Brown, A. T. B. Gilbert, L. V. Slipchenko,S. V. Levchenko,
 D. P. O'Neill, R. A. DiStasio Jr., R. C. Lochan, T. Wang,
 G. J. O. Beran, N. A. Besley, J. M. Herbert, C. Y. Lin,
 T. Van Voorhis, S. H. Chien, A. Sodt, R. P. Steele, 
 V. A. Rassolov, P. E. Maslen, P. P. Korambath, R. D. Adamson,
 B. Austin, J. Baker, E. F. C. Byrd, H. Dachsel, R. J. Doerksen,
 A. Dreuw, B. D. Dunietz, A. D. Dutoi, T. R. Furlani,
 S. R. Gwaltney, A. Heyden, S. Hirata, C.-P. Hsu, G. Kedziora,
 R. Z. Khaliullin, P. Klunzinger, A. M. Lee, M. S. Lee, W. Liang,
 I. Lotan, N. Nair, B. Peters, E. I. Proynov, P. A. Pieniazek, 
 Y. M. Rhee, J. Ritchie, E. Rosta, C. D. Sherrill, 
 A. C. Simmonett, J. E. Subotnik, H. L. Woodcock III,
 W. Zhang, A. T. Bell, A. K. Chakraborty, D. M. Chipman,
 F. J. Keil, A. Warshel, W. J. Hehre, H. F. Schaefer III,
 J. Kong, A. I. Krylov, P. M. W. Gill, M. Head-Gordon,
 Q-Chem, Version 3.1, Q-Chem, Inc., Pittsburgh, PA (2007).

 Additional authors for Version 3.1: 
 Z. Gan, Y. Zhao, N. E. Schultz, D. Truhlar, E. Epifanovsky and M. Oana.

 Additional authors for Version 3.2: 
 R. Baer, B. R. Brooks, D. Casanova, J.-D. Chai, C.-L. Cheng, 
 C. Cramer, D. Crittenden, A. Ghysels, G. Hawkins, E. G. Hohenstein, 
 C. Kelley, W. Kurlancheek, D. Liotard, E. Livshits, P. Manohar, 
 A. Marenich, D. Neuhauser, R. Olson, M. A. Rohrdanz, K. S. Thanthiriwatte, 
 A. J. W. Thom, V. Vanovschi, C. F. Williams, Q. Wu and Z.-Q. You. 


 Intel X86 Linux Version

 Q-chem begins on Wed May 22 20:35:19 2013  

 Parallel job on  1  processors
Processing $rem in /usr/local/qchem/config/preferences.

theFileMan(): MAXOPENFILES=974 MAX_SUB_FILE_NUM=16
Maximum size of a physical file is 2.0 GB, maximum size of a tmp-file is 32.0 GB


--------------------------------------------------------------
User input:
--------------------------------------------------------------

$molecule
1,2
C          0.00000        0.00000        0.00000
C          0.00000        0.00000        1.29999
C          0.00000        0.00000       -1.29999
H          0.93152        0.00000        1.85791
H         -0.93152        0.00000        1.85791
H          0.00000       -0.93152       -1.85791
H          0.00000        0.93152       -1.85791
$end

$comment
positive
$end

$xc_functional
C PBE   1.00
X wPBE  1.00
$end

$rem
SYMMETRY_DECOMPOSITION	0
LRC_DFT                 true
exchange 		general
BASIS                   g3large
omega			900
mem_static              760
max_scf_cycles          200
scf_final_print         1
sym_ignore              true
$end

--------------------------------------------------------------
 Writing REM_CC_EA            7
 ----------------------------------------------------
       Standard Nuclear Orientation (Angstroms)
    I     Atom         X            Y            Z
 ----------------------------------------------------
    1      C       0.000000     0.000000     0.000000
    2      C       0.000000     0.000000     1.299990
    3      C       0.000000     0.000000    -1.299990
    4      H       0.931520     0.000000     1.857910
    5      H      -0.931520     0.000000     1.857910
    6      H       0.000000    -0.931520    -1.857910
    7      H       0.000000     0.931520    -1.857910
 ----------------------------------------------------
 Nuclear Repulsion Energy =    59.4052175437 hartrees
 There are       11 alpha and       10 beta electrons
 Requested basis set is G3large
 There are 54 shells and 166 basis functions

Total QAlloc Memory Limit   2000 MB
Mega-Array Size       743 MB
MEM_STATIC part       760 MB

                       Distance Matrix (Angstroms)
             C (  1)   C (  2)   C (  3)   H (  4)   H (  5)   H (  6)
   C (  2)  1.299990
   C (  3)  1.299990  2.599980
   H (  4)  2.078355  1.085820  3.292425
   H (  5)  2.078355  1.085820  3.292425  1.863040
   H (  6)  2.078355  3.292425  1.085820  3.942433  3.942433
   H (  7)  2.078355  3.292425  1.085820  3.942433  3.942433  1.863040

 
 A cutoff of  1.0D-08 yielded   1392 shell pairs
 There are  13284 function pairs ( 16389 Cartesian)
Evaluating contribution to one-electron hamiltonian from nuclear
 Smallest overlap matrix eigenvalue = 2.92E-06

 Q-Chem warning in module mkSTV.C, line 194:

 Overlap eigenvalue is smaller than square root of threshold

 Multipole matrices computed through 2nd order

  Scale SEOQF with 1.000000e-01/1.000000e-01/1.000000e-01

 Standard Electronic Orientation quadrupole field applied
 Nucleus-field energy     =    -0.0000000035 hartrees
 Guess from superposition of atomic densities
 Warning:  Energy on first SCF cycle will be non-variational
 Long-range K will be added via erf
 Coulomb attenuation parameter = 0.9 bohr**(-1)
 An unrestricted Kohn-Sham SCF calculation will be
 performed using Pulay DIIS extrapolation
 Exchange:  wPBE + LR-HF      Correlation:  PBE
 Using SG-1 standard quadrature grid
 SCF converges when DIIS error is below 1.0E-05
 Requested basis set is G3large
 There are 54 shells and 166 basis functions
 A cutoff of  1.0D-08 yielded   1392 shell pairs
 There are  13284 function pairs ( 16389 Cartesian)
 Warning!  Inaccurate integrated density:
   Number of electrons =    21
   Numerical integral  =    21.999578197634
   Relative error      =     4.7598961792 %
 ---------------------------------------
  Cycle       Energy         DIIS Error
 ---------------------------------------
    1    -117.4668136139      3.53E-02
    2    -116.1114484263      3.19E-03
    3    -116.1900602378      1.26E-03
    4    -116.2020013751      4.32E-04
    5    -116.2061152182      1.82E-04
    6    -116.2071815629      7.67E-05
    7    -116.2077326577      3.44E-05
    8    -116.2079222809      2.28E-05
    9    -116.2080092398      1.07E-05
   10    -116.2080300346      3.53E-06 Convergence criterion met
 ---------------------------------------
 One-Electron    Energy =  -266.5861944657
 Total Coulomb   Energy =   108.2950741452
 Alpha Exchange  Energy =    -3.8421065749
 Beta  Exchange  Energy =    -3.5400006312
 DFT   Exchange  Energy =    -9.2841343954
 DFT Correlation Energy =    -0.6558856528
 Nuclear Repu.   Energy =    59.4052175403
 Nuclear Attr.   Energy =  -382.3810363929
 Kinetic         Energy =   115.7948419272
 <S^2> = 0.8464
 SCF time:  CPU 82.90 s  wall 84.33 s
 Final Alpha MO Eigenvalues
            1           2           3           4           5           6
    1 -10.7062702 -10.6760149 -10.6757992  -1.3790615  -1.2627041  -1.0049236
            7           8           9          10          11          12
    1  -0.9277832  -0.9129908  -0.9070075  -0.7321945  -0.7054335  -0.1635831
           13          14          15          16
    1  -0.1425173  -0.1059064  -0.0742991  -0.0631706
 Final Beta MO Eigenvalues
            1           2           3           4           5           6
    1 -10.7059116 -10.6694633 -10.6692803  -1.3430486  -1.2257204  -0.9913248
            7           8           9          10          11          12
    1  -0.9193684  -0.8958640  -0.8897298  -0.6815281  -0.3280336  -0.1143809
           13          14          15
    1  -0.1084133  -0.1039738  -0.0732223
 Analysis of SCF Wavefunction
 
 --------------------------------------------------------------
                    Orbital Energies (a.u.)
 --------------------------------------------------------------
 
 Alpha MOs
 -- Occupied --
-10.706 -10.676 -10.676  -1.379  -1.263  -1.005  -0.928  -0.913
 -0.907  -0.732  -0.705
 -- Virtual --
 -0.164  -0.143  -0.106  -0.074  -0.063  -0.063  -0.037  -0.020
 -0.020  -0.008   0.022   0.026   0.042   0.045   0.065   0.069
  0.069   0.073   0.100   0.136   0.189   0.189   0.196   0.330
  0.352   0.381   0.387   0.397   0.401   0.414   0.449   0.477
  0.480   0.498   0.499   0.501   0.554   0.559   0.566   0.582
  0.652   0.676   0.719   0.825   0.826   0.834   0.835   0.867
  0.872   0.946   0.947   1.010   1.117   1.200   1.202   1.235
  1.284   1.316   1.378   1.378   1.409   1.411   1.480   1.514
  1.556   1.557   1.964   2.428   2.446   2.554   2.554   2.592
  2.593   2.627   2.642   2.655   2.673   2.686   2.700   2.707
  2.901   2.906   2.908   2.982   2.986   3.011   3.042   3.063
  3.086   3.086   3.102   3.121   3.125   3.132   3.177   3.355
  3.360   3.444   3.449   3.451   3.490   3.491   3.509   3.726
  3.726   3.773   3.803   3.988   4.061   4.156   4.157   4.187
  4.206   4.207   4.214   4.318   4.393   4.394   4.895   4.899
  5.375   5.443   5.497   5.547   5.547   5.634   5.642   6.583
 23.703  24.682  24.745  27.402  27.402  27.476  27.493  28.094
 28.094  28.123  28.267  29.269  40.785  40.808  40.931  40.938
 41.030  41.077  41.078  41.081  41.099  41.201  41.209  41.297
 41.300  41.353  41.356
 
 Beta MOs
 -- Occupied --
-10.706 -10.669 -10.669  -1.343  -1.226  -0.991  -0.919  -0.896
 -0.890  -0.682
 -- Virtual --
 -0.328  -0.114  -0.108  -0.104  -0.073  -0.060  -0.056  -0.036
 -0.010  -0.009  -0.006   0.025   0.029   0.043   0.046   0.071
  0.073   0.073   0.078   0.101   0.138   0.193   0.198   0.205
  0.331   0.374   0.388   0.407   0.414   0.422   0.430   0.467
  0.491   0.498   0.504   0.505   0.510   0.562   0.569   0.574
  0.585   0.655   0.683   0.727   0.828   0.829   0.842   0.843
  0.877   0.885   0.954   0.956   1.022   1.120   1.207   1.210
  1.241   1.295   1.324   1.382   1.382   1.415   1.415   1.485
  1.523   1.568   1.568   1.973   2.436   2.450   2.567   2.569
  2.612   2.614   2.640   2.659   2.660   2.690   2.697   2.707
  2.710   2.915   2.916   2.920   2.997   2.999   3.025   3.062
  3.081   3.097   3.099   3.111   3.135   3.136   3.141   3.198
  3.367   3.367   3.458   3.464   3.464   3.498   3.505   3.525
  3.734   3.734   3.789   3.811   3.991   4.062   4.162   4.162
  4.190   4.213   4.218   4.218   4.328   4.401   4.402   4.904
  4.906   5.382   5.449   5.503   5.551   5.551   5.646   5.648
  6.588  23.706  24.686  24.751  27.418  27.418  27.485  27.487
 28.099  28.099  28.126  28.270  29.270  40.791  40.811  40.940
 40.950  41.034  41.084  41.084  41.088  41.109  41.210  41.210
 41.302  41.302  41.357  41.358
 --------------------------------------------------------------
 
          Ground-State Mulliken Net Atomic Charges

     Atom                 Charge (a.u.)    Spin (a.u.)
  --------------------------------------------------------
      1 C                     0.983139       0.093868
      2 C                    -0.337953       0.471024
      3 C                    -0.337654       0.470169
      4 H                     0.173113      -0.008820
      5 H                     0.173111      -0.008819
      6 H                     0.173127      -0.008710
      7 H                     0.173116      -0.008712
  --------------------------------------------------------
  Sum of atomic charges =     1.000000
  Sum of spin   charges =     1.000000

 -----------------------------------------------------------------
                    Cartesian Multipole Moments
 -----------------------------------------------------------------
    Charge (ESU x 10^10)
                 4.8032
    Dipole Moment (Debye)
         X       0.0000      Y       0.0000      Z       0.0013
       Tot       0.0013
    Quadrupole Moments (Debye-Ang)
        XX     -15.0948     XY      -0.1134     YY     -15.0915
        XZ       0.0000     YZ       0.0000     ZZ      -2.6259
    Octapole Moments (Debye-Ang^2)
       XXX       0.0000    XXY       0.0000    XYY       0.0000
       YYY       0.0000    XXZ       4.3760    XYZ       0.0000
       YYZ      -4.3734    XZZ       0.0000    YZZ      -0.0001
       ZZZ       0.0001
    Hexadecapole Moments (Debye-Ang^3)
      XXXX     -19.0405   XXXY      -0.0721   XXYY      -7.5098
      XYYY      -0.0721   YYYY     -19.0348   XXXZ       0.0000
      XXYZ       0.0000   XYYZ       0.0000   YYYZ       0.0000
      XXZZ     -22.1074   XYZZ       0.9643   YYZZ     -22.1042
      XZZZ      -0.0001   YZZZ       0.0001   ZZZZ    -109.8875
 -----------------------------------------------------------------
 Total job time:  84.51s(wall), 83.07s(cpu) 
 Wed May 22 20:36:43 2013

        *************************************************************
        *                                                           *
        *  Thank you very much for using Q-Chem.  Have a nice day.  *
        *                                                           *
        *************************************************************


0 sent ACK to 0 
now end server 0 ... 
