Process 0 of 1 is on cl038.stfx.acenet.ca - thread support 1
initial socket setup ...start
initial socket setup ...done 
now start server 0 ... 

cmd = /usr/bin/ssh clhead /usr/local/qchem/bin/get_hostid 122951982 > /scratch/tmp/6067148.1.short.q/qchem29278/lic.dat
                  Welcome to Q-Chem
     A Quantum Leap Into The Future Of Chemistry

 Y. Shao, L. Fusti-Molnar, Y. Jung, J. Kussmann, C. Ochsenfeld,
 S. T. Brown, A. T. B. Gilbert, L. V. Slipchenko,S. V. Levchenko,
 D. P. O'Neill, R. A. DiStasio Jr., R. C. Lochan, T. Wang,
 G. J. O. Beran, N. A. Besley, J. M. Herbert, C. Y. Lin,
 T. Van Voorhis, S. H. Chien, A. Sodt, R. P. Steele, 
 V. A. Rassolov, P. E. Maslen, P. P. Korambath, R. D. Adamson,
 B. Austin, J. Baker, E. F. C. Byrd, H. Dachsel, R. J. Doerksen,
 A. Dreuw, B. D. Dunietz, A. D. Dutoi, T. R. Furlani,
 S. R. Gwaltney, A. Heyden, S. Hirata, C.-P. Hsu, G. Kedziora,
 R. Z. Khaliullin, P. Klunzinger, A. M. Lee, M. S. Lee, W. Liang,
 I. Lotan, N. Nair, B. Peters, E. I. Proynov, P. A. Pieniazek, 
 Y. M. Rhee, J. Ritchie, E. Rosta, C. D. Sherrill, 
 A. C. Simmonett, J. E. Subotnik, H. L. Woodcock III,
 W. Zhang, A. T. Bell, A. K. Chakraborty, D. M. Chipman,
 F. J. Keil, A. Warshel, W. J. Hehre, H. F. Schaefer III,
 J. Kong, A. I. Krylov, P. M. W. Gill, M. Head-Gordon,
 Q-Chem, Version 3.1, Q-Chem, Inc., Pittsburgh, PA (2007).

 Additional authors for Version 3.1: 
 Z. Gan, Y. Zhao, N. E. Schultz, D. Truhlar, E. Epifanovsky and M. Oana.

 Additional authors for Version 3.2: 
 R. Baer, B. R. Brooks, D. Casanova, J.-D. Chai, C.-L. Cheng, 
 C. Cramer, D. Crittenden, A. Ghysels, G. Hawkins, E. G. Hohenstein, 
 C. Kelley, W. Kurlancheek, D. Liotard, E. Livshits, P. Manohar, 
 A. Marenich, D. Neuhauser, R. Olson, M. A. Rohrdanz, K. S. Thanthiriwatte, 
 A. J. W. Thom, V. Vanovschi, C. F. Williams, Q. Wu and Z.-Q. You. 


 Intel X86 Linux Version

 Q-chem begins on Wed Jul 24 16:08:37 2013  

 Parallel job on  1  processors
Processing $rem in /usr/local/qchem/config/preferences.

theFileMan(): MAXOPENFILES=974 MAX_SUB_FILE_NUM=16
Maximum size of a physical file is 2.0 GB, maximum size of a tmp-file is 32.0 GB


--------------------------------------------------------------
User input:
--------------------------------------------------------------

$molecule
0,1
C
C,1,cc
Cl,1,ccl,2,cccl
H,1,ch1,2,h1cc,3,h1cccl,0
H,1,ch1,2,h1cc,3,-h1cccl,0
H,2,ch3,1,h3cc,3,180.,0
H,2,ch4,1,h4cc,6,hcch,0
H,2,ch4,1,h4cc,6,-hcch,0

cc=1.51878601
ccl=1.82181061
ch1=1.09166594
ch3=1.09734368
ch4=1.09390727
cccl=111.58518858
h1cc=111.98358927
h3cc=109.23599589
h4cc=111.16667227
h1cccl=118.67648209
hcch=119.53194352

$end


$comment
b3lyp opt
$end

$rem
   EXCHANGE B3LYP
   UNRESTRICTED TRUE
   SYMMETRY_DECOMPOSITION	0
   BASIS                   g3large
   JOBTYPE                 opt
   mem_static              760
   max_scf_cycles          200
   scf_final_print         1
   sym_ignore              true
$end


--------------------------------------------------------------
 Writing REM_CC_EA            8
 ----------------------------------------------------
       Standard Nuclear Orientation (Angstroms)
    I     Atom         X            Y            Z
 ----------------------------------------------------
    1      C       0.000000     0.000000     0.000000
    2      C       0.000000     0.000000     1.518786
    3      Cl      1.694050     0.000000    -0.670215
    4      H      -0.485762    -0.888128    -0.408655
    5      H      -0.485762     0.888128    -0.408655
    6      H      -1.036079     0.000000     1.880317
    7      H       0.502819    -0.887575     1.913776
    8      H       0.502819     0.887575     1.913776
 ----------------------------------------------------
 Nuclear Repulsion Energy =   101.9262709629 hartrees
 There are       17 alpha and       17 beta electrons
 Requested basis set is G3large
 There are 69 shells and 200 basis functions

Total QAlloc Memory Limit   2000 MB
Mega-Array Size       743 MB
MEM_STATIC part       760 MB
 A cutoff of  1.0D-11 yielded   2301 shell pairs
 There are  19412 function pairs ( 24622 Cartesian)
Evaluating contribution to one-electron hamiltonian from nuclear
 Smallest overlap matrix eigenvalue = 9.54E-05
 Multipole matrices computed through 2nd order

  Scale SEOQF with 1.000000e-01/1.000000e-01/1.000000e-01

 Standard Electronic Orientation quadrupole field applied
 Nucleus-field energy     =    -0.0000000015 hartrees
 Guess from superposition of atomic densities
 Warning:  Energy on first SCF cycle will be non-variational
 An unrestricted hybrid HF-DFT SCF calculation will be
 performed using Pulay DIIS extrapolation
 Exchange:     0.2000 Hartree-Fock + 0.0800 Slater + 0.7200 Becke88
 Correlation:  0.8100 LYP + 0.1900 VWN1RPA
 Using SG-1 standard quadrature grid
 SCF converges when DIIS error is below 1.0E-08
 ---------------------------------------
  Cycle       Energy         DIIS Error
 ---------------------------------------
    1    -539.7218516649      2.69E-02
    2    -539.4267135801      3.51E-03
    3    -539.4156507902      3.78E-03
    4    -539.4885836982      5.70E-04
    5    -539.4898862063      2.28E-04
    6    -539.4900983283      4.92E-05
    7    -539.4901089343      1.21E-05
    8    -539.4901095519      2.07E-06
    9    -539.4901095438      6.41E-07
   10    -539.4901095456      8.97E-08
   11    -539.4901095467      2.32E-08
   12    -539.4901095452      5.13E-09 Convergence criterion met
 ---------------------------------------
 One-Electron    Energy =  -943.4453722306
 Total Coulomb   Energy =   343.0224456766
 Alpha Exchange  Energy =    -3.9669222713
 Beta  Exchange  Energy =    -3.9669222713
 DFT   Exchange  Energy =   -31.4745698929
 DFT Correlation Energy =    -1.5850395171
 Nuclear Repu.   Energy =   101.9262709615
 Nuclear Attr.   Energy = -1481.8387344273
 Kinetic         Energy =   538.3933621967
 <S^2> = 0.0000
 SCF time:  CPU 165.96 s  wall 166.82 s
 Final Alpha MO Eigenvalues
            1           2           3           4           5           6
    1-101.5066861 -10.2342426 -10.1791489  -9.4451761  -7.2068393  -7.1986927
            7           8           9          10          11          12
    1  -7.1986555  -0.8540962  -0.7478079  -0.6254510  -0.4807195  -0.4554235
           13          14          15          16          17          18
    1  -0.4148554  -0.3827808  -0.3753663  -0.3000552  -0.2985734  -0.0135070
           19          20          21          22
    1   0.0048329   0.0165673   0.0197537   0.0279628
 Final Beta MO Eigenvalues
            1           2           3           4           5           6
    1-101.5066861 -10.2342426 -10.1791489  -9.4451761  -7.2068393  -7.1986927
            7           8           9          10          11          12
    1  -7.1986555  -0.8540962  -0.7478079  -0.6254510  -0.4807195  -0.4554235
           13          14          15          16          17          18
    1  -0.4148554  -0.3827808  -0.3753663  -0.3000552  -0.2985734  -0.0135070
           19          20          21          22
    1   0.0048329   0.0165673   0.0197537   0.0279628
 Analysis of SCF Wavefunction
 
 --------------------------------------------------------------
                    Orbital Energies (a.u.)
 --------------------------------------------------------------
 
 Alpha MOs
 -- Occupied --
******* -10.234 -10.179  -9.445  -7.207  -7.199  -7.199  -0.854
 -0.748  -0.625  -0.481  -0.455  -0.415  -0.383  -0.375  -0.300
 -0.299
 -- Virtual --
 -0.014   0.005   0.017   0.020   0.028   0.053   0.069   0.076
  0.086   0.088   0.108   0.117   0.125   0.125   0.133   0.140
  0.144   0.162   0.168   0.185   0.207   0.227   0.256   0.285
  0.303   0.318   0.345   0.356   0.396   0.415   0.425   0.446
  0.475   0.477   0.513   0.513   0.548   0.549   0.554   0.560
  0.602   0.625   0.650   0.688   0.709   0.722   0.761   0.798
  0.858   0.908   0.953   0.968   1.008   1.042   1.062   1.070
  1.073   1.090   1.094   1.113   1.122   1.141   1.169   1.202
  1.229   1.264   1.301   1.308   1.339   1.360   1.375   1.403
  1.418   1.440   1.450   1.478   1.500   1.563   1.571   1.589
  1.594   1.615   1.714   2.201   2.201   2.313   2.407   2.464
  2.563   2.606   2.609   2.780   2.783   2.791   2.903   2.973
  3.024   3.027   3.086   3.147   3.167   3.185   3.265   3.297
  3.331   3.391   3.446   3.525   3.526   3.551   3.591   3.612
  3.720   3.771   3.840   3.907   3.970   3.986   3.994   4.064
  4.187   4.199   4.212   4.221   4.294   4.364   4.378   4.392
  4.435   4.451   4.455   4.513   4.531   4.541   4.579   4.597
  4.652   4.678   5.047   5.057   5.174   5.196   5.213   5.416
  5.583   5.601   5.686   5.701   9.777  20.654  20.660  20.888
 24.060  24.284  27.181  27.219  27.239  27.277  27.282  27.673
 27.982  28.080  28.155  28.193  28.375  36.929  36.931  36.932
 36.933  36.942  36.943  36.949  40.923  40.953  41.003  41.081
 41.154  41.168  41.195  41.231  41.234  41.278 216.338
 
 Beta MOs
 -- Occupied --
******* -10.234 -10.179  -9.445  -7.207  -7.199  -7.199  -0.854
 -0.748  -0.625  -0.481  -0.455  -0.415  -0.383  -0.375  -0.300
 -0.299
 -- Virtual --
 -0.014   0.005   0.017   0.020   0.028   0.053   0.069   0.076
  0.086   0.088   0.108   0.117   0.125   0.125   0.133   0.140
  0.144   0.162   0.168   0.185   0.207   0.227   0.256   0.285
  0.303   0.318   0.345   0.356   0.396   0.415   0.425   0.446
  0.475   0.477   0.513   0.513   0.548   0.549   0.554   0.560
  0.602   0.625   0.650   0.688   0.709   0.722   0.761   0.798
  0.858   0.908   0.953   0.968   1.008   1.042   1.062   1.070
  1.073   1.090   1.094   1.113   1.122   1.141   1.169   1.202
  1.229   1.264   1.301   1.308   1.339   1.360   1.375   1.403
  1.418   1.440   1.450   1.478   1.500   1.563   1.571   1.589
  1.594   1.615   1.714   2.201   2.201   2.313   2.407   2.464
  2.563   2.606   2.609   2.780   2.783   2.791   2.903   2.973
  3.024   3.027   3.086   3.147   3.167   3.185   3.265   3.297
  3.331   3.391   3.446   3.525   3.526   3.551   3.591   3.612
  3.720   3.771   3.840   3.907   3.970   3.986   3.994   4.064
  4.187   4.199   4.212   4.221   4.294   4.364   4.378   4.392
  4.435   4.451   4.455   4.513   4.531   4.541   4.579   4.597
  4.652   4.678   5.047   5.057   5.174   5.196   5.213   5.416
  5.583   5.601   5.686   5.701   9.777  20.654  20.660  20.888
 24.060  24.284  27.181  27.219  27.239  27.277  27.282  27.673
 27.982  28.080  28.155  28.193  28.375  36.929  36.931  36.932
 36.933  36.942  36.943  36.949  40.923  40.953  41.003  41.081
 41.154  41.168  41.195  41.231  41.234  41.278 216.338
 --------------------------------------------------------------
 
          Ground-State Mulliken Net Atomic Charges

     Atom                 Charge (a.u.)    Spin (a.u.)
  --------------------------------------------------------
      1 C                     0.066750       0.000000
      2 C                    -0.320123       0.000000
      3 Cl                   -0.304553       0.000000
      4 H                     0.112586       0.000000
      5 H                     0.112586       0.000000
      6 H                     0.101679       0.000000
      7 H                     0.115537       0.000000
      8 H                     0.115537       0.000000
  --------------------------------------------------------
  Sum of atomic charges =     0.000000
  Sum of spin   charges =     0.000000

 -----------------------------------------------------------------
                    Cartesian Multipole Moments
 -----------------------------------------------------------------
    Charge (ESU x 10^10)
                 0.0000
    Dipole Moment (Debye)
         X      -1.9759      Y       0.0000      Z       1.0062
       Tot       2.2174
    Quadrupole Moments (Debye-Ang)
        XX     -29.3043     XY       0.0000     YY     -26.5737
        XZ       1.0725     YZ       0.0000     ZZ     -27.0267
    Octapole Moments (Debye-Ang^2)
       XXX     -66.0307    XXY       0.0000    XYY     -22.2021
       YYY       0.0000    XXZ      -2.5781    XYZ       0.0000
       YYZ      -2.4573    XZZ     -21.8520    YZZ       0.0000
       ZZZ      -7.0384
    Hexadecapole Moments (Debye-Ang^3)
      XXXX    -258.1756   XXXY       0.0000   XXYY     -53.2766
      XYYY       0.0000   YYYY     -44.1344   XXXZ      37.5957
      XXYZ       0.0000   XYYZ      16.7499   YYYZ       0.0000
      XXZZ     -74.1092   XYZZ       0.0000   YYZZ     -38.1666
      XZZZ      44.9778   YZZZ       0.0000   ZZZZ    -193.2629
 -----------------------------------------------------------------
 Calculating analytic gradient of the SCF energy
 Gradient of XC Energy
            1           2           3           4           5           6
    1   0.0811729  -0.0039973   0.1194122  -0.0966918  -0.0966918  -0.1729544
    2   0.0000000  -0.0000000  -0.0000000  -0.1569264   0.1569264   0.0000000
    3   0.0460741  -0.0498050  -0.0536436  -0.0738020  -0.0738020   0.0642163
            7           8
    1   0.0848751   0.0848751
    2  -0.1537053   0.1537053
    3   0.0703812   0.0703812
 Gradient of SCF Energy
            1           2           3           4           5           6
    1   0.0012749  -0.0002614   0.0033699  -0.0021735  -0.0021735  -0.0030540
    2  -0.0000000   0.0000000   0.0000000  -0.0027588   0.0027588   0.0000000
    3  -0.0000093  -0.0003004  -0.0010547  -0.0009796  -0.0009796   0.0010257
            7           8
    1   0.0015088   0.0015088
    2  -0.0026821   0.0026821
    3   0.0011490   0.0011490
 Max gradient component =       3.370E-03
 RMS gradient           =       1.742E-03
 Gradient time:  CPU 54.68 s  wall 54.76 s
 Geometry Optimization Parameters
   NAtoms,    NIC,     NZ,  NCons,   NDum,   NFix, NCnnct, MaxDiis
        8      44       8       0       0       0       0       0


** GEOMETRY OPTIMIZATION IN DELOCALIZED INTERNAL COORDINATES **
   Searching for a Minimum

   Optimization Cycle:   1

                       Coordinates (Angstroms)
     ATOM              X           Y           Z
    1  C           0.000000    0.000000    0.000000
    2  C           0.000000    0.000000    1.518786
    3  Cl          1.694050    0.000000   -0.670215
    4  H          -0.485762   -0.888128   -0.408655
    5  H          -0.485762    0.888128   -0.408655
    6  H          -1.036079    0.000000    1.880317
    7  H           0.502819   -0.887575    1.913776
    8  H           0.502819    0.887575    1.913776
   Point Group: c1    Number of degrees of freedom:  18


   Energy is   -539.490109545


 Attempting to Generate Delocalized Internal Coordinates

 15 Hessian modes will be used to form the next step
  Hessian Eigenvalues:
     0.057004    0.057495    0.160000    0.160000    0.160000    0.160000
     0.160000    0.222265    0.244712    0.304838    0.339776    0.343650
     0.343650    0.346208    0.346208

 Minimum Search - Taking Simple RFO Step
 Searching for Lamda that Minimizes Along All modes
 Value Taken    Lamda =  -0.00026435
 Step Taken.  Stepsize is  0.031854

                             Maximum     Tolerance    Cnvgd?
         Gradient           0.008094      0.000300      NO
         Displacement       0.025923      0.001200      NO
         Energy change     *********      0.000001      NO


 New Cartesian Coordinates Obtained by Inverse Iteration

 Displacement from previous Coordinates is:  0.033831
 Writing REM_CC_EA            8
 ----------------------------------------------------
       Standard Nuclear Orientation (Angstroms)
    I     Atom         X            Y            Z
 ----------------------------------------------------
    1      C      -0.001780     0.000000     0.003309
    2      C      -0.000029     0.000000     1.516846
    3      Cl      1.684663     0.000000    -0.665482
    4      H      -0.480756    -0.884558    -0.406527
    5      H      -0.480756     0.884558    -0.406527
    6      H      -1.030924     0.000000     1.878037
    7      H       0.500834    -0.883383     1.909737
    8      H       0.500834     0.883383     1.909737
 ----------------------------------------------------
 Nuclear Repulsion Energy =   102.3573015319 hartrees
 There are       17 alpha and       17 beta electrons
 Applying Cartesian multipole field
    Component          Value
    ---------          -----
     (2,0,0)        1.00000E-11
     (0,2,0)        2.00000E-11
     (0,0,2)       -3.00000E-11
 Nucleus-field energy     =    -0.0000000015 hartrees
 Requested basis set is G3large
 There are 69 shells and 200 basis functions
 A cutoff of  1.0D-11 yielded   2304 shell pairs
 There are  19443 function pairs ( 24664 Cartesian)
Evaluating contribution to one-electron hamiltonian from nuclear
 Smallest overlap matrix eigenvalue = 9.33E-05
 Multipole matrices computed through 2nd order
 Guess MOs from SCF MO coefficient file
Reading MOs from coefficient file
Reading MOs from coefficient file
 An unrestricted hybrid HF-DFT SCF calculation will be
 performed using Pulay DIIS extrapolation
 Exchange:     0.2000 Hartree-Fock + 0.0800 Slater + 0.7200 Becke88
 Correlation:  0.8100 LYP + 0.1900 VWN1RPA
 Using SG-1 standard quadrature grid
 SCF converges when DIIS error is below 1.0E-08
 ---------------------------------------
  Cycle       Energy         DIIS Error
 ---------------------------------------
    1    -539.4982253278      1.68E-04
    2    -539.4902167543      6.34E-05
    3    -539.4902106770      7.79E-05
    4    -539.4902395155      6.31E-06
    5    -539.4902395610      2.60E-06
    6    -539.4902395891      3.25E-07
    7    -539.4902396024      1.32E-07
    8    -539.4902395970      2.53E-08
    9    -539.4902395965      7.21E-09 Convergence criterion met
 ---------------------------------------
 One-Electron    Energy =  -944.2935935624
 Total Coulomb   Energy =   343.4541662057
 Alpha Exchange  Energy =    -3.9684410357
 Beta  Exchange  Energy =    -3.9684410357
 DFT   Exchange  Energy =   -31.4853881986
 DFT Correlation Energy =    -1.5858435002
 Nuclear Repu.   Energy =   102.3573015305
 Nuclear Attr.   Energy = -1482.7415692941
 Kinetic         Energy =   538.4479757316
 <S^2> = 0.0000
 SCF time:  CPU 121.81 s  wall 122.18 s
 Final Alpha MO Eigenvalues
            1           2           3           4           5           6
    1-101.5062517 -10.2321080 -10.1770192  -9.4448863  -7.2065184  -7.1983993
            7           8           9          10          11          12
    1  -7.1983639  -0.8561894  -0.7487124  -0.6264310  -0.4825671  -0.4565652
           13          14          15          16          17          18
    1  -0.4162084  -0.3836131  -0.3756409  -0.2998557  -0.2982905  -0.0130106
           19          20          21          22
    1   0.0061686   0.0171665   0.0199159   0.0281807
 Final Beta MO Eigenvalues
            1           2           3           4           5           6
    1-101.5062517 -10.2321080 -10.1770192  -9.4448863  -7.2065184  -7.1983993
            7           8           9          10          11          12
    1  -7.1983639  -0.8561894  -0.7487124  -0.6264310  -0.4825671  -0.4565652
           13          14          15          16          17          18
    1  -0.4162084  -0.3836131  -0.3756409  -0.2998557  -0.2982905  -0.0130106
           19          20          21          22
    1   0.0061686   0.0171665   0.0199159   0.0281807
 Analysis of SCF Wavefunction
 
 --------------------------------------------------------------
                    Orbital Energies (a.u.)
 --------------------------------------------------------------
 
 Alpha MOs
 -- Occupied --
******* -10.232 -10.177  -9.445  -7.207  -7.198  -7.198  -0.856
 -0.749  -0.626  -0.483  -0.457  -0.416  -0.384  -0.376  -0.300
 -0.298
 -- Virtual --
 -0.013   0.006   0.017   0.020   0.028   0.053   0.069   0.076
  0.086   0.089   0.108   0.117   0.125   0.126   0.133   0.140
  0.145   0.163   0.169   0.186   0.208   0.229   0.257   0.286
  0.304   0.318   0.346   0.357   0.396   0.415   0.425   0.446
  0.475   0.478   0.513   0.513   0.549   0.551   0.556   0.562
  0.605   0.627   0.654   0.689   0.713   0.724   0.762   0.797
  0.861   0.910   0.955   0.970   1.007   1.043   1.062   1.072
  1.075   1.092   1.095   1.115   1.124   1.143   1.171   1.204
  1.232   1.267   1.301   1.311   1.340   1.362   1.381   1.406
  1.419   1.443   1.451   1.483   1.505   1.564   1.573   1.594
  1.596   1.620   1.719   2.201   2.201   2.317   2.406   2.462
  2.564   2.607   2.610   2.783   2.786   2.791   2.905   2.979
  3.027   3.029   3.088   3.151   3.168   3.190   3.266   3.306
  3.332   3.392   3.449   3.523   3.532   3.547   3.589   3.610
  3.732   3.782   3.849   3.913   3.983   3.997   4.009   4.072
  4.198   4.208   4.222   4.229   4.302   4.366   4.381   4.395
  4.437   4.455   4.462   4.519   4.543   4.551   4.593   4.605
  4.656   4.683   5.048   5.058   5.181   5.201   5.223   5.434
  5.605   5.622   5.708   5.716   9.781  20.656  20.661  20.890
 24.082  24.315  27.182  27.221  27.240  27.278  27.284  27.686
 27.994  28.090  28.164  28.200  28.377  36.929  36.932  36.932
 36.933  36.942  36.944  36.950  40.925  40.956  41.008  41.089
 41.156  41.171  41.198  41.238  41.240  41.285 216.341
 
 Beta MOs
 -- Occupied --
******* -10.232 -10.177  -9.445  -7.207  -7.198  -7.198  -0.856
 -0.749  -0.626  -0.483  -0.457  -0.416  -0.384  -0.376  -0.300
 -0.298
 -- Virtual --
 -0.013   0.006   0.017   0.020   0.028   0.053   0.069   0.076
  0.086   0.089   0.108   0.117   0.125   0.126   0.133   0.140
  0.145   0.163   0.169   0.186   0.208   0.229   0.257   0.286
  0.304   0.318   0.346   0.357   0.396   0.415   0.425   0.446
  0.475   0.478   0.513   0.513   0.549   0.551   0.556   0.562
  0.605   0.627   0.654   0.689   0.713   0.724   0.762   0.797
  0.861   0.910   0.955   0.970   1.007   1.043   1.062   1.072
  1.075   1.092   1.095   1.115   1.124   1.143   1.171   1.204
  1.232   1.267   1.301   1.311   1.340   1.362   1.381   1.406
  1.419   1.443   1.451   1.483   1.505   1.564   1.573   1.594
  1.596   1.620   1.719   2.201   2.201   2.317   2.406   2.462
  2.564   2.607   2.610   2.783   2.786   2.791   2.905   2.979
  3.027   3.029   3.088   3.151   3.168   3.190   3.266   3.306
  3.332   3.392   3.449   3.523   3.532   3.547   3.589   3.610
  3.732   3.782   3.849   3.913   3.983   3.997   4.009   4.072
  4.198   4.208   4.222   4.229   4.302   4.366   4.381   4.395
  4.437   4.455   4.462   4.519   4.543   4.551   4.593   4.605
  4.656   4.683   5.048   5.058   5.181   5.201   5.223   5.434
  5.605   5.622   5.708   5.716   9.781  20.656  20.661  20.890
 24.082  24.315  27.182  27.221  27.240  27.278  27.284  27.686
 27.994  28.090  28.164  28.200  28.377  36.929  36.932  36.932
 36.933  36.942  36.944  36.950  40.925  40.956  41.008  41.089
 41.156  41.171  41.198  41.238  41.240  41.285 216.341
 --------------------------------------------------------------
 
          Ground-State Mulliken Net Atomic Charges

     Atom                 Charge (a.u.)    Spin (a.u.)
  --------------------------------------------------------
      1 C                     0.060420       0.000000
      2 C                    -0.324053       0.000000
      3 Cl                   -0.302746       0.000000
      4 H                     0.114638       0.000000
      5 H                     0.114638       0.000000
      6 H                     0.102748       0.000000
      7 H                     0.117177       0.000000
      8 H                     0.117177       0.000000
  --------------------------------------------------------
  Sum of atomic charges =     0.000000
  Sum of spin   charges =     0.000000

 -----------------------------------------------------------------
                    Cartesian Multipole Moments
 -----------------------------------------------------------------
    Charge (ESU x 10^10)
                 0.0000
    Dipole Moment (Debye)
         X      -1.9664      Y       0.0000      Z       1.0010
       Tot       2.2065
    Quadrupole Moments (Debye-Ang)
        XX     -29.2806     XY       0.0000     YY     -26.5458
        XZ       1.0639     YZ       0.0000     ZZ     -26.9924
    Octapole Moments (Debye-Ang^2)
       XXX     -65.6539    XXY       0.0000    XYY     -22.0734
       YYY       0.0000    XXZ      -2.6349    XYZ       0.0000
       YYZ      -2.5118    XZZ     -21.7185    YZZ       0.0000
       ZZZ      -7.1901
    Hexadecapole Moments (Debye-Ang^3)
      XXXX    -255.6569   XXXY       0.0000   XXYY     -52.8022
      XYYY       0.0000   YYYY     -43.9013   XXXZ      37.1157
      XXYZ       0.0000   XYYZ      16.5297   YYYZ       0.0000
      XXZZ     -73.4955   XYZZ       0.0000   YYZZ     -37.9527
      XZZZ      44.4316   YZZZ       0.0000   ZZZZ    -192.0120
 -----------------------------------------------------------------
 Calculating analytic gradient of the SCF energy
 Gradient of XC Energy
            1           2           3           4           5           6
    1   0.0795134  -0.0036513   0.1186241  -0.0957103  -0.0957103  -0.1731139
    2  -0.0000000   0.0000000   0.0000000  -0.1576096   0.1576096  -0.0000000
    3   0.0486600  -0.0506759  -0.0537738  -0.0748917  -0.0748917   0.0645502
            7           8
    1   0.0850241   0.0850241
    2  -0.1538891   0.1538891
    3   0.0705114   0.0705114
 Gradient of SCF Energy
            1           2           3           4           5           6
    1  -0.0005413   0.0003158  -0.0000080   0.0001440   0.0001440  -0.0000435
    2   0.0000000  -0.0000000   0.0000000  -0.0000447   0.0000447   0.0000000
    3   0.0000480   0.0001763   0.0001168  -0.0000597  -0.0000597  -0.0001617
            7           8
    1  -0.0000055  -0.0000055
    2   0.0000060  -0.0000060
    3  -0.0000299  -0.0000299
 Max gradient component =       5.413E-04
 RMS gradient           =       1.475E-04
 Gradient time:  CPU 54.64 s  wall 54.70 s
 Geometry Optimization Parameters
   NAtoms,    NIC,     NZ,  NCons,   NDum,   NFix, NCnnct, MaxDiis
        8      44       8       0       0       0       0       0

 Cartesian Hessian Update
 Hessian Updated using BFGS Update


** GEOMETRY OPTIMIZATION IN DELOCALIZED INTERNAL COORDINATES **
   Searching for a Minimum

   Optimization Cycle:   2

                       Coordinates (Angstroms)
     ATOM              X           Y           Z
    1  C          -0.001780    0.000000    0.003309
    2  C          -0.000029    0.000000    1.516846
    3  Cl          1.684663    0.000000   -0.665482
    4  H          -0.480756   -0.884558   -0.406527
    5  H          -0.480756    0.884558   -0.406527
    6  H          -1.030924    0.000000    1.878037
    7  H           0.500834   -0.883383    1.909737
    8  H           0.500834    0.883383    1.909737
   Point Group: c1    Number of degrees of freedom:  18


   Energy is   -539.490239596

 Hessian Updated using BFGS Update

 12 Hessian modes will be used to form the next step
  Hessian Eigenvalues:
     0.056994    0.058897    0.059201    0.159314    0.161029    0.220267
     0.246200    0.305399    0.339670    0.343043    0.343650    0.345318

 Minimum Search - Taking Simple RFO Step
 Searching for Lamda that Minimizes Along All modes
 Value Taken    Lamda =  -0.00000195
 Step Taken.  Stepsize is  0.004698

                             Maximum     Tolerance    Cnvgd?
         Gradient           0.000260      0.000300     YES
         Displacement       0.003284      0.001200      NO
         Energy change     -0.000130      0.000001      NO


 New Cartesian Coordinates Obtained by Inverse Iteration

 Displacement from previous Coordinates is:  0.004288
 Writing REM_CC_EA            8
 ----------------------------------------------------
       Standard Nuclear Orientation (Angstroms)
    I     Atom         X            Y            Z
 ----------------------------------------------------
    1      C      -0.000766     0.000000     0.003162
    2      C      -0.000394     0.000000     1.516733
    3      Cl      1.685215     0.000000    -0.666973
    4      H      -0.480792    -0.884190    -0.406145
    5      H      -0.480792     0.884190    -0.406145
    6      H      -1.031092     0.000000     1.878464
    7      H       0.500354    -0.883257     1.910016
    8      H       0.500354     0.883257     1.910016
 ----------------------------------------------------
 Nuclear Repulsion Energy =   102.3379860866 hartrees
 There are       17 alpha and       17 beta electrons
 Applying Cartesian multipole field
    Component          Value
    ---------          -----
     (2,0,0)        1.00000E-11
     (0,2,0)        2.00000E-11
     (0,0,2)       -3.00000E-11
 Nucleus-field energy     =    -0.0000000015 hartrees
 Requested basis set is G3large
 There are 69 shells and 200 basis functions
 A cutoff of  1.0D-11 yielded   2304 shell pairs
 There are  19443 function pairs ( 24664 Cartesian)
Evaluating contribution to one-electron hamiltonian from nuclear
 Smallest overlap matrix eigenvalue = 9.34E-05
 Multipole matrices computed through 2nd order
 Guess MOs from SCF MO coefficient file
Reading MOs from coefficient file
Reading MOs from coefficient file
 An unrestricted hybrid HF-DFT SCF calculation will be
 performed using Pulay DIIS extrapolation
 Exchange:     0.2000 Hartree-Fock + 0.0800 Slater + 0.7200 Becke88
 Correlation:  0.8100 LYP + 0.1900 VWN1RPA
 Using SG-1 standard quadrature grid
 SCF converges when DIIS error is below 1.0E-08
 ---------------------------------------
  Cycle       Energy         DIIS Error
 ---------------------------------------
    1    -539.4901334259      1.65E-05
    2    -539.4902406854      3.45E-06
    3    -539.4902405413      4.84E-06
    4    -539.4902406579      3.28E-07
    5    -539.4902406721      1.74E-07
    6    -539.4902406660      2.59E-08
    7    -539.4902406673      5.62E-09 Convergence criterion met
 ---------------------------------------
 One-Electron    Energy =  -944.2540771613
 Total Coulomb   Energy =   343.4338855046
 Alpha Exchange  Energy =    -3.9684327828
 Beta  Exchange  Energy =    -3.9684327828
 DFT   Exchange  Energy =   -31.4853359977
 DFT Correlation Energy =    -1.5858335325
 Nuclear Repu.   Energy =   102.3379860851
 Nuclear Attr.   Energy = -1482.7015215393
 Kinetic         Energy =   538.4474443780
 <S^2> = 0.0000
 SCF time:  CPU 93.58 s  wall 93.85 s
 Final Alpha MO Eigenvalues
            1           2           3           4           5           6
    1-101.5063457 -10.2320974 -10.1770106  -9.4449710  -7.2066065  -7.1984833
            7           8           9          10          11          12
    1  -7.1984483  -0.8561530  -0.7487761  -0.6264467  -0.4824791  -0.4565721
           13          14          15          16          17          18
    1  -0.4161841  -0.3835464  -0.3757085  -0.2999317  -0.2983212  -0.0130112
           19          20          21          22
    1   0.0061148   0.0171595   0.0199267   0.0281720
 Final Beta MO Eigenvalues
            1           2           3           4           5           6
    1-101.5063457 -10.2320974 -10.1770106  -9.4449710  -7.2066065  -7.1984833
            7           8           9          10          11          12
    1  -7.1984483  -0.8561530  -0.7487761  -0.6264467  -0.4824791  -0.4565721
           13          14          15          16          17          18
    1  -0.4161841  -0.3835464  -0.3757085  -0.2999317  -0.2983212  -0.0130112
           19          20          21          22
    1   0.0061148   0.0171595   0.0199267   0.0281720
 Analysis of SCF Wavefunction
 
 --------------------------------------------------------------
                    Orbital Energies (a.u.)
 --------------------------------------------------------------
 
 Alpha MOs
 -- Occupied --
******* -10.232 -10.177  -9.445  -7.207  -7.198  -7.198  -0.856
 -0.749  -0.626  -0.482  -0.457  -0.416  -0.384  -0.376  -0.300
 -0.298
 -- Virtual --
 -0.013   0.006   0.017   0.020   0.028   0.053   0.069   0.076
  0.086   0.089   0.108   0.117   0.125   0.126   0.133   0.140
  0.145   0.163   0.169   0.186   0.208   0.229   0.257   0.286
  0.304   0.318   0.346   0.357   0.396   0.415   0.425   0.446
  0.475   0.478   0.513   0.513   0.549   0.550   0.556   0.562
  0.605   0.627   0.654   0.689   0.713   0.723   0.762   0.797
  0.861   0.909   0.955   0.970   1.007   1.043   1.062   1.072
  1.075   1.092   1.095   1.115   1.123   1.143   1.172   1.204
  1.232   1.267   1.301   1.311   1.340   1.362   1.381   1.406
  1.420   1.443   1.451   1.483   1.505   1.565   1.573   1.594
  1.596   1.620   1.719   2.201   2.202   2.317   2.406   2.462
  2.564   2.606   2.609   2.783   2.787   2.791   2.905   2.978
  3.027   3.030   3.089   3.150   3.168   3.190   3.267   3.306
  3.331   3.392   3.449   3.523   3.532   3.547   3.589   3.610
  3.732   3.782   3.849   3.914   3.983   3.997   4.008   4.072
  4.198   4.209   4.222   4.229   4.302   4.366   4.381   4.394
  4.437   4.454   4.462   4.519   4.543   4.550   4.592   4.605
  4.655   4.683   5.048   5.058   5.180   5.201   5.222   5.433
  5.606   5.621   5.709   5.717   9.780  20.656  20.661  20.890
 24.082  24.314  27.182  27.221  27.239  27.278  27.284  27.686
 27.994  28.090  28.164  28.200  28.377  36.929  36.932  36.932
 36.933  36.942  36.944  36.950  40.925  40.956  41.008  41.089
 41.156  41.172  41.198  41.238  41.240  41.285 216.341
 
 Beta MOs
 -- Occupied --
******* -10.232 -10.177  -9.445  -7.207  -7.198  -7.198  -0.856
 -0.749  -0.626  -0.482  -0.457  -0.416  -0.384  -0.376  -0.300
 -0.298
 -- Virtual --
 -0.013   0.006   0.017   0.020   0.028   0.053   0.069   0.076
  0.086   0.089   0.108   0.117   0.125   0.126   0.133   0.140
  0.145   0.163   0.169   0.186   0.208   0.229   0.257   0.286
  0.304   0.318   0.346   0.357   0.396   0.415   0.425   0.446
  0.475   0.478   0.513   0.513   0.549   0.550   0.556   0.562
  0.605   0.627   0.654   0.689   0.713   0.723   0.762   0.797
  0.861   0.909   0.955   0.970   1.007   1.043   1.062   1.072
  1.075   1.092   1.095   1.115   1.123   1.143   1.172   1.204
  1.232   1.267   1.301   1.311   1.340   1.362   1.381   1.406
  1.420   1.443   1.451   1.483   1.505   1.565   1.573   1.594
  1.596   1.620   1.719   2.201   2.202   2.317   2.406   2.462
  2.564   2.606   2.609   2.783   2.787   2.791   2.905   2.978
  3.027   3.030   3.089   3.150   3.168   3.190   3.267   3.306
  3.331   3.392   3.449   3.523   3.532   3.547   3.589   3.610
  3.732   3.782   3.849   3.914   3.983   3.997   4.008   4.072
  4.198   4.209   4.222   4.229   4.302   4.366   4.381   4.394
  4.437   4.454   4.462   4.519   4.543   4.550   4.592   4.605
  4.655   4.683   5.048   5.058   5.180   5.201   5.222   5.433
  5.606   5.621   5.709   5.717   9.780  20.656  20.661  20.890
 24.082  24.314  27.182  27.221  27.239  27.278  27.284  27.686
 27.994  28.090  28.164  28.200  28.377  36.929  36.932  36.932
 36.933  36.942  36.944  36.950  40.925  40.956  41.008  41.089
 41.156  41.172  41.198  41.238  41.240  41.285 216.341
 --------------------------------------------------------------
 
          Ground-State Mulliken Net Atomic Charges

     Atom                 Charge (a.u.)    Spin (a.u.)
  --------------------------------------------------------
      1 C                     0.060332       0.000000
      2 C                    -0.324156       0.000000
      3 Cl                   -0.302429       0.000000
      4 H                     0.114562       0.000000
      5 H                     0.114562       0.000000
      6 H                     0.102884       0.000000
      7 H                     0.117122       0.000000
      8 H                     0.117122       0.000000
  --------------------------------------------------------
  Sum of atomic charges =     0.000000
  Sum of spin   charges =     0.000000

 -----------------------------------------------------------------
                    Cartesian Multipole Moments
 -----------------------------------------------------------------
    Charge (ESU x 10^10)
                 0.0000
    Dipole Moment (Debye)
         X      -1.9655      Y       0.0000      Z       1.0020
       Tot       2.2062
    Quadrupole Moments (Debye-Ang)
        XX     -29.2772     XY       0.0000     YY     -26.5489
        XZ       1.0597     YZ       0.0000     ZZ     -26.9910
    Octapole Moments (Debye-Ang^2)
       XXX     -65.6795    XXY       0.0000    XYY     -22.0828
       YYY       0.0000    XXZ      -2.6206    XYZ       0.0000
       YYZ      -2.4925    XZZ     -21.7316    YZZ       0.0000
       ZZZ      -7.1265
    Hexadecapole Moments (Debye-Ang^3)
      XXXX    -255.7839   XXXY       0.0000   XXYY     -52.8228
      XYYY       0.0000   YYYY     -43.9017   XXXZ      37.2179
      XXYZ       0.0000   XYYZ      16.5686   YYYZ       0.0000
      XXZZ     -73.5252   XYZZ       0.0000   YYZZ     -37.9831
      XZZZ      44.5242   YZZZ       0.0000   ZZZZ    -192.1429
 -----------------------------------------------------------------
 Calculating analytic gradient of the SCF energy
 Gradient of XC Energy
            1           2           3           4           5           6
    1   0.0804077  -0.0040337   0.1187444  -0.0960053  -0.0960053  -0.1730630
    2   0.0000000  -0.0000000  -0.0000000  -0.1574666   0.1574666   0.0000000
    3   0.0485669  -0.0510560  -0.0539864  -0.0747356  -0.0747356   0.0647890
            7           8
    1   0.0849776   0.0849776
    2  -0.1538411   0.1538411
    3   0.0705788   0.0705788
 Gradient of SCF Energy
            1           2           3           4           5           6
    1  -0.0001815   0.0000032   0.0001518   0.0000460   0.0000460  -0.0000072
    2   0.0000000  -0.0000000  -0.0000000   0.0000288  -0.0000288   0.0000000
    3   0.0000196   0.0000725  -0.0000451   0.0000157   0.0000157  -0.0000010
            7           8
    1  -0.0000291  -0.0000291
    2   0.0000300  -0.0000300
    3  -0.0000386  -0.0000386
 Max gradient component =       1.815E-04
 RMS gradient           =       5.649E-05
 Gradient time:  CPU 55.04 s  wall 55.11 s
 Geometry Optimization Parameters
   NAtoms,    NIC,     NZ,  NCons,   NDum,   NFix, NCnnct, MaxDiis
        8      44       8       0       0       0       0       0

 Cartesian Hessian Update
 Hessian Updated using BFGS Update


** GEOMETRY OPTIMIZATION IN DELOCALIZED INTERNAL COORDINATES **
   Searching for a Minimum

   Optimization Cycle:   3

                       Coordinates (Angstroms)
     ATOM              X           Y           Z
    1  C          -0.000766    0.000000    0.003162
    2  C          -0.000394    0.000000    1.516733
    3  Cl          1.685215    0.000000   -0.666973
    4  H          -0.480792   -0.884190   -0.406145
    5  H          -0.480792    0.884190   -0.406145
    6  H          -1.031092    0.000000    1.878464
    7  H           0.500354   -0.883257    1.910016
    8  H           0.500354    0.883257    1.910016
   Point Group: c1    Number of degrees of freedom:  18


   Energy is   -539.490240667

 Hessian Updated using BFGS Update

 12 Hessian modes will be used to form the next step
  Hessian Eigenvalues:
     0.051659    0.057713    0.151573    0.159978    0.167472    0.212404
     0.285147    0.305991    0.339047    0.343650    0.344478    0.350131

 Minimum Search - Taking Simple RFO Step
 Searching for Lamda that Minimizes Along All modes
 Value Taken    Lamda =   0.00000000
 Step Taken.  Stepsize is  0.001050

                             Maximum     Tolerance    Cnvgd?
         Gradient           0.000110      0.000300     YES
         Displacement       0.000662      0.001200     YES
         Energy change     -0.000001      0.000001      NO


                       Distance Matrix (Angstroms)
             C (  1)   C (  2)   Cl(  3)   H (  4)   H (  5)   H (  6)
   C (  2)  1.513572
   Cl(  3)  1.814281  2.758596
   H (  4)  1.086162  2.170261  2.354020
   H (  5)  1.086162  2.170261  2.354020  1.768380
   H (  6)  2.139703  1.092332  3.722577  2.510788  2.510788
   H (  7)  2.160407  1.088835  2.970676  2.515402  3.074267  1.768181
   H (  8)  2.160407  1.088835  2.970676  3.074267  2.515402  1.768181
             H (  7)
   H (  8)  1.766514
 


 ******************************
 **  OPTIMIZATION CONVERGED  **
 ******************************
 Analysis of SCF Wavefunction
 
 --------------------------------------------------------------
                    Orbital Energies (a.u.)
 --------------------------------------------------------------
 
 Alpha MOs
 -- Occupied --
******* -10.232 -10.177  -9.445  -7.207  -7.198  -7.198  -0.856
 -0.749  -0.626  -0.482  -0.457  -0.416  -0.384  -0.376  -0.300
 -0.298
 -- Virtual --
 -0.013   0.006   0.017   0.020   0.028   0.053   0.069   0.076
  0.086   0.089   0.108   0.117   0.125   0.126   0.133   0.140
  0.145   0.163   0.169   0.186   0.208   0.229   0.257   0.286
  0.304   0.318   0.346   0.357   0.396   0.415   0.425   0.446
  0.475   0.478   0.513   0.513   0.549   0.550   0.556   0.562
  0.605   0.627   0.654   0.689   0.713   0.723   0.762   0.797
  0.861   0.909   0.955   0.970   1.007   1.043   1.062   1.072
  1.075   1.092   1.095   1.115   1.123   1.143   1.172   1.204
  1.232   1.267   1.301   1.311   1.340   1.362   1.381   1.406
  1.420   1.443   1.451   1.483   1.505   1.565   1.573   1.594
  1.596   1.620   1.719   2.201   2.202   2.317   2.406   2.462
  2.564   2.606   2.609   2.783   2.787   2.791   2.905   2.978
  3.027   3.030   3.089   3.150   3.168   3.190   3.267   3.306
  3.331   3.392   3.449   3.523   3.532   3.547   3.589   3.610
  3.732   3.782   3.849   3.914   3.983   3.997   4.008   4.072
  4.198   4.209   4.222   4.229   4.302   4.366   4.381   4.394
  4.437   4.454   4.462   4.519   4.543   4.550   4.592   4.605
  4.655   4.683   5.048   5.058   5.180   5.201   5.222   5.433
  5.606   5.621   5.709   5.717   9.780  20.656  20.661  20.890
 24.082  24.314  27.182  27.221  27.239  27.278  27.284  27.686
 27.994  28.090  28.164  28.200  28.377  36.929  36.932  36.932
 36.933  36.942  36.944  36.950  40.925  40.956  41.008  41.089
 41.156  41.172  41.198  41.238  41.240  41.285 216.341
 
 Beta MOs
 -- Occupied --
******* -10.232 -10.177  -9.445  -7.207  -7.198  -7.198  -0.856
 -0.749  -0.626  -0.482  -0.457  -0.416  -0.384  -0.376  -0.300
 -0.298
 -- Virtual --
 -0.013   0.006   0.017   0.020   0.028   0.053   0.069   0.076
  0.086   0.089   0.108   0.117   0.125   0.126   0.133   0.140
  0.145   0.163   0.169   0.186   0.208   0.229   0.257   0.286
  0.304   0.318   0.346   0.357   0.396   0.415   0.425   0.446
  0.475   0.478   0.513   0.513   0.549   0.550   0.556   0.562
  0.605   0.627   0.654   0.689   0.713   0.723   0.762   0.797
  0.861   0.909   0.955   0.970   1.007   1.043   1.062   1.072
  1.075   1.092   1.095   1.115   1.123   1.143   1.172   1.204
  1.232   1.267   1.301   1.311   1.340   1.362   1.381   1.406
  1.420   1.443   1.451   1.483   1.505   1.565   1.573   1.594
  1.596   1.620   1.719   2.201   2.202   2.317   2.406   2.462
  2.564   2.606   2.609   2.783   2.787   2.791   2.905   2.978
  3.027   3.030   3.089   3.150   3.168   3.190   3.267   3.306
  3.331   3.392   3.449   3.523   3.532   3.547   3.589   3.610
  3.732   3.782   3.849   3.914   3.983   3.997   4.008   4.072
  4.198   4.209   4.222   4.229   4.302   4.366   4.381   4.394
  4.437   4.454   4.462   4.519   4.543   4.550   4.592   4.605
  4.655   4.683   5.048   5.058   5.180   5.201   5.222   5.433
  5.606   5.621   5.709   5.717   9.780  20.656  20.661  20.890
 24.082  24.314  27.182  27.221  27.239  27.278  27.284  27.686
 27.994  28.090  28.164  28.200  28.377  36.929  36.932  36.932
 36.933  36.942  36.944  36.950  40.925  40.956  41.008  41.089
 41.156  41.172  41.198  41.238  41.240  41.285 216.341
 --------------------------------------------------------------
 
          Ground-State Mulliken Net Atomic Charges

     Atom                 Charge (a.u.)    Spin (a.u.)
  --------------------------------------------------------
      1 C                     0.060332       0.000000
      2 C                    -0.324156       0.000000
      3 Cl                   -0.302429       0.000000
      4 H                     0.114562       0.000000
      5 H                     0.114562       0.000000
      6 H                     0.102884       0.000000
      7 H                     0.117122       0.000000
      8 H                     0.117122       0.000000
  --------------------------------------------------------
  Sum of atomic charges =     0.000000
  Sum of spin   charges =     0.000000

 -----------------------------------------------------------------
                    Cartesian Multipole Moments
 -----------------------------------------------------------------
    Charge (ESU x 10^10)
                 0.0000
    Dipole Moment (Debye)
         X      -1.9655      Y       0.0000      Z       1.0020
       Tot       2.2062
    Quadrupole Moments (Debye-Ang)
        XX     -29.2772     XY       0.0000     YY     -26.5489
        XZ       1.0597     YZ       0.0000     ZZ     -26.9910
    Octapole Moments (Debye-Ang^2)
       XXX     -65.6795    XXY       0.0000    XYY     -22.0828
       YYY       0.0000    XXZ      -2.6206    XYZ       0.0000
       YYZ      -2.4925    XZZ     -21.7316    YZZ       0.0000
       ZZZ      -7.1265
    Hexadecapole Moments (Debye-Ang^3)
      XXXX    -255.7839   XXXY       0.0000   XXYY     -52.8228
      XYYY       0.0000   YYYY     -43.9017   XXXZ      37.2179
      XXYZ       0.0000   XYYZ      16.5686   YYYZ       0.0000
      XXZZ     -73.5252   XYZZ       0.0000   YYZZ     -37.9831
      XZZZ      44.5242   YZZZ       0.0000   ZZZZ    -192.1429
 -----------------------------------------------------------------
 Total job time:  548.17s(wall), 546.42s(cpu) 
 Wed Jul 24 16:17:45 2013

        *************************************************************
        *                                                           *
        *  Thank you very much for using Q-Chem.  Have a nice day.  *
        *                                                           *
        *************************************************************


0 sent ACK to 0 
now end server 0 ... 
 
**********************************************************************
Job 2 of 2 
**********************************************************************
 
Process 0 of 1 is on cl038.stfx.acenet.ca - thread support 1
initial socket setup ...start
initial socket setup ...done 
now start server 0 ... 

cmd = /usr/bin/ssh clhead /usr/local/qchem/bin/get_hostid 1127813205 > /scratch/tmp/6067148.1.short.q/qchem29278/lic.dat
                  Welcome to Q-Chem
     A Quantum Leap Into The Future Of Chemistry

 Y. Shao, L. Fusti-Molnar, Y. Jung, J. Kussmann, C. Ochsenfeld,
 S. T. Brown, A. T. B. Gilbert, L. V. Slipchenko,S. V. Levchenko,
 D. P. O'Neill, R. A. DiStasio Jr., R. C. Lochan, T. Wang,
 G. J. O. Beran, N. A. Besley, J. M. Herbert, C. Y. Lin,
 T. Van Voorhis, S. H. Chien, A. Sodt, R. P. Steele, 
 V. A. Rassolov, P. E. Maslen, P. P. Korambath, R. D. Adamson,
 B. Austin, J. Baker, E. F. C. Byrd, H. Dachsel, R. J. Doerksen,
 A. Dreuw, B. D. Dunietz, A. D. Dutoi, T. R. Furlani,
 S. R. Gwaltney, A. Heyden, S. Hirata, C.-P. Hsu, G. Kedziora,
 R. Z. Khaliullin, P. Klunzinger, A. M. Lee, M. S. Lee, W. Liang,
 I. Lotan, N. Nair, B. Peters, E. I. Proynov, P. A. Pieniazek, 
 Y. M. Rhee, J. Ritchie, E. Rosta, C. D. Sherrill, 
 A. C. Simmonett, J. E. Subotnik, H. L. Woodcock III,
 W. Zhang, A. T. Bell, A. K. Chakraborty, D. M. Chipman,
 F. J. Keil, A. Warshel, W. J. Hehre, H. F. Schaefer III,
 J. Kong, A. I. Krylov, P. M. W. Gill, M. Head-Gordon,
 Q-Chem, Version 3.1, Q-Chem, Inc., Pittsburgh, PA (2007).

 Additional authors for Version 3.1: 
 Z. Gan, Y. Zhao, N. E. Schultz, D. Truhlar, E. Epifanovsky and M. Oana.

 Additional authors for Version 3.2: 
 R. Baer, B. R. Brooks, D. Casanova, J.-D. Chai, C.-L. Cheng, 
 C. Cramer, D. Crittenden, A. Ghysels, G. Hawkins, E. G. Hohenstein, 
 C. Kelley, W. Kurlancheek, D. Liotard, E. Livshits, P. Manohar, 
 A. Marenich, D. Neuhauser, R. Olson, M. A. Rohrdanz, K. S. Thanthiriwatte, 
 A. J. W. Thom, V. Vanovschi, C. F. Williams, Q. Wu and Z.-Q. You. 


 Intel X86 Linux Version

 Q-chem begins on Wed Jul 24 16:17:48 2013  

 Parallel job on  1  processors
Processing $rem in /usr/local/qchem/config/preferences.

theFileMan(): MAXOPENFILES=974 MAX_SUB_FILE_NUM=16
Maximum size of a physical file is 2.0 GB, maximum size of a tmp-file is 32.0 GB


--------------------------------------------------------------
User input:
--------------------------------------------------------------

$molecule 
READ 
$end 

$rem
   EXCHANGE B3LYP
   UNRESTRICTED TRUE
   SYMMETRY_DECOMPOSITION       0
   BASIS                   g3large
   JOBTYPE                 freq
   mem_static              760
   max_scf_cycles          200
   scf_final_print         1
   sym_ignore              true
   JOBTYPE                 freq
   IDERIV 1
   SCF_GUESS READ
$end
--------------------------------------------------------------
 Writing REM_CC_EA            8
 ----------------------------------------------------
       Standard Nuclear Orientation (Angstroms)
    I     Atom         X            Y            Z
 ----------------------------------------------------
    1      C      -0.000766     0.000000     0.003162
    2      C      -0.000394     0.000000     1.516733
    3      Cl      1.685215     0.000000    -0.666973
    4      H      -0.480792    -0.884190    -0.406145
    5      H      -0.480792     0.884190    -0.406145
    6      H      -1.031092     0.000000     1.878464
    7      H       0.500354    -0.883257     1.910016
    8      H       0.500354     0.883257     1.910016
 ----------------------------------------------------
 Nuclear Repulsion Energy =   102.3379860866 hartrees
 There are       17 alpha and       17 beta electrons
 Requested basis set is G3large
 There are 69 shells and 200 basis functions

Total QAlloc Memory Limit   2000 MB
Mega-Array Size       759 MB
MEM_STATIC part       760 MB

                       Distance Matrix (Angstroms)
             C (  1)   C (  2)   Cl(  3)   H (  4)   H (  5)   H (  6)
   C (  2)  1.513572
   Cl(  3)  1.814281  2.758596
   H (  4)  1.086162  2.170261  2.354020
   H (  5)  1.086162  2.170261  2.354020  1.768380
   H (  6)  2.139703  1.092332  3.722577  2.510788  2.510788
   H (  7)  2.160407  1.088835  2.970676  2.515402  3.074267  1.768181
   H (  8)  2.160407  1.088835  2.970676  3.074267  2.515402  1.768181
             H (  7)
   H (  8)  1.766514
 
 A cutoff of  1.0D-11 yielded   2304 shell pairs
 There are  19443 function pairs ( 24664 Cartesian)
Evaluating contribution to one-electron hamiltonian from nuclear
 Smallest overlap matrix eigenvalue = 9.34E-05
 Multipole matrices computed through 2nd order
 Guess MOs from SCF MO coefficient file
Reading MOs from coefficient file
Reading MOs from coefficient file
 An unrestricted hybrid HF-DFT SCF calculation will be
 performed using Pulay DIIS extrapolation
 Exchange:     0.2000 Hartree-Fock + 0.0800 Slater + 0.7200 Becke88
 Correlation:  0.8100 LYP + 0.1900 VWN1RPA
 Using SG-1 standard quadrature grid
 SCF converges when DIIS error is below 1.0E-08
 ---------------------------------------
  Cycle       Energy         DIIS Error
 ---------------------------------------
    1    -539.4902406561      1.38E-09
    2    -539.4902406564      1.33E-09 Convergence criterion met
 ---------------------------------------
 One-Electron    Energy =  -944.2540761046
 Total Coulomb   Energy =   343.4338843032
 Alpha Exchange  Energy =    -3.9684327698
 Beta  Exchange  Energy =    -3.9684327698
 DFT   Exchange  Energy =   -31.4853358762
 DFT Correlation Energy =    -1.5858335258
 Nuclear Repu.   Energy =   102.3379860866
 Nuclear Attr.   Energy = -1482.7015195955
 Kinetic         Energy =   538.4474434909
 <S^2> = 0.0000
 SCF time:  CPU 30.07 s  wall 30.17 s
 Final Alpha MO Eigenvalues
            1           2           3           4           5           6
    1-101.5063457 -10.2320975 -10.1770107  -9.4449710  -7.2066065  -7.1984832
            7           8           9          10          11          12
    1  -7.1984483  -0.8561530  -0.7487761  -0.6264467  -0.4824791  -0.4565721
           13          14          15          16          17          18
    1  -0.4161841  -0.3835464  -0.3757085  -0.2999317  -0.2983212  -0.0130112
           19          20          21          22
    1   0.0061148   0.0171595   0.0199268   0.0281720
 Final Beta MO Eigenvalues
            1           2           3           4           5           6
    1-101.5063457 -10.2320975 -10.1770107  -9.4449710  -7.2066065  -7.1984832
            7           8           9          10          11          12
    1  -7.1984483  -0.8561530  -0.7487761  -0.6264467  -0.4824791  -0.4565721
           13          14          15          16          17          18
    1  -0.4161841  -0.3835464  -0.3757085  -0.2999317  -0.2983212  -0.0130112
           19          20          21          22
    1   0.0061148   0.0171595   0.0199268   0.0281720
 Analysis of SCF Wavefunction
 
 --------------------------------------------------------------
                    Orbital Energies (a.u.)
 --------------------------------------------------------------
 
 Alpha MOs
 -- Occupied --
******* -10.232 -10.177  -9.445  -7.207  -7.198  -7.198  -0.856
 -0.749  -0.626  -0.482  -0.457  -0.416  -0.384  -0.376  -0.300
 -0.298
 -- Virtual --
 -0.013   0.006   0.017   0.020   0.028   0.053   0.069   0.076
  0.086   0.089   0.108   0.117   0.125   0.126   0.133   0.140
  0.145   0.163   0.169   0.186   0.208   0.229   0.257   0.286
  0.304   0.318   0.346   0.357   0.396   0.415   0.425   0.446
  0.475   0.478   0.513   0.513   0.549   0.550   0.556   0.562
  0.605   0.627   0.654   0.689   0.713   0.723   0.762   0.797
  0.861   0.909   0.955   0.970   1.007   1.043   1.062   1.072
  1.075   1.092   1.095   1.115   1.123   1.143   1.172   1.204
  1.232   1.267   1.301   1.311   1.340   1.362   1.381   1.406
  1.420   1.443   1.451   1.483   1.505   1.565   1.573   1.594
  1.596   1.620   1.719   2.201   2.202   2.317   2.406   2.462
  2.564   2.606   2.609   2.783   2.787   2.791   2.905   2.978
  3.027   3.030   3.089   3.150   3.168   3.190   3.267   3.306
  3.331   3.392   3.449   3.523   3.532   3.547   3.589   3.610
  3.732   3.782   3.849   3.914   3.983   3.997   4.008   4.072
  4.198   4.209   4.222   4.229   4.302   4.366   4.381   4.394
  4.437   4.454   4.462   4.519   4.543   4.550   4.592   4.605
  4.655   4.683   5.048   5.058   5.180   5.201   5.222   5.433
  5.606   5.621   5.709   5.717   9.780  20.656  20.661  20.890
 24.082  24.314  27.182  27.221  27.239  27.278  27.284  27.686
 27.994  28.090  28.164  28.200  28.377  36.929  36.932  36.932
 36.933  36.942  36.944  36.950  40.925  40.956  41.008  41.089
 41.156  41.172  41.198  41.238  41.240  41.285 216.341
 
 Beta MOs
 -- Occupied --
******* -10.232 -10.177  -9.445  -7.207  -7.198  -7.198  -0.856
 -0.749  -0.626  -0.482  -0.457  -0.416  -0.384  -0.376  -0.300
 -0.298
 -- Virtual --
 -0.013   0.006   0.017   0.020   0.028   0.053   0.069   0.076
  0.086   0.089   0.108   0.117   0.125   0.126   0.133   0.140
  0.145   0.163   0.169   0.186   0.208   0.229   0.257   0.286
  0.304   0.318   0.346   0.357   0.396   0.415   0.425   0.446
  0.475   0.478   0.513   0.513   0.549   0.550   0.556   0.562
  0.605   0.627   0.654   0.689   0.713   0.723   0.762   0.797
  0.861   0.909   0.955   0.970   1.007   1.043   1.062   1.072
  1.075   1.092   1.095   1.115   1.123   1.143   1.172   1.204
  1.232   1.267   1.301   1.311   1.340   1.362   1.381   1.406
  1.420   1.443   1.451   1.483   1.505   1.565   1.573   1.594
  1.596   1.620   1.719   2.201   2.202   2.317   2.406   2.462
  2.564   2.606   2.609   2.783   2.787   2.791   2.905   2.978
  3.027   3.030   3.089   3.150   3.168   3.190   3.267   3.306
  3.331   3.392   3.449   3.523   3.532   3.547   3.589   3.610
  3.732   3.782   3.849   3.914   3.983   3.997   4.008   4.072
  4.198   4.209   4.222   4.229   4.302   4.366   4.381   4.394
  4.437   4.454   4.462   4.519   4.543   4.550   4.592   4.605
  4.655   4.683   5.048   5.058   5.180   5.201   5.222   5.433
  5.606   5.621   5.709   5.717   9.780  20.656  20.661  20.890
 24.082  24.314  27.182  27.221  27.239  27.278  27.284  27.686
 27.994  28.090  28.164  28.200  28.377  36.929  36.932  36.932
 36.933  36.942  36.944  36.950  40.925  40.956  41.008  41.089
 41.156  41.172  41.198  41.238  41.240  41.285 216.341
 --------------------------------------------------------------
 
          Ground-State Mulliken Net Atomic Charges

     Atom                 Charge (a.u.)    Spin (a.u.)
  --------------------------------------------------------
      1 C                     0.060332       0.000000
      2 C                    -0.324156       0.000000
      3 Cl                   -0.302429       0.000000
      4 H                     0.114562       0.000000
      5 H                     0.114562       0.000000
      6 H                     0.102884       0.000000
      7 H                     0.117122       0.000000
      8 H                     0.117122       0.000000
  --------------------------------------------------------
  Sum of atomic charges =     0.000000
  Sum of spin   charges =     0.000000

 -----------------------------------------------------------------
                    Cartesian Multipole Moments
 -----------------------------------------------------------------
    Charge (ESU x 10^10)
                 0.0000
    Dipole Moment (Debye)
         X      -1.9655      Y       0.0000      Z       1.0020
       Tot       2.2062
    Quadrupole Moments (Debye-Ang)
        XX     -29.2772     XY       0.0000     YY     -26.5489
        XZ       1.0597     YZ       0.0000     ZZ     -26.9910
    Octapole Moments (Debye-Ang^2)
       XXX     -65.6795    XXY       0.0000    XYY     -22.0828
       YYY       0.0000    XXZ      -2.6206    XYZ       0.0000
       YYZ      -2.4925    XZZ     -21.7316    YZZ       0.0000
       ZZZ      -7.1265
    Hexadecapole Moments (Debye-Ang^3)
      XXXX    -255.7839   XXXY       0.0000   XXYY     -52.8228
      XYYY       0.0000   YYYY     -43.9017   XXXZ      37.2179
      XXYZ       0.0000   XYYZ      16.5686   YYYZ       0.0000
      XXZZ     -73.5252   XYZZ       0.0000   YYZZ     -37.9831
      XZZZ      44.5242   YZZZ       0.0000   ZZZZ    -192.1429
 -----------------------------------------------------------------
 Calculating analytic gradient of the SCF energy
 Gradient of XC Energy
            1           2           3           4           5           6
    1   0.0804077  -0.0040337   0.1187444  -0.0960053  -0.0960053  -0.1730630
    2   0.0000000  -0.0000000  -0.0000000  -0.1574666   0.1574666   0.0000000
    3   0.0485669  -0.0510559  -0.0539864  -0.0747356  -0.0747356   0.0647890
            7           8
    1   0.0849776   0.0849776
    2  -0.1538411   0.1538411
    3   0.0705788   0.0705788
 Gradient of SCF Energy
            1           2           3           4           5           6
    1  -0.0001815   0.0000032   0.0001518   0.0000460   0.0000460  -0.0000072
    2   0.0000000  -0.0000000  -0.0000000   0.0000288  -0.0000288   0.0000000
    3   0.0000196   0.0000725  -0.0000451   0.0000157   0.0000157  -0.0000010
            7           8
    1  -0.0000291  -0.0000291
    2   0.0000300  -0.0000300
    3  -0.0000386  -0.0000386
 Max gradient component =       1.815E-04
 RMS gradient           =       5.649E-05
 Gradient time:  CPU 55.80 s  wall 55.87 s
 ######################################################
 ######################################################
 # Starting finite difference calculation for IDERIV  #
 Finite diff step size: 1.89e-03 a.u.
 Writing REM_CC_EA            8
 ----------------------------------------------------
       Standard Nuclear Orientation (Angstroms)
    I     Atom         X            Y            Z
 ----------------------------------------------------
    1      C       0.000234     0.000000     0.003162
    2      C      -0.000394     0.000000     1.516733
    3      Cl      1.685215     0.000000    -0.666973
    4      H      -0.480792    -0.884190    -0.406145
    5      H      -0.480792     0.884190    -0.406145
    6      H      -1.031092     0.000000     1.878464
    7      H       0.500354    -0.883257     1.910016
    8      H       0.500354     0.883257     1.910016
 ----------------------------------------------------
 Nuclear Repulsion Energy =   102.3508325076 hartrees
 There are       17 alpha and       17 beta electrons

                       Distance Matrix (Angstroms)
             C (  1)   C (  2)   Cl(  3)   H (  4)   H (  5)   H (  6)
   C (  2)  1.513572
   Cl(  3)  1.813351  2.758596
   H (  4)  1.086604  2.170261  2.354020
   H (  5)  1.086604  2.170261  2.354020  1.768380
   H (  6)  2.140185  1.092332  3.722577  2.510788  2.510788
   H (  7)  2.160175  1.088835  2.970676  2.515402  3.074267  1.768181
   H (  8)  2.160175  1.088835  2.970676  3.074267  2.515402  1.768181
             H (  7)
   H (  8)  1.766514
 
 Requested basis set is G3large
 There are 69 shells and 200 basis functions
 A cutoff of  1.0D-11 yielded   2304 shell pairs
 There are  19443 function pairs ( 24664 Cartesian)
Evaluating contribution to one-electron hamiltonian from nuclear
 Smallest overlap matrix eigenvalue = 9.34E-05
 Multipole matrices computed through 2nd order
 Guess MOs from SCF MO coefficient file
Reading MOs from coefficient file
Reading MOs from coefficient file
 An unrestricted hybrid HF-DFT SCF calculation will be
 performed using Pulay DIIS extrapolation
 Exchange:     0.2000 Hartree-Fock + 0.0800 Slater + 0.7200 Becke88
 Correlation:  0.8100 LYP + 0.1900 VWN1RPA
 Using SG-1 standard quadrature grid
 SCF converges when DIIS error is below 1.0E-08
 ---------------------------------------
  Cycle       Energy         DIIS Error
 ---------------------------------------
    1    -539.4904568691      2.25E-05
    2    -539.4902401361      4.96E-06
    3    -539.4902401711      5.93E-06
    4    -539.4902403459      9.28E-07
    5    -539.4902403739      2.20E-07
    6    -539.4902403671      3.11E-08
    7    -539.4902403679      9.10E-09 Convergence criterion met
 ---------------------------------------
 One-Electron    Energy =  -944.2790197205
 Total Coulomb   Energy =   343.4459412683
 Alpha Exchange  Energy =    -3.9684289811
 Beta  Exchange  Energy =    -3.9684289811
 DFT   Exchange  Energy =   -31.4852964152
 DFT Correlation Energy =    -1.5858400460
 Nuclear Repu.   Energy =   102.3508325076
 Nuclear Attr.   Energy = -1482.7262254341
 Kinetic         Energy =   538.4472057136
 <S^2> = 0.0000
 SCF time:  CPU 94.06 s  wall 94.35 s
 Final Alpha MO Eigenvalues
            1           2           3           4           5           6
    1-101.5064175 -10.2320886 -10.1769789  -9.4450502  -7.2066859  -7.1985612
            7           8           9          10          11          12
    1  -7.1985266  -0.8563159  -0.7487620  -0.6263424  -0.4823605  -0.4566421
           13          14          15          16          17          18
    1  -0.4161640  -0.3834779  -0.3758111  -0.2999691  -0.2983160  -0.0129903
           19          20          21          22
    1   0.0062082   0.0172128   0.0199191   0.0281798
 Final Beta MO Eigenvalues
            1           2           3           4           5           6
    1-101.5064175 -10.2320886 -10.1769789  -9.4450502  -7.2066859  -7.1985612
            7           8           9          10          11          12
    1  -7.1985266  -0.8563159  -0.7487620  -0.6263424  -0.4823605  -0.4566421
           13          14          15          16          17          18
    1  -0.4161640  -0.3834779  -0.3758111  -0.2999691  -0.2983160  -0.0129903
           19          20          21          22
    1   0.0062082   0.0172128   0.0199191   0.0281798
 Analysis of SCF Wavefunction
 
 --------------------------------------------------------------
                    Orbital Energies (a.u.)
 --------------------------------------------------------------
 
 Alpha MOs
 -- Occupied --
******* -10.232 -10.177  -9.445  -7.207  -7.199  -7.199  -0.856
 -0.749  -0.626  -0.482  -0.457  -0.416  -0.383  -0.376  -0.300
 -0.298
 -- Virtual --
 -0.013   0.006   0.017   0.020   0.028   0.053   0.069   0.076
  0.086   0.089   0.108   0.117   0.125   0.126   0.133   0.140
  0.145   0.163   0.169   0.185   0.208   0.229   0.257   0.286
  0.304   0.318   0.346   0.357   0.396   0.415   0.425   0.446
  0.475   0.478   0.513   0.513   0.549   0.551   0.556   0.562
  0.605   0.627   0.654   0.689   0.713   0.724   0.762   0.797
  0.861   0.909   0.954   0.970   1.007   1.043   1.062   1.072
  1.075   1.092   1.095   1.116   1.123   1.143   1.172   1.204
  1.232   1.267   1.301   1.311   1.340   1.363   1.381   1.406
  1.420   1.443   1.452   1.483   1.505   1.565   1.573   1.594
  1.596   1.620   1.719   2.201   2.202   2.317   2.406   2.462
  2.564   2.606   2.609   2.783   2.787   2.791   2.905   2.978
  3.027   3.030   3.088   3.150   3.168   3.190   3.267   3.306
  3.331   3.392   3.449   3.523   3.532   3.547   3.590   3.611
  3.731   3.782   3.849   3.914   3.982   3.996   4.008   4.072
  4.198   4.209   4.222   4.229   4.302   4.366   4.381   4.394
  4.437   4.454   4.462   4.520   4.542   4.550   4.591   4.605
  4.655   4.683   5.048   5.058   5.181   5.201   5.222   5.433
  5.606   5.621   5.708   5.717   9.781  20.656  20.661  20.890
 24.081  24.314  27.182  27.221  27.239  27.278  27.284  27.686
 27.996  28.090  28.164  28.200  28.377  36.929  36.931  36.932
 36.933  36.942  36.944  36.950  40.925  40.956  41.008  41.089
 41.156  41.172  41.198  41.238  41.240  41.285 216.341
 
 Beta MOs
 -- Occupied --
******* -10.232 -10.177  -9.445  -7.207  -7.199  -7.199  -0.856
 -0.749  -0.626  -0.482  -0.457  -0.416  -0.383  -0.376  -0.300
 -0.298
 -- Virtual --
 -0.013   0.006   0.017   0.020   0.028   0.053   0.069   0.076
  0.086   0.089   0.108   0.117   0.125   0.126   0.133   0.140
  0.145   0.163   0.169   0.185   0.208   0.229   0.257   0.286
  0.304   0.318   0.346   0.357   0.396   0.415   0.425   0.446
  0.475   0.478   0.513   0.513   0.549   0.551   0.556   0.562
  0.605   0.627   0.654   0.689   0.713   0.724   0.762   0.797
  0.861   0.909   0.954   0.970   1.007   1.043   1.062   1.072
  1.075   1.092   1.095   1.116   1.123   1.143   1.172   1.204
  1.232   1.267   1.301   1.311   1.340   1.363   1.381   1.406
  1.420   1.443   1.452   1.483   1.505   1.565   1.573   1.594
  1.596   1.620   1.719   2.201   2.202   2.317   2.406   2.462
  2.564   2.606   2.609   2.783   2.787   2.791   2.905   2.978
  3.027   3.030   3.088   3.150   3.168   3.190   3.267   3.306
  3.331   3.392   3.449   3.523   3.532   3.547   3.590   3.611
  3.731   3.782   3.849   3.914   3.982   3.996   4.008   4.072
  4.198   4.209   4.222   4.229   4.302   4.366   4.381   4.394
  4.437   4.454   4.462   4.520   4.542   4.550   4.591   4.605
  4.655   4.683   5.048   5.058   5.181   5.201   5.222   5.433
  5.606   5.621   5.708   5.717   9.781  20.656  20.661  20.890
 24.081  24.314  27.182  27.221  27.239  27.278  27.284  27.686
 27.996  28.090  28.164  28.200  28.377  36.929  36.931  36.932
 36.933  36.942  36.944  36.950  40.925  40.956  41.008  41.089
 41.156  41.172  41.198  41.238  41.240  41.285 216.341
 --------------------------------------------------------------
 
          Ground-State Mulliken Net Atomic Charges

     Atom                 Charge (a.u.)    Spin (a.u.)
  --------------------------------------------------------
      1 C                     0.060538       0.000000
      2 C                    -0.324191       0.000000
      3 Cl                   -0.302021       0.000000
      4 H                     0.114318       0.000000
      5 H                     0.114318       0.000000
      6 H                     0.102920       0.000000
      7 H                     0.117059       0.000000
      8 H                     0.117059       0.000000
  --------------------------------------------------------
  Sum of atomic charges =     0.000000
  Sum of spin   charges =     0.000000

 -----------------------------------------------------------------
                    Cartesian Multipole Moments
 -----------------------------------------------------------------
    Charge (ESU x 10^10)
                 0.0000
    Dipole Moment (Debye)
         X      -1.9623      Y       0.0000      Z       1.0003
       Tot       2.2026
    Quadrupole Moments (Debye-Ang)
        XX     -29.2726     XY       0.0000     YY     -26.5505
        XZ       1.0557     YZ       0.0000     ZZ     -26.9911
    Octapole Moments (Debye-Ang^2)
       XXX     -65.6821    XXY       0.0000    XYY     -22.0845
       YYY       0.0000    XXZ      -2.6261    XYZ       0.0000
       YYZ      -2.4938    XZZ     -21.7352    YZZ       0.0000
       ZZZ      -7.1354
    Hexadecapole Moments (Debye-Ang^3)
      XXXX    -255.7552   XXXY       0.0000   XXYY     -52.8197
      XYYY       0.0000   YYYY     -43.9089   XXXZ      37.2015
      XXYZ       0.0000   XYYZ      16.5649   YYYZ       0.0000
      XXZZ     -73.5155   XYZZ       0.0000   YYZZ     -37.9858
      XZZZ      44.5027   YZZZ       0.0000   ZZZZ    -192.1468
 -----------------------------------------------------------------
 Calculating analytic gradient of the SCF energy
 Gradient of XC Energy
            1           2           3           4           5           6
    1   0.0807769  -0.0042346   0.1189161  -0.0961590  -0.0961590  -0.1730793
    2   0.0000000  -0.0000000  -0.0000000  -0.1572995   0.1572995   0.0000000
    3   0.0485908  -0.0510767  -0.0541235  -0.0746602  -0.0746602   0.0648389
            7           8
    1   0.0849694   0.0849694
    2  -0.1538339   0.1538339
    3   0.0705454   0.0705454
 Gradient of SCF Energy
            1           2           3           4           5           6
    1   0.0004984  -0.0001249  -0.0000483  -0.0001260  -0.0001260  -0.0000101
    2   0.0000000  -0.0000000  -0.0000000  -0.0001526   0.0001526   0.0000000
    3   0.0001901   0.0000476  -0.0000034  -0.0000743  -0.0000743   0.0000559
            7           8
    1  -0.0000316  -0.0000316
    2   0.0000287  -0.0000287
    3  -0.0000708  -0.0000708
 Max gradient component =       4.984E-04
 RMS gradient           =       1.309E-04
 Gradient time:  CPU 55.47 s  wall 55.84 s
 Writing REM_CC_EA            8
 ----------------------------------------------------
       Standard Nuclear Orientation (Angstroms)
    I     Atom         X            Y            Z
 ----------------------------------------------------
    1      C      -0.001766     0.000000     0.003162
    2      C      -0.000394     0.000000     1.516733
    3      Cl      1.685215     0.000000    -0.666973
    4      H      -0.480792    -0.884190    -0.406145
    5      H      -0.480792     0.884190    -0.406145
    6      H      -1.031092     0.000000     1.878464
    7      H       0.500354    -0.883257     1.910016
    8      H       0.500354     0.883257     1.910016
 ----------------------------------------------------
 Nuclear Repulsion Energy =   102.3251458702 hartrees
 There are       17 alpha and       17 beta electrons

                       Distance Matrix (Angstroms)
             C (  1)   C (  2)   Cl(  3)   H (  4)   H (  5)   H (  6)
   C (  2)  1.513572
   Cl(  3)  1.815210  2.758596
   H (  4)  1.085721  2.170261  2.354020
   H (  5)  1.085721  2.170261  2.354020  1.768380
   H (  6)  2.139222  1.092332  3.722577  2.510788  2.510788
   H (  7)  2.160639  1.088835  2.970676  2.515402  3.074267  1.768181
   H (  8)  2.160639  1.088835  2.970676  3.074267  2.515402  1.768181
             H (  7)
   H (  8)  1.766514
 
 Requested basis set is G3large
 There are 69 shells and 200 basis functions
 A cutoff of  1.0D-11 yielded   2304 shell pairs
 There are  19443 function pairs ( 24664 Cartesian)
Evaluating contribution to one-electron hamiltonian from nuclear
 Smallest overlap matrix eigenvalue = 9.34E-05
 Multipole matrices computed through 2nd order
 Guess MOs from SCF MO coefficient file
Reading MOs from coefficient file
Reading MOs from coefficient file
 An unrestricted hybrid HF-DFT SCF calculation will be
 performed using Pulay DIIS extrapolation
 Exchange:     0.2000 Hartree-Fock + 0.0800 Slater + 0.7200 Becke88
 Correlation:  0.8100 LYP + 0.1900 VWN1RPA
 Using SG-1 standard quadrature grid
 SCF converges when DIIS error is below 1.0E-08
 ---------------------------------------
  Cycle       Energy         DIIS Error
 ---------------------------------------
    1    -539.4898058989      4.50E-05
    2    -539.4902391168      9.91E-06
    3    -539.4902389807      1.18E-05
    4    -539.4902396604      1.86E-06
    5    -539.4902396252      4.40E-07
    6    -539.4902396385      6.21E-08
    7    -539.4902396361      1.81E-08
    8    -539.4902396362      5.41E-09 Convergence criterion met
 ---------------------------------------
 One-Electron    Energy =  -944.2291350133
 Total Coulomb   Energy =   343.4218243510
 Alpha Exchange  Energy =    -3.9684364834
 Beta  Exchange  Energy =    -3.9684364834
 DFT   Exchange  Energy =   -31.4853748961
 DFT Correlation Energy =    -1.5858269812
 Nuclear Repu.   Energy =   102.3251458702
 Nuclear Attr.   Energy = -1482.6768131224
 Kinetic         Energy =   538.4476781090
 <S^2> = 0.0000
 SCF time:  CPU 106.58 s  wall 106.88 s
 Final Alpha MO Eigenvalues
            1           2           3           4           5           6
    1-101.5062737 -10.2321066 -10.1770424  -9.4448918  -7.2065271  -7.1984053
            7           8           9          10          11          12
    1  -7.1983700  -0.8559906  -0.7487900  -0.6265510  -0.4825981  -0.4565023
           13          14          15          16          17          18
    1  -0.4162050  -0.3836152  -0.3756050  -0.2998941  -0.2983261  -0.0130326
           19          20          21          22
    1   0.0060204   0.0171068   0.0199343   0.0281644
 Final Beta MO Eigenvalues
            1           2           3           4           5           6
    1-101.5062737 -10.2321066 -10.1770424  -9.4448918  -7.2065271  -7.1984053
            7           8           9          10          11          12
    1  -7.1983700  -0.8559906  -0.7487900  -0.6265510  -0.4825981  -0.4565023
           13          14          15          16          17          18
    1  -0.4162050  -0.3836152  -0.3756050  -0.2998941  -0.2983261  -0.0130326
           19          20          21          22
    1   0.0060204   0.0171068   0.0199343   0.0281644
 Analysis of SCF Wavefunction
 
 --------------------------------------------------------------
                    Orbital Energies (a.u.)
 --------------------------------------------------------------
 
 Alpha MOs
 -- Occupied --
******* -10.232 -10.177  -9.445  -7.207  -7.198  -7.198  -0.856
 -0.749  -0.627  -0.483  -0.457  -0.416  -0.384  -0.376  -0.300
 -0.298
 -- Virtual --
 -0.013   0.006   0.017   0.020   0.028   0.053   0.069   0.076
  0.086   0.089   0.108   0.117   0.125   0.126   0.133   0.140
  0.145   0.163   0.169   0.186   0.208   0.229   0.257   0.286
  0.304   0.318   0.345   0.357   0.396   0.415   0.425   0.446
  0.475   0.478   0.513   0.513   0.549   0.550   0.556   0.562
  0.605   0.627   0.654   0.689   0.713   0.723   0.762   0.797
  0.861   0.909   0.955   0.970   1.007   1.043   1.062   1.072
  1.075   1.092   1.095   1.115   1.123   1.143   1.171   1.204
  1.232   1.267   1.301   1.311   1.340   1.362   1.381   1.406
  1.419   1.443   1.451   1.483   1.505   1.565   1.573   1.594
  1.596   1.620   1.718   2.201   2.201   2.316   2.406   2.462
  2.564   2.606   2.609   2.783   2.786   2.791   2.905   2.978
  3.027   3.030   3.089   3.150   3.168   3.190   3.267   3.306
  3.331   3.392   3.449   3.523   3.532   3.547   3.589   3.610
  3.732   3.783   3.849   3.913   3.983   3.997   4.009   4.072
  4.198   4.209   4.222   4.229   4.302   4.366   4.381   4.395
  4.437   4.454   4.462   4.519   4.543   4.551   4.593   4.605
  4.655   4.683   5.048   5.058   5.180   5.201   5.222   5.434
  5.606   5.621   5.709   5.716   9.780  20.656  20.661  20.890
 24.083  24.315  27.182  27.221  27.240  27.278  27.284  27.686
 27.993  28.090  28.164  28.200  28.378  36.929  36.932  36.932
 36.933  36.942  36.944  36.950  40.925  40.957  41.008  41.089
 41.156  41.172  41.198  41.239  41.240  41.285 216.341
 
 Beta MOs
 -- Occupied --
******* -10.232 -10.177  -9.445  -7.207  -7.198  -7.198  -0.856
 -0.749  -0.627  -0.483  -0.457  -0.416  -0.384  -0.376  -0.300
 -0.298
 -- Virtual --
 -0.013   0.006   0.017   0.020   0.028   0.053   0.069   0.076
  0.086   0.089   0.108   0.117   0.125   0.126   0.133   0.140
  0.145   0.163   0.169   0.186   0.208   0.229   0.257   0.286
  0.304   0.318   0.345   0.357   0.396   0.415   0.425   0.446
  0.475   0.478   0.513   0.513   0.549   0.550   0.556   0.562
  0.605   0.627   0.654   0.689   0.713   0.723   0.762   0.797
  0.861   0.909   0.955   0.970   1.007   1.043   1.062   1.072
  1.075   1.092   1.095   1.115   1.123   1.143   1.171   1.204
  1.232   1.267   1.301   1.311   1.340   1.362   1.381   1.406
  1.419   1.443   1.451   1.483   1.505   1.565   1.573   1.594
  1.596   1.620   1.718   2.201   2.201   2.316   2.406   2.462
  2.564   2.606   2.609   2.783   2.786   2.791   2.905   2.978
  3.027   3.030   3.089   3.150   3.168   3.190   3.267   3.306
  3.331   3.392   3.449   3.523   3.532   3.547   3.589   3.610
  3.732   3.783   3.849   3.913   3.983   3.997   4.009   4.072
  4.198   4.209   4.222   4.229   4.302   4.366   4.381   4.395
  4.437   4.454   4.462   4.519   4.543   4.551   4.593   4.605
  4.655   4.683   5.048   5.058   5.180   5.201   5.222   5.434
  5.606   5.621   5.709   5.716   9.780  20.656  20.661  20.890
 24.083  24.315  27.182  27.221  27.240  27.278  27.284  27.686
 27.993  28.090  28.164  28.200  28.378  36.929  36.932  36.932
 36.933  36.942  36.944  36.950  40.925  40.957  41.008  41.089
 41.156  41.172  41.198  41.239  41.240  41.285 216.341
 --------------------------------------------------------------
 
          Ground-State Mulliken Net Atomic Charges

     Atom                 Charge (a.u.)    Spin (a.u.)
  --------------------------------------------------------
      1 C                     0.060125       0.000000
      2 C                    -0.324120       0.000000
      3 Cl                   -0.302836       0.000000
      4 H                     0.114807       0.000000
      5 H                     0.114807       0.000000
      6 H                     0.102848       0.000000
      7 H                     0.117185       0.000000
      8 H                     0.117185       0.000000
  --------------------------------------------------------
  Sum of atomic charges =     0.000000
  Sum of spin   charges =     0.000000

 -----------------------------------------------------------------
                    Cartesian Multipole Moments
 -----------------------------------------------------------------
    Charge (ESU x 10^10)
                 0.0000
    Dipole Moment (Debye)
         X      -1.9687      Y       0.0000      Z       1.0036
       Tot       2.2098
    Quadrupole Moments (Debye-Ang)
        XX     -29.2818     XY       0.0000     YY     -26.5473
        XZ       1.0638     YZ       0.0000     ZZ     -26.9909
    Octapole Moments (Debye-Ang^2)
       XXX     -65.6769    XXY       0.0000    XYY     -22.0811
       YYY       0.0000    XXZ      -2.6152    XYZ       0.0000
       YYZ      -2.4911    XZZ     -21.7280    YZZ       0.0000
       ZZZ      -7.1176
    Hexadecapole Moments (Debye-Ang^3)
[...]
            7           8           9          10          11          12
    1  -0.5139108   0.0001137   0.1571047  -0.0659728  -0.0705405   0.0159005
    2   0.0000004  -0.1880832   0.0000059  -0.0519244  -0.0132231  -0.0390698
    3   0.2371288  -0.0000571  -0.3247465   0.0238743  -0.0518572  -0.0069710
           13          14          15          16          17          18
    1  -0.0660023   0.0705364   0.0159356  -0.1088952  -0.0002229   0.0859761
    2   0.0518953  -0.0132599   0.0390615   0.0000612   0.0885480  -0.0000193
    3   0.0238377   0.0519226  -0.0069379   0.0761542  -0.0000790  -0.0136578
           19          20          21          22          23          24
    1   0.0434040   0.0612342  -0.0080139   0.0434061  -0.0612401  -0.0080005
    2   0.0722675  -0.0498246   0.0197405  -0.0721866  -0.0497799  -0.0197902
    3  -0.0523626   0.0586736   0.0180912  -0.0523862  -0.0586727   0.0180961
 New transposed dipole drv.
            1           2           3
    1   0.6670726  -0.0000015  -0.3460037
    2  -0.0001284   0.1393071   0.0000291
    3  -0.2803352   0.0000045   0.3596306
    4   0.0009638   0.0000005   0.0896717
    5  -0.0001325   0.0864178   0.0000407
    6   0.0219415  -0.0000134  -0.0434269
    7  -0.5139108   0.0000004   0.2371288
    8   0.0001137  -0.1880832  -0.0000571
    9   0.1571047   0.0000059  -0.3247465
   10  -0.0659728  -0.0519244   0.0238743
   11  -0.0705405  -0.0132231  -0.0518572
   12   0.0159005  -0.0390698  -0.0069710
   13  -0.0660023   0.0518953   0.0238377
   14   0.0705364  -0.0132599   0.0519226
   15   0.0159356   0.0390615  -0.0069379
   16  -0.1088952   0.0000612   0.0761542
   17  -0.0002229   0.0885480  -0.0000790
   18   0.0859761  -0.0000193  -0.0136578
   19   0.0434040   0.0722675  -0.0523626
   20   0.0612342  -0.0498246   0.0586736
   21  -0.0080139   0.0197405   0.0180912
   22   0.0434061  -0.0721866  -0.0523862
   23  -0.0612401  -0.0497799  -0.0586727
   24  -0.0080005  -0.0197902   0.0180961
FINAL TENSOR RESULT:
Order 2, Length 24
Order 1, Length 24
   0.3594662   0.0000032   0.0905232  -0.0677354   0.0000035  -0.0132291  -0.1055827  -0.0000027   0.0219485  -0.0909835  -0.0961363  -0.0476680  -0.0909830   0.0961374  -0.0476680  -0.0015640   0.0000068   0.0301046  -0.0013085  -0.0006849  -0.0170130  -0.0013078   0.0006844  -0.0170131
Order 1, Length 24
   0.0000032   0.5940405   0.0000009  -0.0000015  -0.0846980   0.0000018   0.0000012  -0.0347049  -0.0000020  -0.0966802  -0.2377773  -0.0817797   0.0966765  -0.2377738   0.0817778  -0.0000004  -0.0016840   0.0000002  -0.0008319   0.0012955   0.0301135   0.0008305   0.0012960  -0.0301127
Order 1, Length 24
   0.0905232   0.0000009   0.4479428  -0.0139743  -0.0000007  -0.2008070   0.0208691   0.0000010  -0.0375987  -0.0502223  -0.0824937  -0.0855860  -0.0502221   0.0824918  -0.0855878   0.0005168   0.0000017  -0.0092278   0.0012500  -0.0001409  -0.0145699   0.0012498   0.0001429  -0.0145706
Order 1, Length 24
  -0.0677354  -0.0000015  -0.0139743   0.5664920   0.0000007   0.0136000  -0.0178884   0.0000002   0.0349323   0.0022760   0.0014963  -0.0147910   0.0022764  -0.0014980  -0.0147915  -0.2773929  -0.0000008   0.0780815  -0.1040158   0.0993789  -0.0415281  -0.1040166  -0.0993788  -0.0415282
Order 1, Length 24
   0.0000035  -0.0846980  -0.0000007   0.0000007   0.5768396   0.0000003  -0.0000003   0.0015061  -0.0000001   0.0007050   0.0025499  -0.0281434  -0.0007081   0.0025522   0.0281435  -0.0000020  -0.0468471   0.0000005   0.0998436  -0.2259525   0.0732704  -0.0998447  -0.2259533  -0.0732711
Order 1, Length 24
  -0.0132291   0.0000018  -0.2008070   0.0136000   0.0000003   0.4706389   0.0103188  -0.0000016  -0.0119556  -0.0001090   0.0009479  -0.0129767  -0.0001099  -0.0009482  -0.0129774   0.0778861   0.0000028  -0.0748340  -0.0441819   0.0755857  -0.0785445  -0.0441831  -0.0755849  -0.0785452
Order 1, Length 24
  -0.1055827   0.0000012   0.0208691  -0.0178884  -0.0000003   0.0103188   0.1698274  -0.0000011  -0.0562721  -0.0260136   0.0027098   0.0115606  -0.0260144  -0.0027098   0.0115598   0.0025585  -0.0000003   0.0030575   0.0015555  -0.0006780  -0.0005457   0.0015547   0.0006788  -0.0005463
Order 1, Length 24
  -0.0000027  -0.0347049   0.0000010   0.0000002   0.0015061  -0.0000016  -0.0000011   0.0213779   0.0000013  -0.0168855   0.0050485   0.0080168   0.0168888   0.0050461  -0.0080157   0.0000015   0.0011935   0.0000000  -0.0007224   0.0002675  -0.0004109   0.0007214   0.0002655   0.0004101
Order 1, Length 24
   0.0219485  -0.0000020  -0.0375987   0.0349323  -0.0000001  -0.0119556  -0.0562721   0.0000013   0.0483123  -0.0000046   0.0014491   0.0018137  -0.0000047  -0.0014486   0.0018137  -0.0000879  -0.0000004  -0.0062319  -0.0002547  -0.0001701   0.0019230  -0.0002537   0.0001700   0.0019237
Order 1, Length 24
  -0.0909835  -0.0966802  -0.0502223   0.0022760   0.0007050  -0.0001090  -0.0260136  -0.0168855  -0.0000046   0.1044435   0.1022477   0.0449512   0.0090157   0.0111146   0.0052226   0.0004059  -0.0000323  -0.0004313  -0.0002960  -0.0003071   0.0001805   0.0011533  -0.0001652   0.0004172
Order 1, Length 24
  -0.0961363  -0.2377773  -0.0824937   0.0014963   0.0025499   0.0009479   0.0027098   0.0050485   0.0014491   0.1022477   0.2480003   0.0904437  -0.0111154  -0.0202257  -0.0101484   0.0001461   0.0000328  -0.0006982   0.0001581   0.0008641  -0.0003585   0.0004958   0.0015070   0.0008615
Order 1, Length 24
  -0.0476680  -0.0817797  -0.0855860  -0.0147910  -0.0281434  -0.0129767   0.0115606   0.0080168   0.0018137   0.0449512   0.0904437   0.0951741   0.0052226   0.0101491   0.0055506   0.0005121   0.0000858   0.0010422  -0.0002297   0.0004902   0.0014702   0.0004446   0.0007368  -0.0064866
Order 1, Length 24
  -0.0909830   0.0966765  -0.0502221   0.0022764  -0.0007081  -0.0001099  -0.0260144   0.0168888  -0.0000047   0.0090157  -0.0111154   0.0052226   0.1044444  -0.1022472   0.0449515   0.0004048   0.0000275  -0.0004308   0.0011525   0.0001653   0.0004169  -0.0002959   0.0003070   0.0001812
Order 1, Length 24
   0.0961374  -0.2377738   0.0824918  -0.0014980   0.0025522  -0.0009482  -0.0027098   0.0050461  -0.0014486   0.0111146  -0.0202257   0.0101491  -0.1022472   0.2479993  -0.0904436  -0.0001461   0.0000372   0.0006986  -0.0004933   0.0015051  -0.0008607  -0.0001572   0.0008657   0.0003583
Order 1, Length 24
  -0.0476680   0.0817778  -0.0855878  -0.0147915   0.0281435  -0.0129774   0.0115598  -0.0080157   0.0018137   0.0052226  -0.0101484   0.0055506   0.0449515  -0.0904436   0.0951751   0.0005122  -0.0000882   0.0010425   0.0004443  -0.0007379  -0.0064861  -0.0002292  -0.0004904   0.0014710
Order 1, Length 24
  -0.0015640  -0.0000004   0.0005168  -0.2773929  -0.0000020   0.0778861   0.0025585   0.0000015  -0.0000879   0.0004059   0.0001461   0.0005121   0.0004048  -0.0001461   0.0005122   0.3019799  -0.0000001  -0.0878859  -0.0131983  -0.0006459   0.0042737  -0.0131973   0.0006472   0.0042736
Order 1, Length 24
   0.0000068  -0.0016840   0.0000017  -0.0000008  -0.0468471   0.0000028  -0.0000003   0.0011935  -0.0000004  -0.0000323   0.0000328   0.0000858   0.0000275   0.0000372  -0.0000882  -0.0000001   0.0452472   0.0000001   0.0247129   0.0010111  -0.0098093  -0.0247135   0.0010098   0.0098076
Order 1, Length 24
   0.0301046   0.0000002  -0.0092278   0.0780815   0.0000005  -0.0748340   0.0030575   0.0000000  -0.0062319  -0.0004313  -0.0006982   0.0010422  -0.0004308   0.0006986   0.0010425  -0.0878859   0.0000001   0.0807339  -0.0112461  -0.0013402   0.0037373  -0.0112464   0.0013397   0.0037374
Order 1, Length 24
  -0.0013085  -0.0008319   0.0012500  -0.1040158   0.0998436  -0.0441819   0.0015555  -0.0007224  -0.0002547  -0.0002960   0.0001581  -0.0002297   0.0011525  -0.0004933   0.0004443  -0.0131983   0.0247129  -0.0112461   0.1085584  -0.1099509   0.0476939   0.0075553  -0.0127172   0.0065254
Order 1, Length 24
  -0.0006849   0.0012955  -0.0001409   0.0993789  -0.2259525   0.0755857  -0.0006780   0.0002675  -0.0001701  -0.0003071   0.0008641   0.0004902   0.0001653   0.0015051  -0.0007379  -0.0006459   0.0010111  -0.0013402  -0.1099509   0.2415128  -0.0828171   0.0127173  -0.0205017   0.0091282
Order 1, Length 24
  -0.0170130   0.0301135  -0.0145699  -0.0415281   0.0732704  -0.0785445  -0.0005457  -0.0004109   0.0019230   0.0001805  -0.0003585   0.0014702   0.0004169  -0.0008607  -0.0064861   0.0042737  -0.0098093   0.0037373   0.0476939  -0.0828171   0.0885322   0.0065253  -0.0091287   0.0039397
Order 1, Length 24
  -0.0013078   0.0008305   0.0012498  -0.1040166  -0.0998447  -0.0441831   0.0015547   0.0007214  -0.0002537   0.0011533   0.0004958   0.0004446  -0.0002959  -0.0001572  -0.0002292  -0.0131973  -0.0247135  -0.0112464   0.0075553   0.0127173   0.0065253   0.1085588   0.1099512   0.0476942
Order 1, Length 24
   0.0006844   0.0012960   0.0001429  -0.0993788  -0.2259533  -0.0755849   0.0006788   0.0002655   0.0001700  -0.0001652   0.0015070   0.0007368   0.0003070   0.0008657  -0.0004904   0.0006472   0.0010098   0.0013397  -0.0127172  -0.0205017  -0.0091287   0.1099512   0.2415121   0.0828173
Order 1, Length 24
  -0.0170131  -0.0301127  -0.0145706  -0.0415282  -0.0732711  -0.0785452  -0.0005463   0.0004101   0.0019237   0.0004172   0.0008615  -0.0064866   0.0001812   0.0003583   0.0014710   0.0042736   0.0098076   0.0037374   0.0065254   0.0091282   0.0039397   0.0476942   0.0828173   0.0885323


 # Finishing finite difference calculation for IDERIV #
 ######################################################
 ######################################################
 Requested basis set is G3large
 There are 69 shells and 200 basis functions
 **********************************************************************
 **                                                                  **
 **                       VIBRATIONAL ANALYSIS                       **
 **                       --------------------                       **
 **                                                                  **
 **        VIBRATIONAL FREQUENCIES (CM**-1) AND NORMAL MODES         **
 **     FORCE CONSTANTS (mDYN/ANGSTROM) AND REDUCED MASSES (AMU)     **
 **                  INFRARED INTENSITIES (KM/MOL)                   **
 **                                                                  **
 **********************************************************************
 

 Mode:                 1                      2                      3
 Frequency:       261.52                 328.04                 653.79
 Force Cnst:      0.0440                 0.2028                 1.2211
 Red. Mass:       1.0919                 3.1993                 4.8486
 IR Active:          YES                    YES                    YES
 IR Intens:        0.073                  2.693                 29.255
 Raman Active:       YES                    YES                    YES
               X      Y      Z        X      Y      Z        X      Y      Z
 C          0.000 -0.074  0.000   -0.121  0.000 -0.161    0.464  0.000 -0.054
 C          0.000  0.007  0.000    0.226  0.000 -0.183    0.063  0.000 -0.099
 Cl         0.000  0.026  0.000   -0.063  0.000  0.142   -0.185  0.000  0.060
 H          0.044 -0.115  0.037   -0.123 -0.010 -0.140    0.300  0.042  0.028
 H         -0.044 -0.115 -0.037   -0.123  0.010 -0.140    0.300 -0.042  0.028
 H          0.000  0.606  0.000    0.368  0.000  0.210   -0.128  0.000 -0.649
 H         -0.485 -0.240  0.063    0.396  0.009 -0.379   -0.163 -0.013  0.164
 H          0.485 -0.240 -0.063    0.396 -0.009 -0.379   -0.163  0.013  0.164
 TransDip   0.000 -0.009  0.000    0.027  0.000 -0.045    0.146  0.000 -0.092

 Mode:                 4                      5                      6
 Frequency:       790.93                 978.63                1074.64
 Force Cnst:      0.4086                 1.1323                 0.8419
 Red. Mass:       1.1086                 2.0067                 1.2374
 IR Active:          YES                    YES                    YES
 IR Intens:        2.765                 20.544                  0.001
 Raman Active:       YES                    YES                    YES
               X      Y      Z        X      Y      Z        X      Y      Z
 C          0.000 -0.088  0.000    0.090  0.000 -0.188    0.000  0.115  0.000
 C          0.000 -0.031  0.000   -0.096  0.000  0.192    0.000 -0.081  0.000
 Cl         0.000  0.012  0.000   -0.022  0.000 -0.001    0.000 -0.018  0.000
 H         -0.296  0.247 -0.375    0.182  0.020 -0.346    0.558 -0.088 -0.190
 H          0.296  0.247  0.375    0.182 -0.020 -0.346   -0.557 -0.088  0.190
 H          0.000  0.171  0.000    0.103  0.000  0.720    0.000  0.200  0.000
 H          0.045  0.176  0.398    0.184  0.056 -0.018    0.047  0.098  0.321
 H         -0.045  0.176 -0.398    0.184 -0.056 -0.018   -0.047  0.098 -0.322
 TransDip   0.000  0.053  0.000    0.116  0.000 -0.088    0.000 -0.001  0.000

 Mode:                 7                      8                      9
 Frequency:      1083.21                1273.54                1312.97
 Force Cnst:      1.3641                 1.1611                 1.2364
 Red. Mass:       1.9732                 1.2151                 1.2173
 IR Active:          YES                    YES                    YES
 IR Intens:        0.771                  0.226                 34.106
 Raman Active:       YES                    YES                    YES
               X      Y      Z        X      Y      Z        X      Y      Z
 C          0.084  0.000  0.200    0.000  0.076  0.000   -0.087  0.000  0.086
 C         -0.145  0.000 -0.140    0.000 -0.114  0.000    0.059  0.000  0.009
 Cl        -0.008  0.000 -0.009    0.000  0.006  0.000   -0.013  0.000 -0.001
 H          0.217  0.007  0.049   -0.248 -0.049  0.544    0.482 -0.036 -0.475
 H          0.217 -0.007  0.049    0.248 -0.049 -0.544    0.482  0.036 -0.475
 H          0.086  0.000  0.470    0.000  0.186  0.000   -0.015  0.000 -0.189
 H          0.237  0.061 -0.482    0.078  0.076  0.319   -0.087 -0.068  0.028
 H          0.237 -0.061 -0.482   -0.078  0.076 -0.319   -0.087  0.068  0.028
 TransDip   0.027  0.000  0.008    0.000  0.015  0.000   -0.163  0.000  0.091

 Mode:                10                     11                     12
 Frequency:      1417.01                1488.67                1496.11
 Force Cnst:      1.4615                 1.3546                 1.4311
 Red. Mass:       1.2354                 1.0375                 1.0851
 IR Active:          YES                    YES                    YES
 IR Intens:        5.682                  8.977                  1.249
 Raman Active:       YES                    YES                    YES
               X      Y      Z        X      Y      Z        X      Y      Z
 C         -0.006  0.000  0.014    0.000 -0.021  0.000   -0.039  0.000 -0.072
 C          0.012  0.000 -0.143    0.000 -0.047  0.000    0.009  0.000  0.014
 Cl        -0.001  0.000  0.000    0.000  0.000  0.000   -0.003  0.000  0.001
 H          0.052 -0.018 -0.003   -0.013  0.003 -0.043    0.360 -0.403  0.389
 H          0.052  0.018 -0.003    0.013  0.003  0.043    0.360  0.403  0.389
 H          0.241  0.000  0.558    0.000  0.702  0.000    0.030 -0.001  0.099
 H         -0.193  0.151  0.492    0.384  0.048 -0.317   -0.145 -0.132 -0.099
 H         -0.193 -0.151  0.492   -0.384  0.049  0.317   -0.144  0.132 -0.099
 TransDip   0.001  0.000  0.076    0.000  0.096  0.000   -0.003  0.000  0.036

 Mode:                13                     14                     15
 Frequency:      1505.82                3035.49                3083.94
 Force Cnst:      1.4097                 5.6366                 5.9596
 Red. Mass:       1.0552                 1.0383                 1.0636
 IR Active:          YES                    YES                    YES
 IR Intens:        3.175                 16.786                  5.444
 Raman Active:       YES                    YES                    YES
               X      Y      Z        X      Y      Z        X      Y      Z
 C         -0.036  0.000 -0.016    0.001  0.000  0.000   -0.044  0.000 -0.041
 C         -0.051  0.000 -0.012   -0.024  0.000  0.047    0.037  0.000  0.008
 Cl        -0.001  0.000  0.000    0.000  0.000  0.000    0.000  0.000  0.000
 H          0.150 -0.140  0.082   -0.007 -0.015 -0.004    0.265  0.533  0.234
 H          0.150  0.140  0.082   -0.007  0.015 -0.004    0.265 -0.533  0.234
 H         -0.133  0.000 -0.291    0.723  0.000 -0.245   -0.235  0.000  0.080
 H          0.453  0.377  0.226   -0.215  0.371 -0.152   -0.103  0.199 -0.083
 H          0.453 -0.377  0.226   -0.215 -0.371 -0.152   -0.103 -0.199 -0.083
 TransDip   0.053  0.000  0.021   -0.065  0.000  0.114   -0.069  0.000 -0.030

 Mode:                16                     17                     18
 Frequency:      3101.88                3113.31                3144.44
 Force Cnst:      6.1767                 6.3089                 6.4674
 Red. Mass:       1.0896                 1.1047                 1.1102
 IR Active:          YES                    YES                    YES
 IR Intens:       27.493                  5.096                 14.322
 Raman Active:       YES                    YES                    YES
               X      Y      Z        X      Y      Z        X      Y      Z
 C         -0.023  0.000 -0.019    0.000  0.042  0.000    0.000 -0.087  0.000
 C         -0.080  0.000 -0.013    0.000 -0.084  0.000    0.000 -0.041  0.000
 Cl         0.000  0.000  0.000    0.000  0.000  0.000    0.000  0.000  0.000
 H          0.127  0.254  0.113   -0.135 -0.251 -0.117    0.272  0.515  0.245
 H          0.128 -0.254  0.113    0.135 -0.251  0.117   -0.272  0.515 -0.245
 H          0.540  0.000 -0.195    0.000 -0.017  0.000    0.000 -0.007  0.000
 H          0.211 -0.405  0.173   -0.299  0.510 -0.226   -0.145  0.249 -0.113
 H          0.211  0.404  0.173    0.299  0.510  0.226    0.145  0.249  0.114
 TransDip  -0.162  0.000 -0.045    0.000 -0.072  0.000    0.000 -0.121  0.000

 STANDARD THERMODYNAMIC QUANTITIES AT   298.18 K  AND     1.00 ATM

   This Molecule has  0 Imaginary Frequencies
   Zero point vibrational energy:       41.663 kcal/mol

   Atom    1 Element C  Has Mass   12.00000
   Atom    2 Element C  Has Mass   12.00000
   Atom    3 Element Cl Has Mass   34.96885
   Atom    4 Element H  Has Mass    1.00783
   Atom    5 Element H  Has Mass    1.00783
   Atom    6 Element H  Has Mass    1.00783
   Atom    7 Element H  Has Mass    1.00783
   Atom    8 Element H  Has Mass    1.00783
   Molecular Mass:    64.008000 amu
   Principal axes and moments of inertia in atomic units:
                             1           2           3
    Eigenvalues --       56.88293   334.67609   369.07324
          X              -0.68186     0.73149     0.00000
          Y               0.00000     0.00000     1.00000
          Z               0.73149     0.68186     0.00000
   Rotational Symmetry Number is   1
   The Molecule is an Asymmetric Top
   Translational Enthalpy:        0.889 kcal/mol
   Rotational Enthalpy:           0.889 kcal/mol
   Vibrational Enthalpy:         42.423 kcal/mol
   gas constant (RT):             0.593 kcal/mol
   Translational Entropy:        38.388  cal/mol.K
   Rotational Entropy:           23.467  cal/mol.K
   Vibrational Entropy:           3.849  cal/mol.K

   Total Enthalpy:               44.793 kcal/mol
   Total Entropy:                65.705  cal/mol.K
 Total job time:  7660.44s(wall), 7634.73s(cpu) 
 Wed Jul 24 18:25:28 2013

        *************************************************************
        *                                                           *
        *  Thank you very much for using Q-Chem.  Have a nice day.  *
        *                                                           *
        *************************************************************


0 sent ACK to 0 
now end server 0 ... 
