Process 0 of 1 is on cl113.stfx.acenet.ca - thread support 1
initial socket setup ...start
initial socket setup ...done 
now start server 0 ... 

cmd = /usr/bin/ssh clhead /usr/local/qchem/bin/get_hostid 1941125060 > /scratch/tmp/5997594.1.short.q/qchem15979/lic.dat
                  Welcome to Q-Chem
     A Quantum Leap Into The Future Of Chemistry

 Y. Shao, L. Fusti-Molnar, Y. Jung, J. Kussmann, C. Ochsenfeld,
 S. T. Brown, A. T. B. Gilbert, L. V. Slipchenko,S. V. Levchenko,
 D. P. O'Neill, R. A. DiStasio Jr., R. C. Lochan, T. Wang,
 G. J. O. Beran, N. A. Besley, J. M. Herbert, C. Y. Lin,
 T. Van Voorhis, S. H. Chien, A. Sodt, R. P. Steele, 
 V. A. Rassolov, P. E. Maslen, P. P. Korambath, R. D. Adamson,
 B. Austin, J. Baker, E. F. C. Byrd, H. Dachsel, R. J. Doerksen,
 A. Dreuw, B. D. Dunietz, A. D. Dutoi, T. R. Furlani,
 S. R. Gwaltney, A. Heyden, S. Hirata, C.-P. Hsu, G. Kedziora,
 R. Z. Khaliullin, P. Klunzinger, A. M. Lee, M. S. Lee, W. Liang,
 I. Lotan, N. Nair, B. Peters, E. I. Proynov, P. A. Pieniazek, 
 Y. M. Rhee, J. Ritchie, E. Rosta, C. D. Sherrill, 
 A. C. Simmonett, J. E. Subotnik, H. L. Woodcock III,
 W. Zhang, A. T. Bell, A. K. Chakraborty, D. M. Chipman,
 F. J. Keil, A. Warshel, W. J. Hehre, H. F. Schaefer III,
 J. Kong, A. I. Krylov, P. M. W. Gill, M. Head-Gordon,
 Q-Chem, Version 3.1, Q-Chem, Inc., Pittsburgh, PA (2007).

 Additional authors for Version 3.1: 
 Z. Gan, Y. Zhao, N. E. Schultz, D. Truhlar, E. Epifanovsky and M. Oana.

 Additional authors for Version 3.2: 
 R. Baer, B. R. Brooks, D. Casanova, J.-D. Chai, C.-L. Cheng, 
 C. Cramer, D. Crittenden, A. Ghysels, G. Hawkins, E. G. Hohenstein, 
 C. Kelley, W. Kurlancheek, D. Liotard, E. Livshits, P. Manohar, 
 A. Marenich, D. Neuhauser, R. Olson, M. A. Rohrdanz, K. S. Thanthiriwatte, 
 A. J. W. Thom, V. Vanovschi, C. F. Williams, Q. Wu and Z.-Q. You. 


 Intel X86 Linux Version

 Q-chem begins on Wed May 22 11:00:37 2013  

 Parallel job on  1  processors
Processing $rem in /usr/local/qchem/config/preferences.

theFileMan(): MAXOPENFILES=974 MAX_SUB_FILE_NUM=16
Maximum size of a physical file is 2.0 GB, maximum size of a tmp-file is 32.0 GB


--------------------------------------------------------------
User input:
--------------------------------------------------------------

$molecule
-1,2
F          0.00000        0.00000        0.03464
F          0.00000        0.00000        1.36862
$end

$comment
negative
$end

$xc_functional
C PBE   1.00
X wPBE  1.00
$end

$rem
SYMMETRY_DECOMPOSITION	0
exchange 		general
LRC_DFT                 true
BASIS                   g3large
omega			1000
mem_static              760
max_scf_cycles          200
scf_final_print         1
sym_ignore              true
$end

--------------------------------------------------------------
 Writing REM_CC_EA            2
 ----------------------------------------------------
       Standard Nuclear Orientation (Angstroms)
    I     Atom         X            Y            Z
 ----------------------------------------------------
    1      F       0.000000     0.000000     0.034640
    2      F       0.000000     0.000000     1.368620
 ----------------------------------------------------
 Nuclear Repulsion Energy =    32.1319315693 hartrees
 There are       10 alpha and        9 beta electrons
 Requested basis set is G3large
 There are 20 shells and 84 basis functions

Total QAlloc Memory Limit   2000 MB
Mega-Array Size       743 MB
MEM_STATIC part       760 MB

                       Distance Matrix (Angstroms)
             F (  1)
   F (  2)  1.333980
 
 A cutoff of  1.0D-08 yielded    202 shell pairs
 There are   3646 function pairs (  4791 Cartesian)
Evaluating contribution to one-electron hamiltonian from nuclear
 Smallest overlap matrix eigenvalue = 2.48E-03
 Multipole matrices computed through 2nd order

  Scale SEOQF with 1.000000e+00/1.000000e+00/1.000000e-01

 Standard Electronic Orientation quadrupole field applied
 Nucleus-field energy     =    -0.0000000018 hartrees
 Guess from superposition of atomic densities
 Warning:  Energy on first SCF cycle will be non-variational
 Long-range K will be added via erf
 Coulomb attenuation parameter = 1 bohr**(-1)
 An unrestricted Kohn-Sham SCF calculation will be
 performed using Pulay DIIS extrapolation
 Exchange:  wPBE + LR-HF      Correlation:  PBE
 Using SG-1 standard quadrature grid
 SCF converges when DIIS error is below 1.0E-05
 Requested basis set is G3large
 There are 20 shells and 84 basis functions
 A cutoff of  1.0D-08 yielded    202 shell pairs
 There are   3646 function pairs (  4791 Cartesian)
 Warning!  Inaccurate integrated density:
   Number of electrons =    19
   Numerical integral  =    17.999991766421
   Relative error      =    -5.2632012294 %
 ---------------------------------------
  Cycle       Energy         DIIS Error
 ---------------------------------------
    1    -199.5945801810      3.50E-02
    2    -199.3853742974      9.99E-03
    3    -199.4348576552      6.42E-03
    4    -199.4527660832      5.87E-04
    5    -199.4531225863      1.60E-04
    6    -199.4531906899      4.52E-05
    7    -199.4532008443      1.33E-05
    8    -199.4532023711      3.63E-06 Convergence criterion met
 ---------------------------------------
 One-Electron    Energy =  -350.1014759041
 Total Coulomb   Energy =   139.7289282352
 Alpha Exchange  Energy =    -4.2549892109
 Beta  Exchange  Energy =    -3.7793323989
 DFT   Exchange  Energy =   -12.5252886502
 DFT Correlation Energy =    -0.6529760097
 Nuclear Repu.   Energy =    32.1319315675
 Nuclear Attr.   Energy =  -550.4241754660
 Kinetic         Energy =   200.3226995619
 <S^2> = 0.7538
 SCF time:  CPU 7.96 s  wall 8.34 s
 Final Alpha MO Eigenvalues
            1           2           3           4           5           6
    1 -24.3914482 -24.3913406  -1.3216313  -1.0121181  -0.5022357  -0.3996341
            7           8           9          10          11          12
    1  -0.3996264  -0.2221521  -0.2221436  -0.0320798   0.4688204   0.4813447
           13          14          15
    1   0.5275173   0.5275212   0.5854464
 Final Beta MO Eigenvalues
            1           2           3           4           5           6
    1 -24.3728416 -24.3725963  -1.2569145  -0.9525917  -0.3781473  -0.3781405
            7           8           9          10          11          12
    1  -0.3482086  -0.1960156  -0.1960078   0.4269192   0.4776434   0.5306512
           13          14
    1   0.5306547   0.5908224
 Analysis of SCF Wavefunction
 
 --------------------------------------------------------------
                    Orbital Energies (a.u.)
 --------------------------------------------------------------
 
 Alpha MOs
 -- Occupied --
-24.391 -24.391  -1.322  -1.012  -0.502  -0.400  -0.400  -0.222
 -0.222  -0.032
 -- Virtual --
  0.469   0.481   0.528   0.528   0.585   0.585   0.613   0.775
  1.683   1.738   1.738   1.822   1.845   1.845   2.131   2.261
  2.261   2.417   2.417   2.442   2.694   2.694   2.842   3.253
  3.253   4.006   6.236   6.542   6.542   6.832   6.832   6.888
  6.966   6.966   7.028   7.028   7.263   7.263   7.320   7.320
  7.362   7.520   7.520   8.146   8.146   8.934   9.651   9.651
  9.661   9.661   9.810   9.810  10.313  10.313  10.365  11.200
 50.761  50.786  50.786  50.803  50.826  50.868  51.008  51.008
 51.014  51.130  56.207  56.247  56.247  56.311  56.311  57.027
 67.239  67.308
 
 Beta MOs
 -- Occupied --
-24.373 -24.373  -1.257  -0.953  -0.378  -0.378  -0.348  -0.196
 -0.196
 -- Virtual --
  0.427   0.478   0.531   0.531   0.591   0.591   0.619   0.647
  0.777   1.732   1.746   1.746   1.854   1.858   1.858   2.159
  2.280   2.280   2.421   2.422   2.469   2.699   2.699   2.901
  3.288   3.288   4.049   6.297   6.567   6.567   6.851   6.851
  6.942   6.988   6.988   7.049   7.049   7.272   7.272   7.329
  7.329   7.405   7.547   7.547   8.193   8.193   9.006   9.673
  9.673   9.726   9.726   9.829   9.830  10.365  10.365  10.439
 11.260  50.770  50.813  50.832  50.832  50.835  50.878  51.054
 51.054  51.073  51.189  56.248  56.259  56.259  56.323  56.323
 57.068  67.260  67.329
 --------------------------------------------------------------
 
          Ground-State Mulliken Net Atomic Charges

     Atom                 Charge (a.u.)    Spin (a.u.)
  --------------------------------------------------------
      1 F                    -0.499999       0.500002
      2 F                    -0.500001       0.499998
  --------------------------------------------------------
  Sum of atomic charges =    -1.000000
  Sum of spin   charges =     1.000000

 -----------------------------------------------------------------
                    Cartesian Multipole Moments
 -----------------------------------------------------------------
    Charge (ESU x 10^10)
                -4.8032
    Dipole Moment (Debye)
         X       0.0000      Y       0.0000      Z      -3.3701
       Tot       3.3701
    Quadrupole Moments (Debye-Ang)
        XX     -11.4541     XY       0.0001     YY     -11.4541
        XZ       0.0001     YZ       0.0001     ZZ     -18.1777
    Octapole Moments (Debye-Ang^2)
       XXX       0.0000    XXY       0.0000    XYY       0.0000
       YYY       0.0000    XXZ      -8.0365    XYZ       0.0001
       YYZ      -8.0365    XZZ       0.0002    YZZ       0.0002
       ZZZ     -34.9441
    Hexadecapole Moments (Debye-Ang^3)
      XXXX      -8.5397   XXXY       0.0001   XXYY      -2.8466
      XYYY       0.0001   YYYY      -8.5397   XXXZ       0.0002
      XXYZ       0.0001   XYYZ       0.0001   YYYZ       0.0002
      XXZZ     -14.8365   XYZZ       0.0002   YYZZ     -14.8365
      XZZZ       0.0007   YZZZ       0.0007   ZZZZ     -96.0496
 -----------------------------------------------------------------
 Total job time:  8.44s(wall), 8.04s(cpu) 
 Wed May 22 11:00:45 2013

        *************************************************************
        *                                                           *
        *  Thank you very much for using Q-Chem.  Have a nice day.  *
        *                                                           *
        *************************************************************


0 sent ACK to 0 
now end server 0 ... 
 
**********************************************************************
Job 2 of 3 
**********************************************************************
 
Process 0 of 1 is on cl113.stfx.acenet.ca - thread support 1
initial socket setup ...start
initial socket setup ...done 
now start server 0 ... 

cmd = /usr/bin/ssh clhead /usr/local/qchem/bin/get_hostid 1501317852 > /scratch/tmp/5997594.1.short.q/qchem15979/lic.dat
                  Welcome to Q-Chem
     A Quantum Leap Into The Future Of Chemistry

 Y. Shao, L. Fusti-Molnar, Y. Jung, J. Kussmann, C. Ochsenfeld,
 S. T. Brown, A. T. B. Gilbert, L. V. Slipchenko,S. V. Levchenko,
 D. P. O'Neill, R. A. DiStasio Jr., R. C. Lochan, T. Wang,
 G. J. O. Beran, N. A. Besley, J. M. Herbert, C. Y. Lin,
 T. Van Voorhis, S. H. Chien, A. Sodt, R. P. Steele, 
 V. A. Rassolov, P. E. Maslen, P. P. Korambath, R. D. Adamson,
 B. Austin, J. Baker, E. F. C. Byrd, H. Dachsel, R. J. Doerksen,
 A. Dreuw, B. D. Dunietz, A. D. Dutoi, T. R. Furlani,
 S. R. Gwaltney, A. Heyden, S. Hirata, C.-P. Hsu, G. Kedziora,
 R. Z. Khaliullin, P. Klunzinger, A. M. Lee, M. S. Lee, W. Liang,
 I. Lotan, N. Nair, B. Peters, E. I. Proynov, P. A. Pieniazek, 
 Y. M. Rhee, J. Ritchie, E. Rosta, C. D. Sherrill, 
 A. C. Simmonett, J. E. Subotnik, H. L. Woodcock III,
 W. Zhang, A. T. Bell, A. K. Chakraborty, D. M. Chipman,
 F. J. Keil, A. Warshel, W. J. Hehre, H. F. Schaefer III,
 J. Kong, A. I. Krylov, P. M. W. Gill, M. Head-Gordon,
 Q-Chem, Version 3.1, Q-Chem, Inc., Pittsburgh, PA (2007).

 Additional authors for Version 3.1: 
 Z. Gan, Y. Zhao, N. E. Schultz, D. Truhlar, E. Epifanovsky and M. Oana.

 Additional authors for Version 3.2: 
 R. Baer, B. R. Brooks, D. Casanova, J.-D. Chai, C.-L. Cheng, 
 C. Cramer, D. Crittenden, A. Ghysels, G. Hawkins, E. G. Hohenstein, 
 C. Kelley, W. Kurlancheek, D. Liotard, E. Livshits, P. Manohar, 
 A. Marenich, D. Neuhauser, R. Olson, M. A. Rohrdanz, K. S. Thanthiriwatte, 
 A. J. W. Thom, V. Vanovschi, C. F. Williams, Q. Wu and Z.-Q. You. 


 Intel X86 Linux Version

 Q-chem begins on Wed May 22 11:00:48 2013  

 Parallel job on  1  processors
Processing $rem in /usr/local/qchem/config/preferences.

theFileMan(): MAXOPENFILES=974 MAX_SUB_FILE_NUM=16
Maximum size of a physical file is 2.0 GB, maximum size of a tmp-file is 32.0 GB


--------------------------------------------------------------
User input:
--------------------------------------------------------------

$molecule
0,1
F          0.00000        0.00000        0.03464
F          0.00000        0.00000        1.36862
$end

$comment
neutral
$end

$xc_functional
C PBE   1.00
X wPBE  1.00
$end


$rem
SYMMETRY_DECOMPOSITION	0
LRC_DFT                 true
exchange 		general
BASIS                   g3large
omega			1000
mem_static              760
max_scf_cycles          200
scf_final_print         1
sym_ignore              true
$end

--------------------------------------------------------------
 Writing REM_CC_EA            2
 ----------------------------------------------------
       Standard Nuclear Orientation (Angstroms)
    I     Atom         X            Y            Z
 ----------------------------------------------------
    1      F       0.000000     0.000000     0.034640
    2      F       0.000000     0.000000     1.368620
 ----------------------------------------------------
 Nuclear Repulsion Energy =    32.1319315693 hartrees
 There are        9 alpha and        9 beta electrons
 Requested basis set is G3large
 There are 20 shells and 84 basis functions

Total QAlloc Memory Limit   2000 MB
Mega-Array Size       743 MB
MEM_STATIC part       760 MB

                       Distance Matrix (Angstroms)
             F (  1)
   F (  2)  1.333980
 
 A cutoff of  1.0D-08 yielded    202 shell pairs
 There are   3646 function pairs (  4791 Cartesian)
Evaluating contribution to one-electron hamiltonian from nuclear
 Smallest overlap matrix eigenvalue = 2.48E-03
 Multipole matrices computed through 2nd order

  Scale SEOQF with 1.000000e+00/1.000000e+00/1.000000e-01

 Standard Electronic Orientation quadrupole field applied
 Nucleus-field energy     =    -0.0000000018 hartrees
 Guess from superposition of atomic densities
 Warning:  Energy on first SCF cycle will be non-variational
 Long-range K will be added via erf
 Coulomb attenuation parameter = 1 bohr**(-1)
 A restricted Kohn-Sham SCF calculation will be
 performed using Pulay DIIS extrapolation
 Exchange:  wPBE + LR-HF      Correlation:  PBE
 Using SG-1 standard quadrature grid
 SCF converges when DIIS error is below 1.0E-05
 Requested basis set is G3large
 There are 20 shells and 84 basis functions
 A cutoff of  1.0D-08 yielded    202 shell pairs
 There are   3646 function pairs (  4791 Cartesian)
 ---------------------------------------
  Cycle       Energy         DIIS Error
 ---------------------------------------
    1    -199.5945801810      3.50E-02
    2    -199.4454980332      7.86E-03
    3    -199.4710428864      2.98E-03
    4    -199.4740460740      4.40E-04
    5    -199.4742469977      1.70E-04
    6    -199.4742893065      5.40E-05
    7    -199.4742979459      1.38E-05
    8    -199.4742984753      1.66E-06 Convergence criterion met
 ---------------------------------------
 One-Electron    Energy =  -342.1699411575
 Total Coulomb   Energy =   131.2964547951
 Alpha Exchange  Energy =    -3.8644027497
 Beta  Exchange  Energy =    -3.8644027497
 DFT   Exchange  Energy =   -12.3837699975
 DFT Correlation Energy =    -0.6201681836
 Nuclear Repu.   Energy =    32.1319315675
 Nuclear Attr.   Energy =  -541.3510753308
 Kinetic         Energy =   199.1811341733
 SCF time:  CPU 6.80 s  wall 7.23 s
 Final Alpha MO Eigenvalues
            1           2           3           4           5           6
    1 -24.8866525 -24.8863766  -1.7452049  -1.4073070  -0.8256525  -0.8256503
            7           8           9          10          11          12
    1  -0.8226868  -0.6482892  -0.6482869   0.0662417   0.2199451   0.2664966
           13          14
    1   0.2757562   0.2757567
 Analysis of SCF Wavefunction
 
 --------------------------------------------------------------
                    Orbital Energies (a.u.)
 --------------------------------------------------------------
 
 Alpha MOs
 -- Occupied --
-24.887 -24.886  -1.745  -1.407  -0.826  -0.826  -0.823  -0.648
 -0.648
 -- Virtual --
  0.066   0.220   0.266   0.276   0.276   0.351   0.351   0.356
  0.526   1.368   1.368   1.368   1.479   1.497   1.497   1.756
  1.855   1.855   2.020   2.020   2.077   2.300   2.300   2.442
  2.865   2.865   3.627   5.797   6.099   6.099   6.399   6.399
  6.463   6.539   6.539   6.600   6.600   6.846   6.846   6.904
  6.904   6.934   7.092   7.092   7.704   7.704   8.480   9.210
  9.210   9.221   9.221   9.371   9.372   9.881   9.881   9.927
 10.769  50.277  50.306  50.306  50.320  50.342  50.385  50.529
 50.529  50.538  50.658  55.718  55.759  55.759  55.822  55.822
 56.535  66.748  66.817
 --------------------------------------------------------------
 
          Ground-State Mulliken Net Atomic Charges

     Atom                 Charge (a.u.)
  ----------------------------------------
      1 F                     0.000004
      2 F                    -0.000004
  ----------------------------------------
  Sum of atomic charges =     0.000000

 -----------------------------------------------------------------
                    Cartesian Multipole Moments
 -----------------------------------------------------------------
    Charge (ESU x 10^10)
                 0.0000
    Dipole Moment (Debye)
         X       0.0000      Y       0.0000      Z       0.0000
       Tot       0.0000
    Quadrupole Moments (Debye-Ang)
        XX      -9.4480     XY       0.0000     YY      -9.4480
        XZ       0.0000     YZ       0.0000     ZZ      -8.9314
    Octapole Moments (Debye-Ang^2)
       XXX       0.0000    XXY       0.0000    XYY       0.0000
       YYY       0.0000    XXZ      -6.6290    XYZ       0.0000
       YYZ      -6.6290    XZZ       0.0000    YZZ       0.0000
       ZZZ     -18.7995
    Hexadecapole Moments (Debye-Ang^3)
      XXXX      -5.4102   XXXY       0.0000   XXYY      -1.8034
      XYYY       0.0000   YYYY      -5.4102   XXXZ       0.0000
      XXYZ       0.0000   XYYZ       0.0000   YYYZ       0.0000
      XXZZ     -10.7224   XYZZ       0.0000   YYZZ     -10.7224
      XZZZ       0.0000   YZZZ       0.0000   ZZZZ     -53.3177
 -----------------------------------------------------------------
 Total job time:  7.32s(wall), 6.88s(cpu) 
 Wed May 22 11:00:55 2013

        *************************************************************
        *                                                           *
        *  Thank you very much for using Q-Chem.  Have a nice day.  *
        *                                                           *
        *************************************************************


0 sent ACK to 0 
now end server 0 ... 
 
**********************************************************************
Job 3 of 3 
**********************************************************************
 
Process 0 of 1 is on cl113.stfx.acenet.ca - thread support 1
initial socket setup ...start
initial socket setup ...done 
now start server 0 ... 

cmd = /usr/bin/ssh clhead /usr/local/qchem/bin/get_hostid 618123233 > /scratch/tmp/5997594.1.short.q/qchem15979/lic.dat
                  Welcome to Q-Chem
     A Quantum Leap Into The Future Of Chemistry

 Y. Shao, L. Fusti-Molnar, Y. Jung, J. Kussmann, C. Ochsenfeld,
 S. T. Brown, A. T. B. Gilbert, L. V. Slipchenko,S. V. Levchenko,
 D. P. O'Neill, R. A. DiStasio Jr., R. C. Lochan, T. Wang,
 G. J. O. Beran, N. A. Besley, J. M. Herbert, C. Y. Lin,
 T. Van Voorhis, S. H. Chien, A. Sodt, R. P. Steele, 
 V. A. Rassolov, P. E. Maslen, P. P. Korambath, R. D. Adamson,
 B. Austin, J. Baker, E. F. C. Byrd, H. Dachsel, R. J. Doerksen,
 A. Dreuw, B. D. Dunietz, A. D. Dutoi, T. R. Furlani,
 S. R. Gwaltney, A. Heyden, S. Hirata, C.-P. Hsu, G. Kedziora,
 R. Z. Khaliullin, P. Klunzinger, A. M. Lee, M. S. Lee, W. Liang,
 I. Lotan, N. Nair, B. Peters, E. I. Proynov, P. A. Pieniazek, 
 Y. M. Rhee, J. Ritchie, E. Rosta, C. D. Sherrill, 
 A. C. Simmonett, J. E. Subotnik, H. L. Woodcock III,
 W. Zhang, A. T. Bell, A. K. Chakraborty, D. M. Chipman,
 F. J. Keil, A. Warshel, W. J. Hehre, H. F. Schaefer III,
 J. Kong, A. I. Krylov, P. M. W. Gill, M. Head-Gordon,
 Q-Chem, Version 3.1, Q-Chem, Inc., Pittsburgh, PA (2007).

 Additional authors for Version 3.1: 
 Z. Gan, Y. Zhao, N. E. Schultz, D. Truhlar, E. Epifanovsky and M. Oana.

 Additional authors for Version 3.2: 
 R. Baer, B. R. Brooks, D. Casanova, J.-D. Chai, C.-L. Cheng, 
 C. Cramer, D. Crittenden, A. Ghysels, G. Hawkins, E. G. Hohenstein, 
 C. Kelley, W. Kurlancheek, D. Liotard, E. Livshits, P. Manohar, 
 A. Marenich, D. Neuhauser, R. Olson, M. A. Rohrdanz, K. S. Thanthiriwatte, 
 A. J. W. Thom, V. Vanovschi, C. F. Williams, Q. Wu and Z.-Q. You. 


 Intel X86 Linux Version

 Q-chem begins on Wed May 22 11:00:58 2013  

 Parallel job on  1  processors
Processing $rem in /usr/local/qchem/config/preferences.

theFileMan(): MAXOPENFILES=974 MAX_SUB_FILE_NUM=16
Maximum size of a physical file is 2.0 GB, maximum size of a tmp-file is 32.0 GB


--------------------------------------------------------------
User input:
--------------------------------------------------------------

$molecule
1,2
F          0.00000        0.00000        0.03464
F          0.00000        0.00000        1.36862
$end

$comment
positive
$end

$xc_functional
C PBE   1.00
X wPBE  1.00
$end

$rem
SYMMETRY_DECOMPOSITION	0
LRC_DFT                 true
exchange 		general
BASIS                   g3large
omega			1000
mem_static              760
max_scf_cycles          200
scf_final_print         1
sym_ignore              true
$end

--------------------------------------------------------------
 Writing REM_CC_EA            2
 ----------------------------------------------------
       Standard Nuclear Orientation (Angstroms)
    I     Atom         X            Y            Z
 ----------------------------------------------------
    1      F       0.000000     0.000000     0.034640
    2      F       0.000000     0.000000     1.368620
 ----------------------------------------------------
 Nuclear Repulsion Energy =    32.1319315693 hartrees
 There are        9 alpha and        8 beta electrons
 Requested basis set is G3large
 There are 20 shells and 84 basis functions

Total QAlloc Memory Limit   2000 MB
Mega-Array Size       743 MB
MEM_STATIC part       760 MB

                       Distance Matrix (Angstroms)
             F (  1)
   F (  2)  1.333980
 
 A cutoff of  1.0D-08 yielded    202 shell pairs
 There are   3646 function pairs (  4791 Cartesian)
Evaluating contribution to one-electron hamiltonian from nuclear
 Smallest overlap matrix eigenvalue = 2.48E-03
 Multipole matrices computed through 2nd order

  Scale SEOQF with 1.000000e+00/1.000000e+00/1.000000e-01

 Standard Electronic Orientation quadrupole field applied
 Nucleus-field energy     =    -0.0000000018 hartrees
 Guess from superposition of atomic densities
 Warning:  Energy on first SCF cycle will be non-variational
 Long-range K will be added via erf
 Coulomb attenuation parameter = 1 bohr**(-1)
 An unrestricted Kohn-Sham SCF calculation will be
 performed using Pulay DIIS extrapolation
 Exchange:  wPBE + LR-HF      Correlation:  PBE
 Using SG-1 standard quadrature grid
 SCF converges when DIIS error is below 1.0E-05
 Requested basis set is G3large
 There are 20 shells and 84 basis functions
 A cutoff of  1.0D-08 yielded    202 shell pairs
 There are   3646 function pairs (  4791 Cartesian)
 Warning!  Inaccurate integrated density:
   Number of electrons =    17
   Numerical integral  =    17.999991766421
   Relative error      =     5.8823045084 %
 ---------------------------------------
  Cycle       Energy         DIIS Error
 ---------------------------------------
    1    -199.5945801810      3.50E-02
    2    -198.7234619168      1.44E-02
    3    -198.8471472775      4.98E-03
    4    -198.8556854388      4.67E-04
    5    -198.8561173103      1.22E-04
    6    -198.8561834427      5.48E-05
    7    -198.8562000678      2.57E-05
    8    -198.8562043630      1.96E-05
    9    -198.8562057715      1.05E-05
   10    -198.8562086651      7.86E-06 Convergence criterion met
 ---------------------------------------
 One-Electron    Energy =  -333.1110249846
 Total Coulomb   Energy =   122.2695503250
 Alpha Exchange  Energy =    -3.9360926681
 Beta  Exchange  Energy =    -3.4005099301
 DFT   Exchange  Energy =   -12.2321376485
 DFT Correlation Energy =    -0.5779253262
 Nuclear Repu.   Energy =    32.1319315675
 Nuclear Attr.   Energy =  -531.4453095204
 Kinetic         Energy =   198.3342845358
 <S^2> = 0.7583
 SCF time:  CPU 9.69 s  wall 10.56 s
 Final Alpha MO Eigenvalues
            1           2           3           4           5           6
    1 -25.4582840 -25.4579833  -2.2645954  -1.9269662  -1.3739257  -1.3179595
            7           8           9          10          11          12
    1  -1.3169424  -1.2131851  -1.1516772  -0.4207400  -0.0598962   0.0005751
           13          14
    1   0.0049000   0.0089902
 Final Beta MO Eigenvalues
            1           2           3           4           5           6
    1 -25.4403586 -25.4398530  -2.2143232  -1.8497386  -1.3004521  -1.2964761
            7           8           9          10          11          12
    1  -1.1380961  -1.1298140  -0.5904434  -0.3927297  -0.0588343   0.0069404
           13
    1   0.0100464
 Analysis of SCF Wavefunction
 
 --------------------------------------------------------------
                    Orbital Energies (a.u.)
 --------------------------------------------------------------
 
 Alpha MOs
 -- Occupied --
-25.458 -25.458  -2.265  -1.927  -1.374  -1.318  -1.317  -1.213
 -1.152
 -- Virtual --
 -0.421  -0.060   0.001   0.005   0.009   0.089   0.100   0.106
  0.266   0.933   0.962   1.005   1.092   1.099   1.118   1.330
  1.397   1.422   1.558   1.558   1.653   1.837   1.838   1.960
  2.389   2.421   3.190   5.301   5.576   5.612   5.848   5.899
  5.952   6.001   6.049   6.099   6.101   6.336   6.336   6.393
  6.393   6.436   6.590   6.590   7.180   7.217   7.964   8.652
  8.653   8.658   8.707   8.816   8.816   9.329   9.376   9.401
 10.263  49.691  49.719  49.732  49.753  49.757  49.797  49.942
 49.975  49.978  50.096  55.159  55.169  55.202  55.232  55.266
 55.973  66.180  66.249
 
 Beta MOs
 -- Occupied --
-25.440 -25.440  -2.214  -1.850  -1.300  -1.296  -1.138  -1.130
 -- Virtual --
 -0.590  -0.393  -0.059   0.007   0.010   0.013   0.089   0.107
  0.111   0.268   0.969   0.992   1.012   1.105   1.124   1.141
  1.344   1.424   1.428   1.589   1.589   1.673   1.880   1.881
  1.982   2.425   2.433   3.205   5.314   5.622   5.627   5.917
  5.929   5.975   6.063   6.063   6.126   6.127   6.374   6.374
  6.432   6.433   6.457   6.617   6.618   7.220   7.225   7.986
  8.720   8.721   8.724   8.729   8.883   8.887   9.388   9.394
  9.429  10.285  49.743  49.761  49.772  49.787  49.808  49.852
 49.985  49.995  49.995  50.117  55.169  55.212  55.213  55.276
 55.277  55.984  66.199  66.268
 --------------------------------------------------------------
 
          Ground-State Mulliken Net Atomic Charges

     Atom                 Charge (a.u.)    Spin (a.u.)
  --------------------------------------------------------
      1 F                     0.500008       0.500024
      2 F                     0.499992       0.499976
  --------------------------------------------------------
  Sum of atomic charges =     1.000000
  Sum of spin   charges =     1.000000

 -----------------------------------------------------------------
                    Cartesian Multipole Moments
 -----------------------------------------------------------------
    Charge (ESU x 10^10)
                 4.8032
    Dipole Moment (Debye)
         X       0.0000      Y       0.0000      Z       3.3700
       Tot       3.3700
    Quadrupole Moments (Debye-Ang)
        XX      -7.8549     XY       0.2865     YY      -7.8550
        XZ       0.0174     YZ       0.0174     ZZ      -2.4722
    Octapole Moments (Debye-Ang^2)
       XXX       0.0000    XXY       0.0000    XYY       0.0000
       YYY       0.0000    XXZ      -5.5113    XYZ       0.2010
       YYZ      -5.5113    XZZ       0.0245    YZZ       0.0245
       ZZZ      -8.5216
    Hexadecapole Moments (Debye-Ang^3)
      XXXX      -3.8415   XXXY       0.0878   XXYY      -1.2805
      XYYY       0.0878   YYYY      -3.8416   XXXZ       0.0071
      XXYZ       0.0024   XYYZ       0.0024   YYYZ       0.0071
      XXZZ      -8.5213   XYZZ       0.3460   YYZZ      -8.5214
      XZZZ       0.0564   YZZZ       0.0564   ZZZZ     -33.6511
 -----------------------------------------------------------------
 Total job time:  10.65s(wall), 9.77s(cpu) 
 Wed May 22 11:01:09 2013

        *************************************************************
        *                                                           *
        *  Thank you very much for using Q-Chem.  Have a nice day.  *
        *                                                           *
        *************************************************************


0 sent ACK to 0 
now end server 0 ... 
