Process 0 of 1 is on cl212.stfx.acenet.ca - thread support 1
initial socket setup ...start
initial socket setup ...done 
now start server 0 ... 

cmd = /usr/bin/ssh clhead /usr/local/qchem/bin/get_hostid 532232533 > /scratch/tmp/5998489.1.medium.q/qchem19387/lic.dat
                  Welcome to Q-Chem
     A Quantum Leap Into The Future Of Chemistry

 Y. Shao, L. Fusti-Molnar, Y. Jung, J. Kussmann, C. Ochsenfeld,
 S. T. Brown, A. T. B. Gilbert, L. V. Slipchenko,S. V. Levchenko,
 D. P. O'Neill, R. A. DiStasio Jr., R. C. Lochan, T. Wang,
 G. J. O. Beran, N. A. Besley, J. M. Herbert, C. Y. Lin,
 T. Van Voorhis, S. H. Chien, A. Sodt, R. P. Steele, 
 V. A. Rassolov, P. E. Maslen, P. P. Korambath, R. D. Adamson,
 B. Austin, J. Baker, E. F. C. Byrd, H. Dachsel, R. J. Doerksen,
 A. Dreuw, B. D. Dunietz, A. D. Dutoi, T. R. Furlani,
 S. R. Gwaltney, A. Heyden, S. Hirata, C.-P. Hsu, G. Kedziora,
 R. Z. Khaliullin, P. Klunzinger, A. M. Lee, M. S. Lee, W. Liang,
 I. Lotan, N. Nair, B. Peters, E. I. Proynov, P. A. Pieniazek, 
 Y. M. Rhee, J. Ritchie, E. Rosta, C. D. Sherrill, 
 A. C. Simmonett, J. E. Subotnik, H. L. Woodcock III,
 W. Zhang, A. T. Bell, A. K. Chakraborty, D. M. Chipman,
 F. J. Keil, A. Warshel, W. J. Hehre, H. F. Schaefer III,
 J. Kong, A. I. Krylov, P. M. W. Gill, M. Head-Gordon,
 Q-Chem, Version 3.1, Q-Chem, Inc., Pittsburgh, PA (2007).

 Additional authors for Version 3.1: 
 Z. Gan, Y. Zhao, N. E. Schultz, D. Truhlar, E. Epifanovsky and M. Oana.

 Additional authors for Version 3.2: 
 R. Baer, B. R. Brooks, D. Casanova, J.-D. Chai, C.-L. Cheng, 
 C. Cramer, D. Crittenden, A. Ghysels, G. Hawkins, E. G. Hohenstein, 
 C. Kelley, W. Kurlancheek, D. Liotard, E. Livshits, P. Manohar, 
 A. Marenich, D. Neuhauser, R. Olson, M. A. Rohrdanz, K. S. Thanthiriwatte, 
 A. J. W. Thom, V. Vanovschi, C. F. Williams, Q. Wu and Z.-Q. You. 


 Intel X86 Linux Version

 Q-chem begins on Wed May 22 11:36:07 2013  

 Parallel job on  1  processors
Processing $rem in /usr/local/qchem/config/preferences.

theFileMan(): MAXOPENFILES=974 MAX_SUB_FILE_NUM=16
Maximum size of a physical file is 2.0 GB, maximum size of a tmp-file is 32.0 GB


--------------------------------------------------------------
User input:
--------------------------------------------------------------

$molecule
-1,2
C          0.00234        0.00000        0.00948
C         -0.00535        0.00000        1.33434
C          1.20122        0.00000        2.10811
H          0.92931        0.00000       -0.55323
H         -0.92779        0.00000       -0.54722
H         -0.93135        0.00000        1.90041
N          2.15760        0.00000        2.74468
$end

$comment
negative
$end

$xc_functional
C PBE   1.00
X wPBE  1.00
$end

$rem
SYMMETRY_DECOMPOSITION	0
exchange 		general
LRC_DFT                 true
BASIS                   g3large
omega			400
mem_static              760
max_scf_cycles          200
scf_final_print         1
sym_ignore              true
$end

--------------------------------------------------------------
 Writing REM_CC_EA            7
 ----------------------------------------------------
       Standard Nuclear Orientation (Angstroms)
    I     Atom         X            Y            Z
 ----------------------------------------------------
    1      C       0.002340     0.000000     0.009480
    2      C      -0.005350     0.000000     1.334340
    3      C       1.201220     0.000000     2.108110
    4      H       0.929310     0.000000    -0.553230
    5      H      -0.927790     0.000000    -0.547220
    6      H      -0.931350     0.000000     1.900410
    7      N       2.157600     0.000000     2.744680
 ----------------------------------------------------
 Nuclear Repulsion Energy =    90.5025805210 hartrees
 There are       15 alpha and       14 beta electrons
 Requested basis set is G3large
 There are 58 shells and 198 basis functions

Total QAlloc Memory Limit   2000 MB
Mega-Array Size       743 MB
MEM_STATIC part       760 MB

                       Distance Matrix (Angstroms)
             C (  1)   C (  2)   C (  3)   H (  4)   H (  5)   H (  6)
   C (  2)  1.324882
   C (  3)  2.416932  1.433364
   H (  4)  1.084397  2.106302  2.675195
   H (  5)  1.084000  2.095510  3.403448  1.857110
   H (  6)  2.108884  1.085316  2.142661  3.079351  2.447633
   N (  7)  3.482307  2.582133  1.148862  3.519220  4.511789  3.202250

 
 A cutoff of  1.0D-08 yielded   1544 shell pairs
 There are  18108 function pairs ( 22788 Cartesian)
Evaluating contribution to one-electron hamiltonian from nuclear
 Smallest overlap matrix eigenvalue = 2.75E-05

 Q-Chem warning in module mkSTV.C, line 194:

 Overlap eigenvalue is smaller than square root of threshold

 Multipole matrices computed through 2nd order

  Scale SEOQF with 1.000000e-01/1.000000e-01/1.000000e-01

 Standard Electronic Orientation quadrupole field applied
 Nucleus-field energy     =    -0.0000000085 hartrees
 Guess from superposition of atomic densities
 Warning:  Energy on first SCF cycle will be non-variational
 Long-range K will be added via erf
 Coulomb attenuation parameter = 0.4 bohr**(-1)
 An unrestricted Kohn-Sham SCF calculation will be
 performed using Pulay DIIS extrapolation
 Exchange:  wPBE + LR-HF      Correlation:  PBE
 Using SG-1 standard quadrature grid
 SCF converges when DIIS error is below 1.0E-05
 Requested basis set is G3large
 There are 58 shells and 198 basis functions
 A cutoff of  1.0D-08 yielded   1544 shell pairs
 There are  18108 function pairs ( 22788 Cartesian)
 Warning!  Inaccurate integrated density:
   Number of electrons =    29
   Numerical integral  =    27.999943562980
   Relative error      =    -3.4484704725 %
 ---------------------------------------
  Cycle       Energy         DIIS Error
 ---------------------------------------
    1    -171.6342849499      3.32E-02
    2    -170.5978995178      4.74E-03
    3    -170.6450859381      4.58E-03
    4    -170.7261359822      9.13E-04
    5    -170.7303553410      3.19E-04
    6    -170.7313855497      8.23E-05
    7    -170.7315375153      3.66E-05
    8    -170.7315761068      1.38E-05
    9    -170.7315915518      5.95E-06 Convergence criterion met
 ---------------------------------------
 One-Electron    Energy =  -414.7287844918
 Total Coulomb   Energy =   177.8549004423
 Alpha Exchange  Energy =    -2.9513614405
 Beta  Exchange  Energy =    -2.7715146866
 DFT   Exchange  Energy =   -17.7085162643
 DFT Correlation Energy =    -0.9288956234
 Nuclear Repu.   Energy =    90.5025805125
 Nuclear Attr.   Energy =  -585.0436734264
 Kinetic         Energy =   170.3148889346
 <S^2> = 0.7600
 SCF time:  CPU 111.24 s  wall 112.51 s
 Final Alpha MO Eigenvalues
            1           2           3           4           5           6
    1 -13.9702697  -9.9279690  -9.9012068  -9.8803241  -0.8368915  -0.7272975
            7           8           9          10          11          12
    1  -0.5638368  -0.4369224  -0.3693448  -0.3081216  -0.3080136  -0.2801297
           13          14          15          16          17          18
    1  -0.2506562  -0.2039984  -0.0021966   0.1539714   0.1718027   0.1770944
           19          20
    1   0.2169911   0.2589184
 Final Beta MO Eigenvalues
            1           2           3           4           5           6
    1 -13.9668231  -9.9281986  -9.8983965  -9.8740362  -0.8320232  -0.7158528
            7           8           9          10          11          12
    1  -0.5428036  -0.4328909  -0.3633050  -0.3026250  -0.2826466  -0.2749397
           13          14          15          16          17          18
    1  -0.2483616  -0.1557717   0.1547561   0.1724775   0.1776756   0.2173609
           19
    1   0.2402421
 Analysis of SCF Wavefunction
 
 --------------------------------------------------------------
                    Orbital Energies (a.u.)
 --------------------------------------------------------------
 
 Alpha MOs
 -- Occupied --
-13.970  -9.928  -9.901  -9.880  -0.837  -0.727  -0.564  -0.437
 -0.369  -0.308  -0.308  -0.280  -0.251  -0.204  -0.002
 -- Virtual --
  0.154   0.172   0.177   0.217   0.259   0.261   0.286   0.291
  0.294   0.300   0.309   0.322   0.340   0.342   0.356   0.364
  0.381   0.434   0.450   0.459   0.464   0.470   0.491   0.527
  0.615   0.634   0.704   0.772   0.797   0.803   0.812   0.837
  0.852   0.870   0.894   0.902   0.912   0.927   0.934   0.940
  1.004   1.019   1.029   1.062   1.095   1.105   1.144   1.150
  1.158   1.203   1.250   1.300   1.324   1.338   1.408   1.444
  1.496   1.507   1.520   1.573   1.593   1.664   1.666   1.708
  1.753   1.769   1.816   1.836   1.937   1.956   2.109   2.141
  2.308   2.346   2.484   2.771   2.843   2.914   2.939   2.999
  3.000   3.007   3.029   3.035   3.056   3.075   3.142   3.172
  3.176   3.227   3.229   3.304   3.316   3.368   3.412   3.417
  3.480   3.499   3.499   3.558   3.576   3.590   3.599   3.634
  3.690   3.703   3.756   3.814   3.839   3.958   3.972   4.008
  4.021   4.038   4.042   4.074   4.229   4.278   4.289   4.341
  4.393   4.476   4.485   4.514   4.591   4.694   4.696   4.759
  4.858   4.881   5.013   5.073   5.100   5.138   5.142   5.218
  5.463   5.526   5.557   5.705   5.860   5.922   6.183   6.487
  6.493   6.765   7.428  24.289  24.772  25.056  27.482  27.585
 27.716  27.726  28.357  28.421  28.469  28.623  29.431  36.450
 37.803  37.894  38.572  40.712  40.806  40.850  40.933  40.938
 41.071  41.104  41.199  41.251  41.311  41.316  41.351  41.372
 41.402  41.469  41.514  41.527  41.546  41.633  42.042
 
 Beta MOs
 -- Occupied --
-13.967  -9.928  -9.898  -9.874  -0.832  -0.716  -0.543  -0.433
 -0.363  -0.303  -0.283  -0.275  -0.248  -0.156
 -- Virtual --
  0.155   0.172   0.178   0.217   0.240   0.259   0.270   0.289
  0.294   0.302   0.311   0.319   0.325   0.343   0.344   0.359
  0.369   0.405   0.438   0.453   0.466   0.471   0.483   0.494
  0.531   0.618   0.639   0.708   0.781   0.811   0.816   0.819
  0.840   0.877   0.878   0.903   0.919   0.926   0.934   0.939
  0.946   1.007   1.026   1.036   1.065   1.100   1.122   1.153
  1.155   1.163   1.208   1.254   1.309   1.336   1.343   1.414
  1.464   1.498   1.519   1.526   1.575   1.599   1.670   1.681
  1.714   1.765   1.773   1.819   1.843   1.947   1.964   2.119
  2.147   2.311   2.348   2.492   2.776   2.848   2.929   2.948
  3.007   3.010   3.031   3.036   3.046   3.063   3.078   3.148
  3.176   3.191   3.232   3.240   3.317   3.338   3.380   3.419
  3.427   3.485   3.506   3.511   3.564   3.589   3.595   3.609
  3.654   3.696   3.725   3.762   3.820   3.851   3.966   3.985
  4.025   4.027   4.048   4.056   4.088   4.233   4.291   4.294
  4.343   4.399   4.479   4.489   4.523   4.599   4.703   4.704
  4.765   4.872   4.884   5.019   5.089   5.101   5.155   5.156
  5.225   5.470   5.537   5.560   5.708   5.862   5.925   6.186
  6.496   6.498   6.768   7.431  24.295  24.773  25.061  27.494
 27.591  27.725  27.726  28.359  28.425  28.472  28.626  29.431
 36.454  37.812  37.897  38.574  40.721  40.814  40.851  40.939
 40.940  41.077  41.106  41.210  41.256  41.312  41.316  41.359
 41.382  41.410  41.478  41.517  41.529  41.548  41.634  42.043
 --------------------------------------------------------------
 
          Ground-State Mulliken Net Atomic Charges

     Atom                 Charge (a.u.)    Spin (a.u.)
  --------------------------------------------------------
      1 C                    -0.630083       0.747886
      2 C                    -0.052064       0.153745
      3 C                     0.017597       0.003951
      4 H                     0.070163      -0.038857
      5 H                     0.067267      -0.037964
      6 H                     0.072022      -0.026469
      7 N                    -0.544902       0.197708
  --------------------------------------------------------
  Sum of atomic charges =    -1.000000
  Sum of spin   charges =     1.000000

 -----------------------------------------------------------------
                    Cartesian Multipole Moments
 -----------------------------------------------------------------
    Charge (ESU x 10^10)
                -4.8032
    Dipole Moment (Debye)
         X      -5.5691      Y       0.0098      Z      -7.4197
       Tot       9.2772
    Quadrupole Moments (Debye-Ang)
        XX     -40.5586     XY       0.0016     YY     -31.5774
        XZ     -17.1588     YZ      -0.0264     ZZ     -49.4512
    Octapole Moments (Debye-Ang^2)
       XXX     -95.8941    XXY       0.0225    XYY     -20.6176
       YYY       0.0628    XXZ     -79.6096    XYZ       0.0232
       YYZ     -39.9002    XZZ     -70.8673    YZZ       0.0152
       ZZZ    -176.5598
    Hexadecapole Moments (Debye-Ang^3)
      XXXX    -371.4949   XXXY       0.0025   XXYY     -59.3040
      XYYY       0.0147   YYYY     -53.7485   XXXZ    -260.5078
      XXYZ      -0.0701   XYYZ     -54.0614   YYYZ      -0.1657
      XXZZ    -265.2766   XYZZ       0.0560   YYZZ    -112.6715
      XZZZ    -306.5344   YZZZ      -0.1337   ZZZZ    -755.9210
 -----------------------------------------------------------------
 Total job time:  112.74s(wall), 111.47s(cpu) 
 Wed May 22 11:38:00 2013

        *************************************************************
        *                                                           *
        *  Thank you very much for using Q-Chem.  Have a nice day.  *
        *                                                           *
        *************************************************************


0 sent ACK to 0 
now end server 0 ... 
 
**********************************************************************
Job 2 of 3 
**********************************************************************
 
Process 0 of 1 is on cl212.stfx.acenet.ca - thread support 1
initial socket setup ...start
initial socket setup ...done 
now start server 0 ... 

cmd = /usr/bin/ssh clhead /usr/local/qchem/bin/get_hostid 695269208 > /scratch/tmp/5998489.1.medium.q/qchem19387/lic.dat
                  Welcome to Q-Chem
     A Quantum Leap Into The Future Of Chemistry

 Y. Shao, L. Fusti-Molnar, Y. Jung, J. Kussmann, C. Ochsenfeld,
 S. T. Brown, A. T. B. Gilbert, L. V. Slipchenko,S. V. Levchenko,
 D. P. O'Neill, R. A. DiStasio Jr., R. C. Lochan, T. Wang,
 G. J. O. Beran, N. A. Besley, J. M. Herbert, C. Y. Lin,
 T. Van Voorhis, S. H. Chien, A. Sodt, R. P. Steele, 
 V. A. Rassolov, P. E. Maslen, P. P. Korambath, R. D. Adamson,
 B. Austin, J. Baker, E. F. C. Byrd, H. Dachsel, R. J. Doerksen,
 A. Dreuw, B. D. Dunietz, A. D. Dutoi, T. R. Furlani,
 S. R. Gwaltney, A. Heyden, S. Hirata, C.-P. Hsu, G. Kedziora,
 R. Z. Khaliullin, P. Klunzinger, A. M. Lee, M. S. Lee, W. Liang,
 I. Lotan, N. Nair, B. Peters, E. I. Proynov, P. A. Pieniazek, 
 Y. M. Rhee, J. Ritchie, E. Rosta, C. D. Sherrill, 
 A. C. Simmonett, J. E. Subotnik, H. L. Woodcock III,
 W. Zhang, A. T. Bell, A. K. Chakraborty, D. M. Chipman,
 F. J. Keil, A. Warshel, W. J. Hehre, H. F. Schaefer III,
 J. Kong, A. I. Krylov, P. M. W. Gill, M. Head-Gordon,
 Q-Chem, Version 3.1, Q-Chem, Inc., Pittsburgh, PA (2007).

 Additional authors for Version 3.1: 
 Z. Gan, Y. Zhao, N. E. Schultz, D. Truhlar, E. Epifanovsky and M. Oana.

 Additional authors for Version 3.2: 
 R. Baer, B. R. Brooks, D. Casanova, J.-D. Chai, C.-L. Cheng, 
 C. Cramer, D. Crittenden, A. Ghysels, G. Hawkins, E. G. Hohenstein, 
 C. Kelley, W. Kurlancheek, D. Liotard, E. Livshits, P. Manohar, 
 A. Marenich, D. Neuhauser, R. Olson, M. A. Rohrdanz, K. S. Thanthiriwatte, 
 A. J. W. Thom, V. Vanovschi, C. F. Williams, Q. Wu and Z.-Q. You. 


 Intel X86 Linux Version

 Q-chem begins on Wed May 22 11:38:03 2013  

 Parallel job on  1  processors
Processing $rem in /usr/local/qchem/config/preferences.

theFileMan(): MAXOPENFILES=974 MAX_SUB_FILE_NUM=16
Maximum size of a physical file is 2.0 GB, maximum size of a tmp-file is 32.0 GB


--------------------------------------------------------------
User input:
--------------------------------------------------------------

$molecule
0,1
C          0.00234        0.00000        0.00948
C         -0.00535        0.00000        1.33434
C          1.20122        0.00000        2.10811
H          0.92931        0.00000       -0.55323
H         -0.92779        0.00000       -0.54722
H         -0.93135        0.00000        1.90041
N          2.15760        0.00000        2.74468
$end

$comment
neutral
$end

$xc_functional
C PBE   1.00
X wPBE  1.00
$end


$rem
SYMMETRY_DECOMPOSITION	0
LRC_DFT                 true
exchange 		general
BASIS                   g3large
omega			400
mem_static              760
max_scf_cycles          200
scf_final_print         1
sym_ignore              true
$end

--------------------------------------------------------------
 Writing REM_CC_EA            7
 ----------------------------------------------------
       Standard Nuclear Orientation (Angstroms)
    I     Atom         X            Y            Z
 ----------------------------------------------------
    1      C       0.002340     0.000000     0.009480
    2      C      -0.005350     0.000000     1.334340
    3      C       1.201220     0.000000     2.108110
    4      H       0.929310     0.000000    -0.553230
    5      H      -0.927790     0.000000    -0.547220
    6      H      -0.931350     0.000000     1.900410
    7      N       2.157600     0.000000     2.744680
 ----------------------------------------------------
 Nuclear Repulsion Energy =    90.5025805210 hartrees
 There are       14 alpha and       14 beta electrons
 Requested basis set is G3large
 There are 58 shells and 198 basis functions

Total QAlloc Memory Limit   2000 MB
Mega-Array Size       743 MB
MEM_STATIC part       760 MB

                       Distance Matrix (Angstroms)
             C (  1)   C (  2)   C (  3)   H (  4)   H (  5)   H (  6)
   C (  2)  1.324882
   C (  3)  2.416932  1.433364
   H (  4)  1.084397  2.106302  2.675195
   H (  5)  1.084000  2.095510  3.403448  1.857110
   H (  6)  2.108884  1.085316  2.142661  3.079351  2.447633
   N (  7)  3.482307  2.582133  1.148862  3.519220  4.511789  3.202250

 
 A cutoff of  1.0D-08 yielded   1544 shell pairs
 There are  18108 function pairs ( 22788 Cartesian)
Evaluating contribution to one-electron hamiltonian from nuclear
 Smallest overlap matrix eigenvalue = 2.75E-05

 Q-Chem warning in module mkSTV.C, line 194:

 Overlap eigenvalue is smaller than square root of threshold

 Multipole matrices computed through 2nd order

  Scale SEOQF with 1.000000e-01/1.000000e-01/1.000000e-01

 Standard Electronic Orientation quadrupole field applied
 Nucleus-field energy     =    -0.0000000085 hartrees
 Guess from superposition of atomic densities
 Warning:  Energy on first SCF cycle will be non-variational
 Long-range K will be added via erf
 Coulomb attenuation parameter = 0.4 bohr**(-1)
 A restricted Kohn-Sham SCF calculation will be
 performed using Pulay DIIS extrapolation
 Exchange:  wPBE + LR-HF      Correlation:  PBE
 Using SG-1 standard quadrature grid
 SCF converges when DIIS error is below 1.0E-05
 Requested basis set is G3large
 There are 58 shells and 198 basis functions
 A cutoff of  1.0D-08 yielded   1544 shell pairs
 There are  18108 function pairs ( 22788 Cartesian)
 ---------------------------------------
  Cycle       Energy         DIIS Error
 ---------------------------------------
    1    -171.6342849499      3.32E-02
    2    -170.6539063513      3.96E-03
    3    -170.6370873654      5.10E-03
    4    -170.7377057625      5.05E-04
    5    -170.7396113930      1.90E-04
    6    -170.7399907348      5.70E-05
    7    -170.7400210450      2.50E-05
    8    -170.7400258124      9.52E-06 Convergence criterion met
 ---------------------------------------
 One-Electron    Energy =  -408.1273587202
 Total Coulomb   Energy =   170.9694607262
 Alpha Exchange  Energy =    -2.7859636613
 Beta  Exchange  Energy =    -2.7859636613
 DFT   Exchange  Energy =   -17.6139009156
 DFT Correlation Energy =    -0.8988800926
 Nuclear Repu.   Energy =    90.5025805125
 Nuclear Attr.   Energy =  -578.1960276213
 Kinetic         Energy =   170.0686689011
 SCF time:  CPU 79.21 s  wall 80.02 s
 Final Alpha MO Eigenvalues
            1           2           3           4           5           6
    1 -14.2042884 -10.1658874 -10.1499376 -10.1494536  -1.0585235  -0.9722920
            7           8           9          10          11          12
    1  -0.8002414  -0.6774312  -0.6137130  -0.5409851  -0.5202130  -0.4949742
           13          14          15          16          17          18
    1  -0.4688810  -0.4133195   0.0187068   0.0306671   0.0509293   0.0583555
           19
    1   0.0973415
 Analysis of SCF Wavefunction
 
 --------------------------------------------------------------
                    Orbital Energies (a.u.)
 --------------------------------------------------------------
 
 Alpha MOs
 -- Occupied --
-14.204 -10.166 -10.150 -10.149  -1.059  -0.972  -0.800  -0.677
 -0.614  -0.541  -0.520  -0.495  -0.469  -0.413
 -- Virtual --
  0.019   0.031   0.051   0.058   0.097   0.107   0.110   0.128
  0.139   0.144   0.153   0.164   0.165   0.178   0.186   0.201
  0.210   0.212   0.268   0.287   0.297   0.298   0.318   0.327
  0.351   0.426   0.435   0.503   0.565   0.582   0.595   0.611
  0.629   0.653   0.668   0.692   0.699   0.705   0.720   0.730
  0.750   0.799   0.812   0.816   0.858   0.886   0.904   0.958
  0.961   0.968   0.995   1.040   1.089   1.110   1.126   1.195
  1.229   1.286   1.293   1.303   1.355   1.386   1.447   1.454
  1.497   1.534   1.551   1.603   1.618   1.720   1.740   1.902
  1.920   2.102   2.141   2.270   2.540   2.613   2.669   2.701
  2.760   2.767   2.769   2.796   2.809   2.826   2.844   2.910
  2.938   2.943   2.988   2.995   3.068   3.075   3.131   3.179
  3.186   3.243   3.265   3.267   3.319   3.339   3.358   3.369
  3.397   3.457   3.465   3.518   3.578   3.602   3.734   3.743
  3.776   3.786   3.801   3.813   3.836   3.997   4.055   4.057
  4.113   4.156   4.243   4.252   4.276   4.358   4.463   4.464
  4.524   4.619   4.651   4.775   4.831   4.863   4.921   4.921
  4.986   5.225   5.311   5.334   5.471   5.622   5.682   5.943
  6.261   6.265   6.536   7.199  24.026  24.547  24.795  27.222
 27.348  27.463  27.504  28.096  28.156  28.203  28.359  29.201
 36.218  37.571  37.661  38.339  40.479  40.573  40.617  40.700
 40.705  40.807  40.878  40.932  40.991  41.076  41.092  41.099
 41.106  41.138  41.204  41.248  41.279  41.302  41.373  41.813
 --------------------------------------------------------------
 
          Ground-State Mulliken Net Atomic Charges

     Atom                 Charge (a.u.)
  ----------------------------------------
      1 C                    -0.204808
      2 C                     0.139935
      3 C                    -0.000128
      4 H                     0.122101
      5 H                     0.124192
      6 H                     0.134523
      7 N                    -0.315815
  ----------------------------------------
  Sum of atomic charges =     0.000000

 -----------------------------------------------------------------
                    Cartesian Multipole Moments
 -----------------------------------------------------------------
    Charge (ESU x 10^10)
                 0.0000
    Dipole Moment (Debye)
         X      -3.1874      Y       0.0004      Z      -2.5977
       Tot       4.1119
    Quadrupole Moments (Debye-Ang)
        XX     -29.7109     XY       0.0001     YY     -24.7749
        XZ      -9.8843     YZ       0.0006     ZZ     -30.8289
    Octapole Moments (Debye-Ang^2)
       XXX     -75.4927    XXY       0.0021    XYY     -18.2042
       YYY       0.0007    XXZ     -57.4961    XYZ       0.0007
       YYZ     -35.2126    XZZ     -47.6393    YZZ       0.0009
       ZZZ    -129.8285
    Hexadecapole Moments (Debye-Ang^3)
      XXXX    -294.6348   XXXY       0.0056   XXYY     -46.2178
      XYYY       0.0000   YYYY     -26.9672   XXXZ    -201.5918
      XXYZ       0.0033   XYYZ     -47.1981   YYYZ       0.0007
      XXZZ    -191.0448   XYZZ      -0.0012   YYZZ     -88.9872
      XZZZ    -228.0965   YZZZ      -0.0016   ZZZZ    -588.3060
 -----------------------------------------------------------------
 Total job time:  80.24s(wall), 79.42s(cpu) 
 Wed May 22 11:39:23 2013

        *************************************************************
        *                                                           *
        *  Thank you very much for using Q-Chem.  Have a nice day.  *
        *                                                           *
        *************************************************************


0 sent ACK to 0 
now end server 0 ... 
 
**********************************************************************
Job 3 of 3 
**********************************************************************
 
Process 0 of 1 is on cl212.stfx.acenet.ca - thread support 1
initial socket setup ...start
initial socket setup ...done 
now start server 0 ... 

cmd = /usr/bin/ssh clhead /usr/local/qchem/bin/get_hostid 1225157891 > /scratch/tmp/5998489.1.medium.q/qchem19387/lic.dat
                  Welcome to Q-Chem
     A Quantum Leap Into The Future Of Chemistry

 Y. Shao, L. Fusti-Molnar, Y. Jung, J. Kussmann, C. Ochsenfeld,
 S. T. Brown, A. T. B. Gilbert, L. V. Slipchenko,S. V. Levchenko,
 D. P. O'Neill, R. A. DiStasio Jr., R. C. Lochan, T. Wang,
 G. J. O. Beran, N. A. Besley, J. M. Herbert, C. Y. Lin,
 T. Van Voorhis, S. H. Chien, A. Sodt, R. P. Steele, 
 V. A. Rassolov, P. E. Maslen, P. P. Korambath, R. D. Adamson,
 B. Austin, J. Baker, E. F. C. Byrd, H. Dachsel, R. J. Doerksen,
 A. Dreuw, B. D. Dunietz, A. D. Dutoi, T. R. Furlani,
 S. R. Gwaltney, A. Heyden, S. Hirata, C.-P. Hsu, G. Kedziora,
 R. Z. Khaliullin, P. Klunzinger, A. M. Lee, M. S. Lee, W. Liang,
 I. Lotan, N. Nair, B. Peters, E. I. Proynov, P. A. Pieniazek, 
 Y. M. Rhee, J. Ritchie, E. Rosta, C. D. Sherrill, 
 A. C. Simmonett, J. E. Subotnik, H. L. Woodcock III,
 W. Zhang, A. T. Bell, A. K. Chakraborty, D. M. Chipman,
 F. J. Keil, A. Warshel, W. J. Hehre, H. F. Schaefer III,
 J. Kong, A. I. Krylov, P. M. W. Gill, M. Head-Gordon,
 Q-Chem, Version 3.1, Q-Chem, Inc., Pittsburgh, PA (2007).

 Additional authors for Version 3.1: 
 Z. Gan, Y. Zhao, N. E. Schultz, D. Truhlar, E. Epifanovsky and M. Oana.

 Additional authors for Version 3.2: 
 R. Baer, B. R. Brooks, D. Casanova, J.-D. Chai, C.-L. Cheng, 
 C. Cramer, D. Crittenden, A. Ghysels, G. Hawkins, E. G. Hohenstein, 
 C. Kelley, W. Kurlancheek, D. Liotard, E. Livshits, P. Manohar, 
 A. Marenich, D. Neuhauser, R. Olson, M. A. Rohrdanz, K. S. Thanthiriwatte, 
 A. J. W. Thom, V. Vanovschi, C. F. Williams, Q. Wu and Z.-Q. You. 


 Intel X86 Linux Version

 Q-chem begins on Wed May 22 11:39:26 2013  

 Parallel job on  1  processors
Processing $rem in /usr/local/qchem/config/preferences.

theFileMan(): MAXOPENFILES=974 MAX_SUB_FILE_NUM=16
Maximum size of a physical file is 2.0 GB, maximum size of a tmp-file is 32.0 GB


--------------------------------------------------------------
User input:
--------------------------------------------------------------

$molecule
1,2
C          0.00234        0.00000        0.00948
C         -0.00535        0.00000        1.33434
C          1.20122        0.00000        2.10811
H          0.92931        0.00000       -0.55323
H         -0.92779        0.00000       -0.54722
H         -0.93135        0.00000        1.90041
N          2.15760        0.00000        2.74468
$end

$comment
positive
$end

$xc_functional
C PBE   1.00
X wPBE  1.00
$end

$rem
SYMMETRY_DECOMPOSITION	0
LRC_DFT                 true
exchange 		general
BASIS                   g3large
omega			400
mem_static              760
max_scf_cycles          200
scf_final_print         1
sym_ignore              true
$end

--------------------------------------------------------------
 Writing REM_CC_EA            7
 ----------------------------------------------------
       Standard Nuclear Orientation (Angstroms)
    I     Atom         X            Y            Z
 ----------------------------------------------------
    1      C       0.002340     0.000000     0.009480
    2      C      -0.005350     0.000000     1.334340
    3      C       1.201220     0.000000     2.108110
    4      H       0.929310     0.000000    -0.553230
    5      H      -0.927790     0.000000    -0.547220
    6      H      -0.931350     0.000000     1.900410
    7      N       2.157600     0.000000     2.744680
 ----------------------------------------------------
 Nuclear Repulsion Energy =    90.5025805210 hartrees
 There are       14 alpha and       13 beta electrons
 Requested basis set is G3large
 There are 58 shells and 198 basis functions

Total QAlloc Memory Limit   2000 MB
Mega-Array Size       743 MB
MEM_STATIC part       760 MB

                       Distance Matrix (Angstroms)
             C (  1)   C (  2)   C (  3)   H (  4)   H (  5)   H (  6)
   C (  2)  1.324882
   C (  3)  2.416932  1.433364
   H (  4)  1.084397  2.106302  2.675195
   H (  5)  1.084000  2.095510  3.403448  1.857110
   H (  6)  2.108884  1.085316  2.142661  3.079351  2.447633
   N (  7)  3.482307  2.582133  1.148862  3.519220  4.511789  3.202250

 
 A cutoff of  1.0D-08 yielded   1544 shell pairs
 There are  18108 function pairs ( 22788 Cartesian)
Evaluating contribution to one-electron hamiltonian from nuclear
 Smallest overlap matrix eigenvalue = 2.75E-05

 Q-Chem warning in module mkSTV.C, line 194:

 Overlap eigenvalue is smaller than square root of threshold

 Multipole matrices computed through 2nd order

  Scale SEOQF with 1.000000e-01/1.000000e-01/1.000000e-01

 Standard Electronic Orientation quadrupole field applied
 Nucleus-field energy     =    -0.0000000085 hartrees
 Guess from superposition of atomic densities
 Warning:  Energy on first SCF cycle will be non-variational
 Long-range K will be added via erf
 Coulomb attenuation parameter = 0.4 bohr**(-1)
 An unrestricted Kohn-Sham SCF calculation will be
 performed using Pulay DIIS extrapolation
 Exchange:  wPBE + LR-HF      Correlation:  PBE
 Using SG-1 standard quadrature grid
 SCF converges when DIIS error is below 1.0E-05
 Requested basis set is G3large
 There are 58 shells and 198 basis functions
 A cutoff of  1.0D-08 yielded   1544 shell pairs
 There are  18108 function pairs ( 22788 Cartesian)
 Warning!  Inaccurate integrated density:
   Number of electrons =    27
   Numerical integral  =    27.999943562980
   Relative error      =     3.7034946777 %
 ---------------------------------------
  Cycle       Energy         DIIS Error
 ---------------------------------------
    1    -171.6342849499      3.32E-02
    2    -170.2041864152      4.05E-03
    3    -170.1850906931      5.63E-03
    4    -170.3270775397      4.90E-04
    5    -170.3316018922      2.26E-04
    6    -170.3329091086      1.03E-04
    7    -170.3334470252      4.64E-05
    8    -170.3337417562      3.01E-05
    9    -170.3338454157      1.88E-05
   10    -170.3338998248      1.35E-05
   11    -170.3339144551      7.49E-06 Convergence criterion met
 ---------------------------------------
 One-Electron    Energy =  -400.4618879753
 Total Coulomb   Energy =   163.3966408478
 Alpha Exchange  Energy =    -2.8029882401
 Beta  Exchange  Energy =    -2.6009365911
 DFT   Exchange  Energy =   -17.5093365190
 DFT Correlation Energy =    -0.8579864899
 Nuclear Repu.   Energy =    90.5025805125
 Nuclear Attr.   Energy =  -570.3764356353
 Kinetic         Energy =   169.9145476600
 <S^2> = 0.7921
 SCF time:  CPU 134.84 s  wall 135.73 s
 Final Alpha MO Eigenvalues
            1           2           3           4           5           6
    1 -14.4910032 -10.4667371 -10.4522634 -10.4134492  -1.3373947  -1.2689341
            7           8           9          10          11          12
    1  -1.0703628  -0.9470685  -0.8893452  -0.8020086  -0.8006686  -0.7504063
           13          14          15          16          17          18
    1  -0.7291112  -0.7149843  -0.2550015  -0.1343992  -0.1016975  -0.0890774
           19
    1  -0.0789553
 Final Beta MO Eigenvalues
            1           2           3           4           5           6
    1 -14.4830745 -10.4628884 -10.4455579 -10.4150157  -1.3189982  -1.2400347
            7           8           9          10          11          12
    1  -1.0615668  -0.9418603  -0.8831851  -0.7972126  -0.7389444  -0.7351440
           13          14          15          16          17          18
    1  -0.7224229  -0.3977112  -0.1955659  -0.1319400  -0.1006032  -0.0878511
 Analysis of SCF Wavefunction
 
 --------------------------------------------------------------
                    Orbital Energies (a.u.)
 --------------------------------------------------------------
 
 Alpha MOs
 -- Occupied --
-14.491 -10.467 -10.452 -10.413  -1.337  -1.269  -1.070  -0.947
 -0.889  -0.802  -0.801  -0.750  -0.729  -0.715
 -- Virtual --
 -0.255  -0.134  -0.102  -0.089  -0.079  -0.072  -0.052  -0.034
 -0.034  -0.022  -0.009   0.002   0.003   0.008   0.027   0.033
  0.040   0.055   0.089   0.092   0.117   0.129   0.162   0.170
  0.183   0.220   0.233   0.292   0.335   0.343   0.358   0.395
  0.399   0.421   0.445   0.451   0.478   0.485   0.488   0.518
  0.541   0.574   0.577   0.591   0.631   0.634   0.677   0.741
  0.741   0.756   0.778   0.810   0.860   0.871   0.887   0.955
  0.979   1.043   1.054   1.058   1.117   1.151   1.207   1.208
  1.266   1.280   1.315   1.377   1.381   1.482   1.499   1.657
  1.680   1.862   1.907   2.024   2.288   2.358   2.373   2.420
  2.460   2.486   2.510   2.531   2.553   2.562   2.587   2.646
  2.663   2.678   2.710   2.736   2.788   2.796   2.855   2.906
  2.911   2.973   2.997   2.998   3.049   3.059   3.093   3.098
  3.124   3.186   3.190   3.249   3.314   3.326   3.460   3.469
  3.493   3.515   3.516   3.550   3.561   3.736   3.772   3.797
  3.853   3.899   3.984   3.988   4.016   4.096   4.190   4.196
  4.254   4.337   4.387   4.503   4.541   4.601   4.633   4.639
  4.714   4.953   5.042   5.075   5.209   5.355   5.422   5.678
  5.979   5.998   6.268   6.928  23.727  24.281  24.496  26.915
 27.065  27.173  27.242  27.801  27.858  27.904  28.062  28.932
 35.932  37.276  37.378  38.056  40.185  40.280  40.337  40.408
 40.426  40.505  40.611  40.626  40.692  40.774  40.799  40.825
 40.832  40.834  40.898  40.948  40.981  41.034  41.079  41.541
 
 Beta MOs
 -- Occupied --
-14.483 -10.463 -10.446 -10.415  -1.319  -1.240  -1.062  -0.942
 -0.883  -0.797  -0.739  -0.735  -0.722
 -- Virtual --
 -0.398  -0.196  -0.132  -0.101  -0.088  -0.078  -0.055  -0.041
 -0.034  -0.033  -0.016  -0.007   0.004   0.009   0.014   0.027
  0.033   0.043   0.057   0.091   0.095   0.119   0.136   0.163
  0.172   0.184   0.226   0.236   0.295   0.351   0.359   0.375
  0.397   0.407   0.435   0.453   0.456   0.484   0.490   0.492
  0.521   0.545   0.581   0.584   0.596   0.642   0.646   0.686
  0.745   0.759   0.760   0.780   0.818   0.868   0.884   0.891
  0.966   0.995   1.059   1.062   1.064   1.121   1.160   1.217
  1.220   1.272   1.296   1.319   1.380   1.388   1.492   1.503
  1.669   1.683   1.867   1.912   2.031   2.295   2.365   2.396
  2.437   2.498   2.503   2.515   2.541   2.552   2.567   2.587
  2.653   2.674   2.685   2.724   2.740   2.808   2.819   2.872
  2.920   2.924   2.984   3.005   3.007   3.056   3.076   3.099
  3.110   3.145   3.198   3.203   3.256   3.320   3.340   3.482
  3.483   3.518   3.527   3.544   3.565   3.577   3.740   3.801
  3.808   3.858   3.906   3.989   3.994   4.024   4.106   4.204
  4.209   4.263   4.356   4.392   4.512   4.564   4.604   4.671
  4.673   4.729   4.963   5.065   5.081   5.213   5.358   5.425
  5.682   6.000   6.003   6.271   6.933  23.734  24.280  24.502
 26.932  27.071  27.179  27.240  27.803  27.862  27.908  28.065
 28.932  35.941  37.298  37.384  38.061  40.205  40.298  40.340
 40.424  40.429  40.513  40.610  40.639  40.699  40.784  40.812
 40.824  40.830  40.844  40.909  40.952  40.983  41.034  41.080
 41.542
 --------------------------------------------------------------
 
          Ground-State Mulliken Net Atomic Charges

     Atom                 Charge (a.u.)    Spin (a.u.)
  --------------------------------------------------------
      1 C                     0.032822       0.476902
      2 C                     0.382314       0.268475
      3 C                     0.037350      -0.102992
      4 H                     0.189948      -0.014889
      5 H                     0.199115      -0.015610
      6 H                     0.207562      -0.009617
      7 N                    -0.049111       0.397732
  --------------------------------------------------------
  Sum of atomic charges =     1.000000
  Sum of spin   charges =     1.000000

 -----------------------------------------------------------------
                    Cartesian Multipole Moments
 -----------------------------------------------------------------
    Charge (ESU x 10^10)
                 4.8032
    Dipole Moment (Debye)
         X      -0.1664      Y       0.0005      Z       3.3790
       Tot       3.3831
    Quadrupole Moments (Debye-Ang)
        XX     -18.8310     XY      -0.0012     YY     -20.6269
        XZ      -0.8823     YZ       0.0026     ZZ     -12.8851
    Octapole Moments (Debye-Ang^2)
       XXX     -54.4824    XXY      -0.0053    XYY     -15.8018
       YYY       0.0007    XXZ     -33.1740    XYZ      -0.0020
       YYZ     -30.2629    XZZ     -20.3737    YZZ       0.0122
       ZZZ     -81.4483
    Hexadecapole Moments (Debye-Ang^3)
      XXXX    -227.8909   XXXY      -0.0199   XXYY     -37.9857
      XYYY      -0.0007   YYYY     -18.7557   XXXZ    -142.4777
      XXYZ      -0.0077   XYYZ     -40.1616   YYYZ       0.0017
      XXZZ    -117.4795   XYZZ       0.0064   YYZZ     -75.2312
      XZZZ    -141.7033   YZZZ       0.0442   ZZZZ    -432.0839
 -----------------------------------------------------------------
 Total job time:  135.96s(wall), 135.06s(cpu) 
 Wed May 22 11:41:42 2013

        *************************************************************
        *                                                           *
        *  Thank you very much for using Q-Chem.  Have a nice day.  *
        *                                                           *
        *************************************************************


0 sent ACK to 0 
now end server 0 ... 
