Process 0 of 1 is on cl193.stfx.acenet.ca - thread support 1
initial socket setup ...start
initial socket setup ...done 
now start server 0 ... 

cmd = /usr/bin/ssh clhead /usr/local/qchem/bin/get_hostid 537869598 > /scratch/tmp/4825292.1.medium.q/qchem14274/lic.dat
                  Welcome to Q-Chem
     A Quantum Leap Into The Future Of Chemistry

 Y. Shao, L. Fusti-Molnar, Y. Jung, J. Kussmann, C. Ochsenfeld,
 S. T. Brown, A. T. B. Gilbert, L. V. Slipchenko,S. V. Levchenko,
 D. P. O'Neill, R. A. DiStasio Jr., R. C. Lochan, T. Wang,
 G. J. O. Beran, N. A. Besley, J. M. Herbert, C. Y. Lin,
 T. Van Voorhis, S. H. Chien, A. Sodt, R. P. Steele, 
 V. A. Rassolov, P. E. Maslen, P. P. Korambath, R. D. Adamson,
 B. Austin, J. Baker, E. F. C. Byrd, H. Dachsel, R. J. Doerksen,
 A. Dreuw, B. D. Dunietz, A. D. Dutoi, T. R. Furlani,
 S. R. Gwaltney, A. Heyden, S. Hirata, C.-P. Hsu, G. Kedziora,
 R. Z. Khaliullin, P. Klunzinger, A. M. Lee, M. S. Lee, W. Liang,
 I. Lotan, N. Nair, B. Peters, E. I. Proynov, P. A. Pieniazek, 
 Y. M. Rhee, J. Ritchie, E. Rosta, C. D. Sherrill, 
 A. C. Simmonett, J. E. Subotnik, H. L. Woodcock III,
 W. Zhang, A. T. Bell, A. K. Chakraborty, D. M. Chipman,
 F. J. Keil, A. Warshel, W. J. Hehre, H. F. Schaefer III,
 J. Kong, A. I. Krylov, P. M. W. Gill, M. Head-Gordon,
 Q-Chem, Version 3.1, Q-Chem, Inc., Pittsburgh, PA (2007).

 Additional authors for Version 3.1: 
 Z. Gan, Y. Zhao, N. E. Schultz, D. Truhlar, E. Epifanovsky and M. Oana.

 Additional authors for Version 3.2: 
 R. Baer, B. R. Brooks, D. Casanova, J.-D. Chai, C.-L. Cheng, 
 C. Cramer, D. Crittenden, A. Ghysels, G. Hawkins, E. G. Hohenstein, 
 C. Kelley, W. Kurlancheek, D. Liotard, E. Livshits, P. Manohar, 
 A. Marenich, D. Neuhauser, R. Olson, M. A. Rohrdanz, K. S. Thanthiriwatte, 
 A. J. W. Thom, V. Vanovschi, C. F. Williams, Q. Wu and Z.-Q. You. 


 Intel X86 Linux Version

 Q-chem begins on Mon Nov 14 15:01:47 2011  

 Parallel job on  1  processors
Processing $rem in /usr/local/qchem/config/preferences.

theFileMan(): MAXOPENFILES=974 MAX_SUB_FILE_NUM=16
Maximum size of a physical file is 2.0 GB, maximum size of a tmp-file is 32.0 GB


--------------------------------------------------------------
User input:
--------------------------------------------------------------

$molecule
-1,1
Cl
O,1,R

R=1.61959205

$end

$comment
negative
$end

$xc_functional
   X HF 1.0
   X BNL 1.0
   C LYP 1.0
$end

$rem
SYMMETRY_DECOMPOSITION	0
exchange 		general
BASIS                   g3large
omega			100
separate_jk		true
mem_static              760
max_scf_cycles          200
scf_final_print         1
sym_ignore              true
$end

--------------------------------------------------------------
 Writing REM_CC_EA            2
 ----------------------------------------------------
       Standard Nuclear Orientation (Angstroms)
    I     Atom         X            Y            Z
 ----------------------------------------------------
    1      Cl      0.000000     0.000000     0.000000
    2      O       0.000000     0.000000     1.619592
 ----------------------------------------------------
 Nuclear Repulsion Energy =    44.4359434024 hartrees
 There are       13 alpha and       13 beta electrons
 Requested basis set is G3large
 There are 29 shells and 108 basis functions

Total QAlloc Memory Limit   2000 MB
Mega-Array Size       743 MB
MEM_STATIC part       760 MB

                       Distance Matrix (Angstroms)
             Cl(  1)
   O (  2)  1.619592
 
 A cutoff of  1.0D-08 yielded    413 shell pairs
 There are   5908 function pairs (  8221 Cartesian)
Evaluating contribution to one-electron hamiltonian from nuclear
 Smallest overlap matrix eigenvalue = 3.44E-03
 Multipole matrices computed through 2nd order

  Scale SEOQF with 1.000000e-01/1.000000e-01/1.000000e-01

 Standard Electronic Orientation quadrupole field applied
 Nucleus-field energy     =    -0.0000000022 hartrees
 Guess from superposition of atomic densities
 Warning:  Energy on first SCF cycle will be non-variational
 A restricted hybrid HF-DFT SCF calculation will be
 performed using Pulay DIIS extrapolation
 Exchange:     1.0000 Hartree-Fock + 1.0000 BNL
 Correlation:  1.0000 LYP
 Using SG-1 standard quadrature grid
 SCF converges when DIIS error is below 1.0E-05
 Warning!  Inaccurate integrated density:
   Number of electrons =    26
   Numerical integral  =    25.000136978023
   Relative error      =    -3.8456270076 %
 ---------------------------------------
  Cycle       Energy         DIIS Error
 ---------------------------------------
    1    -532.5562929233      3.26E-02
    2    -532.4296117776      9.86E-03
    3    -532.0588671814      2.07E-02
    4    -532.5549370835      1.62E-03
    5    -532.5572120867      6.67E-04
    6    -532.5576424063      1.56E-04
    7    -532.5576675139      4.09E-05
    8    -532.5576699610      1.06E-05
    9    -532.5576704319      3.11E-06 Convergence criterion met
 ---------------------------------------
 One-Electron    Energy =  -833.7664446331
 Total Coulomb   Energy =   290.8192063732
 Alpha Exchange  Energy =    -0.7269869220
 Beta  Exchange  Energy =    -0.7269869220
 DFT   Exchange  Energy =   -31.5678191342
 DFT Correlation Energy =    -1.0245825941
 Nuclear Repu.   Energy =    44.4359434002
 Nuclear Attr.   Energy = -1365.7751745545
 Kinetic         Energy =   532.0087299214
 SCF time:  CPU 21.25 s  wall 48.55 s
 Final Alpha MO Eigenvalues
            1           2           3           4           5           6
    1-100.1108539 -18.3455750  -8.9547271  -6.8141640  -6.8029255  -6.8029252
            7           8           9          10          11          12
    1  -0.6977835  -0.4511849  -0.1756794  -0.1405991  -0.1405987   0.0180037
           13          14          15          16          17          18
    1   0.0180040   0.2089851   0.2247329   0.2572755   0.2572756   0.3085536
 Analysis of SCF Wavefunction
 
 --------------------------------------------------------------
                    Orbital Energies (a.u.)
 --------------------------------------------------------------
 
 Alpha MOs
 -- Occupied --
******* -18.346  -8.955  -6.814  -6.803  -6.803  -0.698  -0.451
 -0.176  -0.141  -0.141   0.018   0.018
 -- Virtual --
  0.209   0.225   0.257   0.257   0.309   0.385   0.425   0.425
  0.513   0.515   0.515   0.583   0.583   0.672   0.709   0.714
  0.714   1.217   1.245   1.266   1.266   1.281   1.281   1.298
  1.298   1.337   1.337   1.358   1.358   1.364   1.464   1.464
  1.773   1.807   1.919   1.919   2.211   2.211   2.433   2.453
  2.453   2.874   4.451   4.495   4.495   4.528   4.529   4.530
  4.530   4.972   5.003   5.003   5.107   5.107   5.149   5.151
  5.305   5.305   5.335   5.335   5.419   5.666   5.666   6.318
  6.998   6.998   7.269   7.269   7.786   9.859  20.610  20.610
 20.868  27.172  27.283  27.318  27.318  27.458  36.933  36.933
 36.936  36.937  36.941  36.941  36.961  43.763  43.853  43.936
 43.936  43.963  45.796  45.796  46.016  50.127 216.221
 --------------------------------------------------------------
 
          Ground-State Mulliken Net Atomic Charges

     Atom                 Charge (a.u.)
  ----------------------------------------
      1 Cl                   -0.321835
      2 O                    -0.678165
  ----------------------------------------
  Sum of atomic charges =    -1.000000

 -----------------------------------------------------------------
                    Cartesian Multipole Moments
 -----------------------------------------------------------------
    Charge (ESU x 10^10)
                -4.8032
    Dipole Moment (Debye)
         X       0.0004      Y       0.0003      Z      -4.6052
       Tot       4.6052
    Quadrupole Moments (Debye-Ang)
        XX     -22.6672     XY       0.0000     YY     -22.6672
        XZ      -0.0004     YZ      -0.0001     ZZ     -30.4103
    Octapole Moments (Debye-Ang^2)
       XXX       0.0016    XXY       0.0003    XYY       0.0005
       YYY       0.0010    XXZ     -10.9032    XYZ       0.0000
       YYZ     -10.9032    XZZ       0.0006    YZZ       0.0012
       ZZZ     -48.8375
    Hexadecapole Moments (Debye-Ang^3)
      XXXX     -33.4877   XXXY       0.0000   XXYY     -11.1617
      XYYY       0.0000   YYYY     -33.4878   XXXZ      -0.0015
      XXYZ      -0.0002   XYYZ      -0.0005   YYYZ      -0.0005
      XXZZ     -30.7722   XYZZ       0.0000   YYZZ     -30.7722
      XZZZ      -0.0013   YZZZ       0.0006   ZZZZ    -161.0271
 -----------------------------------------------------------------
 Total job time:  49.12s(wall), 21.36s(cpu) 
 Mon Nov 14 15:02:36 2011

        *************************************************************
        *                                                           *
        *  Thank you very much for using Q-Chem.  Have a nice day.  *
        *                                                           *
        *************************************************************


0 sent ACK to 0 
now end server 0 ... 
 
**********************************************************************
Job 2 of 3 
**********************************************************************
 
Process 0 of 1 is on cl193.stfx.acenet.ca - thread support 1
initial socket setup ...start
initial socket setup ...done 
now start server 0 ... 

cmd = /usr/bin/ssh clhead /usr/local/qchem/bin/get_hostid 1601393814 > /scratch/tmp/4825292.1.medium.q/qchem14274/lic.dat
                  Welcome to Q-Chem
     A Quantum Leap Into The Future Of Chemistry

 Y. Shao, L. Fusti-Molnar, Y. Jung, J. Kussmann, C. Ochsenfeld,
 S. T. Brown, A. T. B. Gilbert, L. V. Slipchenko,S. V. Levchenko,
 D. P. O'Neill, R. A. DiStasio Jr., R. C. Lochan, T. Wang,
 G. J. O. Beran, N. A. Besley, J. M. Herbert, C. Y. Lin,
 T. Van Voorhis, S. H. Chien, A. Sodt, R. P. Steele, 
 V. A. Rassolov, P. E. Maslen, P. P. Korambath, R. D. Adamson,
 B. Austin, J. Baker, E. F. C. Byrd, H. Dachsel, R. J. Doerksen,
 A. Dreuw, B. D. Dunietz, A. D. Dutoi, T. R. Furlani,
 S. R. Gwaltney, A. Heyden, S. Hirata, C.-P. Hsu, G. Kedziora,
 R. Z. Khaliullin, P. Klunzinger, A. M. Lee, M. S. Lee, W. Liang,
 I. Lotan, N. Nair, B. Peters, E. I. Proynov, P. A. Pieniazek, 
 Y. M. Rhee, J. Ritchie, E. Rosta, C. D. Sherrill, 
 A. C. Simmonett, J. E. Subotnik, H. L. Woodcock III,
 W. Zhang, A. T. Bell, A. K. Chakraborty, D. M. Chipman,
 F. J. Keil, A. Warshel, W. J. Hehre, H. F. Schaefer III,
 J. Kong, A. I. Krylov, P. M. W. Gill, M. Head-Gordon,
 Q-Chem, Version 3.1, Q-Chem, Inc., Pittsburgh, PA (2007).

 Additional authors for Version 3.1: 
 Z. Gan, Y. Zhao, N. E. Schultz, D. Truhlar, E. Epifanovsky and M. Oana.

 Additional authors for Version 3.2: 
 R. Baer, B. R. Brooks, D. Casanova, J.-D. Chai, C.-L. Cheng, 
 C. Cramer, D. Crittenden, A. Ghysels, G. Hawkins, E. G. Hohenstein, 
 C. Kelley, W. Kurlancheek, D. Liotard, E. Livshits, P. Manohar, 
 A. Marenich, D. Neuhauser, R. Olson, M. A. Rohrdanz, K. S. Thanthiriwatte, 
 A. J. W. Thom, V. Vanovschi, C. F. Williams, Q. Wu and Z.-Q. You. 


 Intel X86 Linux Version

 Q-chem begins on Mon Nov 14 15:02:44 2011  

 Parallel job on  1  processors
Processing $rem in /usr/local/qchem/config/preferences.

theFileMan(): MAXOPENFILES=974 MAX_SUB_FILE_NUM=16
Maximum size of a physical file is 2.0 GB, maximum size of a tmp-file is 32.0 GB


--------------------------------------------------------------
User input:
--------------------------------------------------------------

$molecule
0,2
Cl
O,1,R

R=1.61959205

$end

$comment
neutral
$end

$xc_functional
   X HF 1.0
   X BNL 1.0
   C LYP 1.0
$end

$rem
SYMMETRY_DECOMPOSITION	0
exchange 		general
BASIS                   g3large
omega			100
separate_jk		true
mem_static              760
max_scf_cycles          200
scf_final_print         1
sym_ignore              true
$end

--------------------------------------------------------------
 Writing REM_CC_EA            2
 ----------------------------------------------------
       Standard Nuclear Orientation (Angstroms)
    I     Atom         X            Y            Z
 ----------------------------------------------------
    1      Cl      0.000000     0.000000     0.000000
    2      O       0.000000     0.000000     1.619592
 ----------------------------------------------------
 Nuclear Repulsion Energy =    44.4359434024 hartrees
 There are       13 alpha and       12 beta electrons
 Requested basis set is G3large
 There are 29 shells and 108 basis functions

Total QAlloc Memory Limit   2000 MB
Mega-Array Size       743 MB
MEM_STATIC part       760 MB

                       Distance Matrix (Angstroms)
             Cl(  1)
   O (  2)  1.619592
 
 A cutoff of  1.0D-08 yielded    413 shell pairs
 There are   5908 function pairs (  8221 Cartesian)
Evaluating contribution to one-electron hamiltonian from nuclear
 Smallest overlap matrix eigenvalue = 3.44E-03
 Multipole matrices computed through 2nd order

  Scale SEOQF with 1.000000e-01/1.000000e-01/1.000000e-01

 Standard Electronic Orientation quadrupole field applied
 Nucleus-field energy     =    -0.0000000022 hartrees
 Guess from superposition of atomic densities
 Warning:  Energy on first SCF cycle will be non-variational
 An unrestricted hybrid HF-DFT SCF calculation will be
 performed using Pulay DIIS extrapolation
 Exchange:     1.0000 Hartree-Fock + 1.0000 BNL
 Correlation:  1.0000 LYP
 Using SG-1 standard quadrature grid
 SCF converges when DIIS error is below 1.0E-05
 ---------------------------------------
  Cycle       Energy         DIIS Error
 ---------------------------------------
    1    -532.5562929233      3.26E-02
    2    -532.4285911793      6.23E-03
    3    -532.2256197418      1.41E-02
    4    -532.4811543215      1.38E-03
    5    -532.4829870820      5.16E-04
    6    -532.4833622878      1.13E-04
    7    -532.4833944248      5.84E-05
    8    -532.4834040182      1.19E-05
    9    -532.4834044114      2.36E-06 Convergence criterion met
 ---------------------------------------
 One-Electron    Energy =  -825.8234982989
 Total Coulomb   Energy =   282.6567314870
 Alpha Exchange  Energy =    -0.7281290778
 Beta  Exchange  Energy =    -0.6716235392
 DFT   Exchange  Energy =   -31.3609143857
 DFT Correlation Energy =    -0.9919139969
 Nuclear Repu.   Energy =    44.4359434002
 Nuclear Attr.   Energy = -1357.6147625732
 Kinetic         Energy =   531.7912642743
 <S^2> = 0.7524
 SCF time:  CPU 24.47 s  wall 46.19 s
 Final Alpha MO Eigenvalues
            1           2           3           4           5           6
    1-100.4247563 -18.7233229  -9.2679137  -7.1272151  -7.1212329  -7.1124911
            7           8           9          10          11          12
    1  -1.0357777  -0.7738060  -0.4972337  -0.4695088  -0.4397928  -0.3324750
           13          14          15          16          17          18
    1  -0.2968877  -0.0580811   0.0450499   0.0904198   0.0935454   0.1057036
 Final Beta MO Eigenvalues
            1           2           3           4           5           6
    1-100.4223017 -18.7041653  -9.2653713  -7.1257682  -7.1152293  -7.1104183
            7           8           9          10          11          12
    1  -1.0109122  -0.7498986  -0.4784988  -0.4325945  -0.4292745  -0.2799256
           13          14          15          16          17
    1  -0.1732638  -0.0440598   0.0465799   0.0918252   0.0940494
 Analysis of SCF Wavefunction
 
 --------------------------------------------------------------
                    Orbital Energies (a.u.)
 --------------------------------------------------------------
 
 Alpha MOs
 -- Occupied --
******* -18.723  -9.268  -7.127  -7.121  -7.112  -1.036  -0.774
 -0.497  -0.470  -0.440  -0.332  -0.297
 -- Virtual --
 -0.058   0.045   0.090   0.094   0.106   0.188   0.211   0.220
  0.247   0.247   0.299   0.310   0.323   0.438   0.455   0.473
  0.484   0.941   0.960   0.971   0.988   0.988   0.989   1.015
  1.016   1.039   1.060   1.084   1.084   1.099   1.161   1.179
  1.473   1.522   1.590   1.591   1.902   1.923   2.119   2.143
  2.163   2.581   4.136   4.175   4.192   4.218   4.218   4.219
  4.219   4.647   4.663   4.687   4.731   4.768   4.836   4.838
  4.939   4.939   4.981   4.985   5.079   5.318   5.343   5.984
  6.610   6.610   6.883   6.922   7.438   9.548  20.292  20.302
 20.556  26.858  26.969  27.001  27.008  27.145  36.619  36.621
 36.623  36.624  36.625  36.631  36.648  43.368  43.456  43.539
 43.566  43.586  45.402  45.428  45.646  49.750 215.908
 
 Beta MOs
 -- Occupied --
******* -18.704  -9.265  -7.126  -7.115  -7.110  -1.011  -0.750
 -0.478  -0.433  -0.429  -0.280
 -- Virtual --
 -0.173  -0.044   0.047   0.092   0.094   0.108   0.191   0.222
  0.223   0.257   0.257   0.303   0.322   0.326   0.444   0.462
  0.482   0.486   0.951   0.969   0.991   0.994   1.001   1.002
  1.025   1.025   1.066   1.068   1.095   1.095   1.106   1.178
  1.183   1.495   1.534   1.618   1.619   1.925   1.930   2.132
  2.165   2.169   2.591   4.148   4.193   4.197   4.231   4.231
  4.237   4.237   4.661   4.693   4.696   4.789   4.789   4.846
  4.849   4.985   4.985   5.017   5.018   5.102   5.349   5.354
  6.002   6.676   6.677   6.946   6.948   7.468   9.555  20.301
 20.305  20.558  26.863  26.975  27.006  27.009  27.148  36.622
 36.623  36.625  36.625  36.628  36.632  36.649  43.417  43.508
 43.586  43.589  43.615  45.440  45.442  45.660  49.773 215.910
 --------------------------------------------------------------
 
          Ground-State Mulliken Net Atomic Charges

     Atom                 Charge (a.u.)    Spin (a.u.)
  --------------------------------------------------------
      1 Cl                    0.173115       0.339692
      2 O                    -0.173115       0.660308
  --------------------------------------------------------
  Sum of atomic charges =     0.000000
  Sum of spin   charges =     1.000000

 -----------------------------------------------------------------
                    Cartesian Multipole Moments
 -----------------------------------------------------------------
    Charge (ESU x 10^10)
                 0.0000
    Dipole Moment (Debye)
         X       0.0000      Y       0.0000      Z      -1.4982
       Tot       1.4982
    Quadrupole Moments (Debye-Ang)
        XX     -18.2319     XY      -0.6673     YY     -17.6887
        XZ       0.0000     YZ       0.0000     ZZ     -19.3856
    Octapole Moments (Debye-Ang^2)
       XXX       0.0000    XXY       0.0000    XYY       0.0000
       YYY       0.0000    XXZ      -9.1567    XYZ      -0.4288
       YYZ      -8.8078    XZZ       0.0000    YZZ       0.0000
       ZZZ     -30.9797
    Hexadecapole Moments (Debye-Ang^3)
      XXXX     -19.4689   XXXY      -0.6358   XXYY      -6.3156
      XYYY      -0.6368   YYYY     -18.4331   XXXZ       0.0000
      XXYZ       0.0000   XYYZ       0.0000   YYYZ       0.0000
      XXZZ     -21.5243   XYZZ      -1.2138   YYZZ     -20.5363
      XZZZ      -0.0001   YZZZ      -0.0001   ZZZZ    -107.4106
 -----------------------------------------------------------------
 Total job time:  46.78s(wall), 24.59s(cpu) 
 Mon Nov 14 15:03:31 2011

        *************************************************************
        *                                                           *
        *  Thank you very much for using Q-Chem.  Have a nice day.  *
        *                                                           *
        *************************************************************


0 sent ACK to 0 
now end server 0 ... 
 
**********************************************************************
Job 3 of 3 
**********************************************************************
 
Process 0 of 1 is on cl193.stfx.acenet.ca - thread support 1
initial socket setup ...start
initial socket setup ...done 
now start server 0 ... 

cmd = /usr/bin/ssh clhead /usr/local/qchem/bin/get_hostid 2043403019 > /scratch/tmp/4825292.1.medium.q/qchem14274/lic.dat
                  Welcome to Q-Chem
     A Quantum Leap Into The Future Of Chemistry

 Y. Shao, L. Fusti-Molnar, Y. Jung, J. Kussmann, C. Ochsenfeld,
 S. T. Brown, A. T. B. Gilbert, L. V. Slipchenko,S. V. Levchenko,
 D. P. O'Neill, R. A. DiStasio Jr., R. C. Lochan, T. Wang,
 G. J. O. Beran, N. A. Besley, J. M. Herbert, C. Y. Lin,
 T. Van Voorhis, S. H. Chien, A. Sodt, R. P. Steele, 
 V. A. Rassolov, P. E. Maslen, P. P. Korambath, R. D. Adamson,
 B. Austin, J. Baker, E. F. C. Byrd, H. Dachsel, R. J. Doerksen,
 A. Dreuw, B. D. Dunietz, A. D. Dutoi, T. R. Furlani,
 S. R. Gwaltney, A. Heyden, S. Hirata, C.-P. Hsu, G. Kedziora,
 R. Z. Khaliullin, P. Klunzinger, A. M. Lee, M. S. Lee, W. Liang,
 I. Lotan, N. Nair, B. Peters, E. I. Proynov, P. A. Pieniazek, 
 Y. M. Rhee, J. Ritchie, E. Rosta, C. D. Sherrill, 
 A. C. Simmonett, J. E. Subotnik, H. L. Woodcock III,
 W. Zhang, A. T. Bell, A. K. Chakraborty, D. M. Chipman,
 F. J. Keil, A. Warshel, W. J. Hehre, H. F. Schaefer III,
 J. Kong, A. I. Krylov, P. M. W. Gill, M. Head-Gordon,
 Q-Chem, Version 3.1, Q-Chem, Inc., Pittsburgh, PA (2007).

 Additional authors for Version 3.1: 
 Z. Gan, Y. Zhao, N. E. Schultz, D. Truhlar, E. Epifanovsky and M. Oana.

 Additional authors for Version 3.2: 
 R. Baer, B. R. Brooks, D. Casanova, J.-D. Chai, C.-L. Cheng, 
 C. Cramer, D. Crittenden, A. Ghysels, G. Hawkins, E. G. Hohenstein, 
 C. Kelley, W. Kurlancheek, D. Liotard, E. Livshits, P. Manohar, 
 A. Marenich, D. Neuhauser, R. Olson, M. A. Rohrdanz, K. S. Thanthiriwatte, 
 A. J. W. Thom, V. Vanovschi, C. F. Williams, Q. Wu and Z.-Q. You. 


 Intel X86 Linux Version

 Q-chem begins on Mon Nov 14 15:03:40 2011  

 Parallel job on  1  processors
Processing $rem in /usr/local/qchem/config/preferences.

theFileMan(): MAXOPENFILES=974 MAX_SUB_FILE_NUM=16
Maximum size of a physical file is 2.0 GB, maximum size of a tmp-file is 32.0 GB


--------------------------------------------------------------
User input:
--------------------------------------------------------------

$molecule
1,3
Cl
O,1,R

R=1.61959205

$end

$comment
positive
$end

$xc_functional
   X HF 1.0
   X BNL 1.0
   C LYP 1.0
$end

$rem
SYMMETRY_DECOMPOSITION	0
exchange 		general
BASIS                   g3large
omega			100
separate_jk		true
mem_static              760
max_scf_cycles          200
scf_final_print         1
sym_ignore              true
$end

--------------------------------------------------------------
 Writing REM_CC_EA            2
 ----------------------------------------------------
       Standard Nuclear Orientation (Angstroms)
    I     Atom         X            Y            Z
 ----------------------------------------------------
    1      Cl      0.000000     0.000000     0.000000
    2      O       0.000000     0.000000     1.619592
 ----------------------------------------------------
 Nuclear Repulsion Energy =    44.4359434024 hartrees
 There are       13 alpha and       11 beta electrons
 Requested basis set is G3large
 There are 29 shells and 108 basis functions

Total QAlloc Memory Limit   2000 MB
Mega-Array Size       743 MB
MEM_STATIC part       760 MB

                       Distance Matrix (Angstroms)
             Cl(  1)
   O (  2)  1.619592
 
 A cutoff of  1.0D-08 yielded    413 shell pairs
 There are   5908 function pairs (  8221 Cartesian)
Evaluating contribution to one-electron hamiltonian from nuclear
 Smallest overlap matrix eigenvalue = 3.44E-03
 Multipole matrices computed through 2nd order

  Scale SEOQF with 1.000000e-01/1.000000e-01/1.000000e-01

 Standard Electronic Orientation quadrupole field applied
 Nucleus-field energy     =    -0.0000000022 hartrees
 Guess from superposition of atomic densities
 Warning:  Energy on first SCF cycle will be non-variational
 An unrestricted hybrid HF-DFT SCF calculation will be
 performed using Pulay DIIS extrapolation
 Exchange:     1.0000 Hartree-Fock + 1.0000 BNL
 Correlation:  1.0000 LYP
 Using SG-1 standard quadrature grid
 SCF converges when DIIS error is below 1.0E-05
 Warning!  Inaccurate integrated density:
   Number of electrons =    24
   Numerical integral  =    25.000136978023
   Relative error      =     4.1672374084 %
 ---------------------------------------
  Cycle       Energy         DIIS Error
 ---------------------------------------
    1    -532.5562929233      3.26E-02
    2    -532.0105811617      6.92E-03
    3    -531.9437849888      1.05E-02
    4    -532.0227590961      7.23E-03
    5    -532.0902841750      7.96E-04
    6    -532.0913153694      9.13E-05
    7    -532.0913402621      8.18E-05
    8    -532.0913524491      3.52E-05
    9    -532.0913560557      1.47E-06 Convergence criterion met
 ---------------------------------------
 One-Electron    Energy =  -816.6071039426
 Total Coulomb   Energy =   273.4694841009
 Alpha Exchange  Energy =    -0.7287736195
 Beta  Exchange  Energy =    -0.6156231461
 DFT   Exchange  Energy =   -31.0901846698
 DFT Correlation Energy =    -0.9550981788
 Nuclear Repu.   Energy =    44.4359434002
 Nuclear Attr.   Energy = -1347.8825228844
 Kinetic         Energy =   531.2754189418
 <S^2> = 2.0056
 SCF time:  CPU 24.28 s  wall 47.08 s
 Final Alpha MO Eigenvalues
            1           2           3           4           5           6
    1-100.8118250 -19.1462769  -9.6492202  -7.5073162  -7.5006755  -7.5006684
            7           8           9          10          11          12
    1  -1.4143414  -1.1402668  -0.8579166  -0.8190423  -0.8190355  -0.6834342
           13          14          15          16          17          18
    1  -0.6834335  -0.4017690  -0.1598549  -0.0912862  -0.0912857  -0.0839994
 Final Beta MO Eigenvalues
            1           2           3           4           5           6
    1-100.8053852 -19.1093387  -9.6426000  -7.5033312  -7.4902458  -7.4902439
            7           8           9          10          11          12
    1  -1.3646457  -1.0900300  -0.8193221  -0.7632042  -0.7632031  -0.5082621
           13          14          15          16
    1  -0.5082591  -0.3695003  -0.1551585  -0.0883310
 Analysis of SCF Wavefunction
 
 --------------------------------------------------------------
                    Orbital Energies (a.u.)
 --------------------------------------------------------------
 
 Alpha MOs
 -- Occupied --
******* -19.146  -9.649  -7.507  -7.501  -7.501  -1.414  -1.140
 -0.858  -0.819  -0.819  -0.683  -0.683
 -- Virtual --
 -0.402  -0.160  -0.091  -0.091  -0.084  -0.057  -0.057  -0.036
 -0.036  -0.021   0.051   0.051   0.085   0.158   0.215   0.231
  0.231   0.630   0.651   0.651   0.666   0.667   0.667   0.703
  0.703   0.745   0.745   0.778   0.778   0.813   0.844   0.844
  1.149   1.217   1.242   1.242   1.582   1.582   1.768   1.818
  1.818   2.256   3.776   3.822   3.822   3.846   3.846   3.852
  3.852   4.276   4.298   4.298   4.364   4.364   4.464   4.466
  4.548   4.548   4.606   4.606   4.699   4.956   4.956   5.604
  6.192   6.193   6.504   6.504   7.054   9.177  19.916  19.916
 20.179  26.474  26.586  26.624  26.624  26.765  36.239  36.239
 36.242  36.243  36.248  36.248  36.268  42.931  43.021  43.127
 43.127  43.162  44.989  44.989  45.231  49.328 215.522
 
 Beta MOs
 -- Occupied --
******* -19.109  -9.643  -7.503  -7.490  -7.490  -1.365  -1.090
 -0.819  -0.763  -0.763
 -- Virtual --
 -0.508  -0.508  -0.370  -0.155  -0.088  -0.088  -0.080  -0.032
 -0.032  -0.016  -0.015  -0.015   0.060   0.060   0.090   0.174
  0.224   0.242   0.242   0.651   0.681   0.683   0.683   0.690
  0.690   0.725   0.725   0.778   0.778   0.804   0.804   0.827
  0.867   0.867   1.189   1.240   1.295   1.295   1.614   1.614
  1.793   1.847   1.847   2.275   3.802   3.848   3.848   3.884
  3.885   3.894   3.894   4.304   4.339   4.339   4.434   4.434
  4.488   4.491   4.635   4.635   4.667   4.667   4.749   4.997
  4.997   5.641   6.317   6.318   6.587   6.587   7.113   9.192
 19.930  19.930  20.184  26.488  26.599  26.632  26.632  26.772
 36.244  36.244  36.247  36.248  36.252  36.252  36.272  43.026
 43.116  43.194  43.194  43.220  45.040  45.040  45.259  49.374
215.529
 --------------------------------------------------------------
 
          Ground-State Mulliken Net Atomic Charges

     Atom                 Charge (a.u.)    Spin (a.u.)
  --------------------------------------------------------
      1 Cl                    0.720427       0.807842
      2 O                     0.279573       1.192158
  --------------------------------------------------------
  Sum of atomic charges =     1.000000
  Sum of spin   charges =     2.000000

 -----------------------------------------------------------------
                    Cartesian Multipole Moments
 -----------------------------------------------------------------
    Charge (ESU x 10^10)
                 4.8032
    Dipole Moment (Debye)
         X       0.0000      Y       0.0000      Z       1.3526
       Tot       1.3526
    Quadrupole Moments (Debye-Ang)
        XX     -14.7382     XY       0.0000     YY     -14.7382
        XZ       0.0000     YZ       0.0000     ZZ     -10.7066
    Octapole Moments (Debye-Ang^2)
       XXX       0.0000    XXY       0.0000    XYY       0.0000
       YYY       0.0000    XXZ      -7.6351    XYZ       0.0001
       YYZ      -7.6352    XZZ       0.0000    YZZ       0.0000
       ZZZ     -16.8159
    Hexadecapole Moments (Debye-Ang^3)
      XXXX     -12.6190   XXXY       0.0000   XXYY      -4.2059
      XYYY       0.0000   YYYY     -12.6190   XXXZ       0.0000
      XXYZ       0.0000   XYYZ       0.0000   YYYZ       0.0000
      XXZZ     -16.0071   XYZZ       0.0002   YYZZ     -16.0071
      XZZZ       0.0000   YZZZ       0.0000   ZZZZ     -71.1963
 -----------------------------------------------------------------
 Total job time:  48.19s(wall), 24.40s(cpu) 
 Mon Nov 14 15:04:28 2011

        *************************************************************
        *                                                           *
        *  Thank you very much for using Q-Chem.  Have a nice day.  *
        *                                                           *
        *************************************************************


0 sent ACK to 0 
now end server 0 ... 
