Process 0 of 1 is on cl128.stfx.acenet.ca - thread support 1
initial socket setup ...start
initial socket setup ...done 
now start server 0 ... 

cmd = /usr/bin/ssh clhead /usr/local/qchem/bin/get_hostid 1359375339 > /scratch/tmp/5955431.1.short.q/qchem18949/lic.dat
                  Welcome to Q-Chem
     A Quantum Leap Into The Future Of Chemistry

 Y. Shao, L. Fusti-Molnar, Y. Jung, J. Kussmann, C. Ochsenfeld,
 S. T. Brown, A. T. B. Gilbert, L. V. Slipchenko,S. V. Levchenko,
 D. P. O'Neill, R. A. DiStasio Jr., R. C. Lochan, T. Wang,
 G. J. O. Beran, N. A. Besley, J. M. Herbert, C. Y. Lin,
 T. Van Voorhis, S. H. Chien, A. Sodt, R. P. Steele, 
 V. A. Rassolov, P. E. Maslen, P. P. Korambath, R. D. Adamson,
 B. Austin, J. Baker, E. F. C. Byrd, H. Dachsel, R. J. Doerksen,
 A. Dreuw, B. D. Dunietz, A. D. Dutoi, T. R. Furlani,
 S. R. Gwaltney, A. Heyden, S. Hirata, C.-P. Hsu, G. Kedziora,
 R. Z. Khaliullin, P. Klunzinger, A. M. Lee, M. S. Lee, W. Liang,
 I. Lotan, N. Nair, B. Peters, E. I. Proynov, P. A. Pieniazek, 
 Y. M. Rhee, J. Ritchie, E. Rosta, C. D. Sherrill, 
 A. C. Simmonett, J. E. Subotnik, H. L. Woodcock III,
 W. Zhang, A. T. Bell, A. K. Chakraborty, D. M. Chipman,
 F. J. Keil, A. Warshel, W. J. Hehre, H. F. Schaefer III,
 J. Kong, A. I. Krylov, P. M. W. Gill, M. Head-Gordon,
 Q-Chem, Version 3.1, Q-Chem, Inc., Pittsburgh, PA (2007).

 Additional authors for Version 3.1: 
 Z. Gan, Y. Zhao, N. E. Schultz, D. Truhlar, E. Epifanovsky and M. Oana.

 Additional authors for Version 3.2: 
 R. Baer, B. R. Brooks, D. Casanova, J.-D. Chai, C.-L. Cheng, 
 C. Cramer, D. Crittenden, A. Ghysels, G. Hawkins, E. G. Hohenstein, 
 C. Kelley, W. Kurlancheek, D. Liotard, E. Livshits, P. Manohar, 
 A. Marenich, D. Neuhauser, R. Olson, M. A. Rohrdanz, K. S. Thanthiriwatte, 
 A. J. W. Thom, V. Vanovschi, C. F. Williams, Q. Wu and Z.-Q. You. 


 Intel X86 Linux Version

 Q-chem begins on Tue Apr 30 20:50:06 2013  

 Parallel job on  1  processors
Processing $rem in /usr/local/qchem/config/preferences.

theFileMan(): MAXOPENFILES=974 MAX_SUB_FILE_NUM=16
Maximum size of a physical file is 2.0 GB, maximum size of a tmp-file is 32.0 GB


--------------------------------------------------------------
User input:
--------------------------------------------------------------

$molecule
-1,1
C
H,1,RCH

RCH=1.13309913

$end

$comment
negative
$end

$xc_functional
C PBE   1.00
X wPBE  1.00
$end

$rem
SYMMETRY_DECOMPOSITION	0
exchange 		general
LRC_DFT                 true
BASIS                   g3large
omega			260
mem_static              760
max_scf_cycles          200
scf_final_print         1
sym_ignore              true
$end

--------------------------------------------------------------
 Writing REM_CC_EA            2
 ----------------------------------------------------
       Standard Nuclear Orientation (Angstroms)
    I     Atom         X            Y            Z
 ----------------------------------------------------
    1      C       0.000000     0.000000     0.000000
    2      H       0.000000     0.000000     1.133099
 ----------------------------------------------------
 Nuclear Repulsion Energy =     2.8021054652 hartrees
 There are        4 alpha and        4 beta electrons
 Requested basis set is G3large
 There are 16 shells and 52 basis functions

Total QAlloc Memory Limit   2000 MB
Mega-Array Size       743 MB
MEM_STATIC part       760 MB

                       Distance Matrix (Angstroms)
             C (  1)
   H (  2)  1.133099
 
 A cutoff of  1.0D-08 yielded    136 shell pairs
 There are   1462 function pairs (  1834 Cartesian)
Evaluating contribution to one-electron hamiltonian from nuclear
 Smallest overlap matrix eigenvalue = 4.17E-03
 Multipole matrices computed through 2nd order

  Scale SEOQF with 1.000000e-01/1.000000e-01/1.000000e-01

 Standard Electronic Orientation quadrupole field applied
 Nucleus-field energy     =    -0.0000000001 hartrees
 Guess from superposition of atomic densities
 Warning:  Energy on first SCF cycle will be non-variational
 Long-range K will be added via erf
 Coulomb attenuation parameter = 0.26 bohr**(-1)
 A restricted Kohn-Sham SCF calculation will be
 performed using Pulay DIIS extrapolation
 Exchange:  wPBE + LR-HF      Correlation:  PBE
 Using SG-1 standard quadrature grid
 SCF converges when DIIS error is below 1.0E-05
 Requested basis set is G3large
 There are 16 shells and 52 basis functions
 A cutoff of  1.0D-08 yielded    136 shell pairs
 There are   1462 function pairs (  1834 Cartesian)
 Warning!  Inaccurate integrated density:
   Number of electrons =     8
   Numerical integral  =     7.000003590818
   Relative error      =   -12.4999551148 %
 ---------------------------------------
  Cycle       Energy         DIIS Error
 ---------------------------------------
    1     -38.2751603075      2.37E-02
    2     -38.3533239952      1.20E-02
    3     -38.4236352754      7.62E-03
    4     -38.4448988803      1.11E-03
    5     -38.4455521142      3.85E-04
    6     -38.4456775222      6.42E-05
    7     -38.4456872365      1.13E-05
    8     -38.4456875252      5.00E-06 Convergence criterion met
 ---------------------------------------
 One-Electron    Energy =   -58.7079966526
 Total Coulomb   Energy =    23.2046711050
 Alpha Exchange  Energy =    -0.5277951916
 Beta  Exchange  Energy =    -0.5277951916
 DFT   Exchange  Energy =    -4.4764980230
 DFT Correlation Energy =    -0.2123790363
 Nuclear Repu.   Energy =     2.8021054651
 Nuclear Attr.   Energy =   -97.0345452723
 Kinetic         Energy =    38.3265486196
 SCF time:  CPU 4.14 s  wall 5.73 s
 Final Alpha MO Eigenvalues
            1           2           3           4           5           6
    1  -9.8147045  -0.4151684  -0.1127192  -0.0005831   0.1866251   0.1956176
            7           8           9
    1   0.2908242   0.3071998   0.3082202
 Analysis of SCF Wavefunction
 
 --------------------------------------------------------------
                    Orbital Energies (a.u.)
 --------------------------------------------------------------
 
 Alpha MOs
 -- Occupied --
 -9.815  -0.415  -0.113  -0.001
 -- Virtual --
  0.187   0.196   0.291   0.307   0.308   0.342   0.427   0.751
  0.839   0.860   0.878   0.903   0.916   1.018   1.022   1.036
  1.323   1.354   1.369   1.716   2.659   2.952   2.977   3.149
  3.153   3.164   3.166   3.190   3.217   3.346   3.437   3.576
  3.585   3.654   3.678   3.990   4.361   4.375   5.433  23.655
 27.334  27.348  27.826  40.989  41.068  41.266  41.271  41.283
 --------------------------------------------------------------
 
          Ground-State Mulliken Net Atomic Charges

     Atom                 Charge (a.u.)
  ----------------------------------------
      1 C                    -1.006156
      2 H                     0.006156
  ----------------------------------------
  Sum of atomic charges =    -1.000000

 -----------------------------------------------------------------
                    Cartesian Multipole Moments
 -----------------------------------------------------------------
    Charge (ESU x 10^10)
                -4.8032
    Dipole Moment (Debye)
         X       0.0004      Y      -0.0002      Z       1.1684
       Tot       1.1684
    Quadrupole Moments (Debye-Ang)
        XX     -14.8502     XY      -4.5696     YY     -14.8452
        XZ      -0.0006     YZ       0.0008     ZZ     -13.2414
    Octapole Moments (Debye-Ang^2)
       XXX       0.0018    XXY      -0.0001    XYY       0.0006
       YYY      -0.0001    XXZ      -0.2805    XYZ      -0.1165
       YYZ      -0.2804    XZZ       0.0005    YZZ       0.0004
       ZZZ      -1.9828
    Hexadecapole Moments (Debye-Ang^3)
      XXXX     -49.3823   XXXY     -13.7526   XXYY     -16.4509
      XYYY     -13.7526   YYYY     -49.3520   XXXZ      -0.0009
      XXYZ       0.0007   XYYZ      -0.0003   YYYZ       0.0020
      XXZZ     -15.0225   XYZZ      -4.6328   YYZZ     -15.0174
      XZZZ      -0.0010   YZZZ       0.0023   ZZZZ     -41.3436
 -----------------------------------------------------------------
 Total job time:  6.00s(wall), 4.22s(cpu) 
 Tue Apr 30 20:50:12 2013

        *************************************************************
        *                                                           *
        *  Thank you very much for using Q-Chem.  Have a nice day.  *
        *                                                           *
        *************************************************************


0 sent ACK to 0 
now end server 0 ... 
 
**********************************************************************
Job 2 of 3 
**********************************************************************
 
Process 0 of 1 is on cl128.stfx.acenet.ca - thread support 1
initial socket setup ...start
initial socket setup ...done 
now start server 0 ... 

cmd = /usr/bin/ssh clhead /usr/local/qchem/bin/get_hostid 1836909494 > /scratch/tmp/5955431.1.short.q/qchem18949/lic.dat
                  Welcome to Q-Chem
     A Quantum Leap Into The Future Of Chemistry

 Y. Shao, L. Fusti-Molnar, Y. Jung, J. Kussmann, C. Ochsenfeld,
 S. T. Brown, A. T. B. Gilbert, L. V. Slipchenko,S. V. Levchenko,
 D. P. O'Neill, R. A. DiStasio Jr., R. C. Lochan, T. Wang,
 G. J. O. Beran, N. A. Besley, J. M. Herbert, C. Y. Lin,
 T. Van Voorhis, S. H. Chien, A. Sodt, R. P. Steele, 
 V. A. Rassolov, P. E. Maslen, P. P. Korambath, R. D. Adamson,
 B. Austin, J. Baker, E. F. C. Byrd, H. Dachsel, R. J. Doerksen,
 A. Dreuw, B. D. Dunietz, A. D. Dutoi, T. R. Furlani,
 S. R. Gwaltney, A. Heyden, S. Hirata, C.-P. Hsu, G. Kedziora,
 R. Z. Khaliullin, P. Klunzinger, A. M. Lee, M. S. Lee, W. Liang,
 I. Lotan, N. Nair, B. Peters, E. I. Proynov, P. A. Pieniazek, 
 Y. M. Rhee, J. Ritchie, E. Rosta, C. D. Sherrill, 
 A. C. Simmonett, J. E. Subotnik, H. L. Woodcock III,
 W. Zhang, A. T. Bell, A. K. Chakraborty, D. M. Chipman,
 F. J. Keil, A. Warshel, W. J. Hehre, H. F. Schaefer III,
 J. Kong, A. I. Krylov, P. M. W. Gill, M. Head-Gordon,
 Q-Chem, Version 3.1, Q-Chem, Inc., Pittsburgh, PA (2007).

 Additional authors for Version 3.1: 
 Z. Gan, Y. Zhao, N. E. Schultz, D. Truhlar, E. Epifanovsky and M. Oana.

 Additional authors for Version 3.2: 
 R. Baer, B. R. Brooks, D. Casanova, J.-D. Chai, C.-L. Cheng, 
 C. Cramer, D. Crittenden, A. Ghysels, G. Hawkins, E. G. Hohenstein, 
 C. Kelley, W. Kurlancheek, D. Liotard, E. Livshits, P. Manohar, 
 A. Marenich, D. Neuhauser, R. Olson, M. A. Rohrdanz, K. S. Thanthiriwatte, 
 A. J. W. Thom, V. Vanovschi, C. F. Williams, Q. Wu and Z.-Q. You. 


 Intel X86 Linux Version

 Q-chem begins on Tue Apr 30 20:50:15 2013  

 Parallel job on  1  processors
Processing $rem in /usr/local/qchem/config/preferences.

theFileMan(): MAXOPENFILES=974 MAX_SUB_FILE_NUM=16
Maximum size of a physical file is 2.0 GB, maximum size of a tmp-file is 32.0 GB


--------------------------------------------------------------
User input:
--------------------------------------------------------------

$molecule
0,2
C
H,1,RCH

RCH=1.13309913

$end

$comment
neutral
$end

$xc_functional
C PBE   1.00
X wPBE  1.00
$end


$rem
SYMMETRY_DECOMPOSITION	0
LRC_DFT                 true
exchange 		general
BASIS                   g3large
omega			260
mem_static              760
max_scf_cycles          200
scf_final_print         1
sym_ignore              true
$end

--------------------------------------------------------------
 Writing REM_CC_EA            2
 ----------------------------------------------------
       Standard Nuclear Orientation (Angstroms)
    I     Atom         X            Y            Z
 ----------------------------------------------------
    1      C       0.000000     0.000000     0.000000
    2      H       0.000000     0.000000     1.133099
 ----------------------------------------------------
 Nuclear Repulsion Energy =     2.8021054652 hartrees
 There are        4 alpha and        3 beta electrons
 Requested basis set is G3large
 There are 16 shells and 52 basis functions

Total QAlloc Memory Limit   2000 MB
Mega-Array Size       743 MB
MEM_STATIC part       760 MB

                       Distance Matrix (Angstroms)
             C (  1)
   H (  2)  1.133099
 
 A cutoff of  1.0D-08 yielded    136 shell pairs
 There are   1462 function pairs (  1834 Cartesian)
Evaluating contribution to one-electron hamiltonian from nuclear
 Smallest overlap matrix eigenvalue = 4.17E-03
 Multipole matrices computed through 2nd order

  Scale SEOQF with 1.000000e-01/1.000000e-01/1.000000e-01

 Standard Electronic Orientation quadrupole field applied
 Nucleus-field energy     =    -0.0000000001 hartrees
 Guess from superposition of atomic densities
 Warning:  Energy on first SCF cycle will be non-variational
 Long-range K will be added via erf
 Coulomb attenuation parameter = 0.26 bohr**(-1)
 An unrestricted Kohn-Sham SCF calculation will be
 performed using Pulay DIIS extrapolation
 Exchange:  wPBE + LR-HF      Correlation:  PBE
 Using SG-1 standard quadrature grid
 SCF converges when DIIS error is below 1.0E-05
 Requested basis set is G3large
 There are 16 shells and 52 basis functions
 A cutoff of  1.0D-08 yielded    136 shell pairs
 There are   1462 function pairs (  1834 Cartesian)
 ---------------------------------------
  Cycle       Energy         DIIS Error
 ---------------------------------------
    1     -38.2751603075      2.37E-02
    2     -38.4380764890      2.80E-03
    3     -38.4430583604      7.51E-04
    4     -38.4432901566      1.26E-04
    5     -38.4433329177      4.76E-05
    6     -38.4433372796      1.82E-05
    7     -38.4433383878      6.85E-06 Convergence criterion met
 ---------------------------------------
 One-Electron    Energy =   -56.5912098298
 Total Coulomb   Energy =    20.9187341749
 Alpha Exchange  Energy =    -0.5454974803
 Beta  Exchange  Energy =    -0.4106051066
 DFT   Exchange  Energy =    -4.4325808393
 DFT Correlation Energy =    -0.1842847718
 Nuclear Repu.   Energy =     2.8021054651
 Nuclear Attr.   Energy =   -94.9129176380
 Kinetic         Energy =    38.3217078082
 <S^2> = 0.7531
 SCF time:  CPU 3.88 s  wall 4.68 s
 Final Alpha MO Eigenvalues
            1           2           3           4           5           6
    1 -10.1398529  -0.7322714  -0.4065766  -0.3446953  -0.0793097   0.0409978
            7           8           9
    1   0.1179230   0.1193512   0.1213128
 Final Beta MO Eigenvalues
            1           2           3           4           5           6
    1 -10.1258215  -0.6901856  -0.3871714  -0.0610395  -0.0108739   0.0430889
            7           8
    1   0.1227229   0.1236527
 Analysis of SCF Wavefunction
 
 --------------------------------------------------------------
                    Orbital Energies (a.u.)
 --------------------------------------------------------------
 
 Alpha MOs
 -- Occupied --
-10.140  -0.732  -0.407  -0.345
 -- Virtual --
 -0.079   0.041   0.118   0.119   0.121   0.165   0.206   0.508
  0.592   0.596   0.603   0.632   0.638   0.719   0.726   0.768
  1.058   1.097   1.099   1.457   2.377   2.630   2.648   2.822
  2.824   2.826   2.829   2.889   2.893   3.042   3.135   3.222
  3.238   3.340   3.352   3.694   4.079   4.080   5.142  23.331
 27.007  27.012  27.507  40.652  40.744  40.930  40.949  40.951
 
 Beta MOs
 -- Occupied --
-10.126  -0.690  -0.387
 -- Virtual --
 -0.061  -0.011   0.043   0.123   0.124   0.138   0.172   0.213
  0.518   0.604   0.615   0.643   0.650   0.667   0.771   0.774
  0.799   1.073   1.103   1.124   1.466   2.389   2.662   2.714
  2.869   2.871   2.887   2.895   2.911   2.943   3.064   3.155
  3.314   3.317   3.360   3.407   3.710   4.078   4.095   5.150
 23.347  27.022  27.048  27.515  40.686  40.758  40.957  40.961
 40.979
 --------------------------------------------------------------
 
          Ground-State Mulliken Net Atomic Charges

     Atom                 Charge (a.u.)    Spin (a.u.)
  --------------------------------------------------------
      1 C                    -0.069454       1.018636
      2 H                     0.069454      -0.018636
  --------------------------------------------------------
  Sum of atomic charges =     0.000000
  Sum of spin   charges =     1.000000

 -----------------------------------------------------------------
                    Cartesian Multipole Moments
 -----------------------------------------------------------------
    Charge (ESU x 10^10)
                 0.0000
    Dipole Moment (Debye)
         X       0.0006      Y       0.0000      Z       1.5168
       Tot       1.5168
    Quadrupole Moments (Debye-Ang)
        XX      -6.8566     XY      -1.0427     YY      -6.8555
        XZ      -0.0010     YZ       0.0002     ZZ      -7.3014
    Octapole Moments (Debye-Ang^2)
       XXX       0.0011    XXY      -0.0001    XYY       0.0004
       YYY       0.0001    XXZ      -0.3918    XYZ      -0.0564
       YYZ      -0.3917    XZZ       0.0000    YZZ       0.0001
       ZZZ      -0.6250
    Hexadecapole Moments (Debye-Ang^3)
      XXXX      -8.5883   XXXY      -1.2540   XXYY      -2.8631
      XYYY      -1.2540   YYYY      -8.5857   XXXZ      -0.0013
      XXYZ       0.0001   XYYZ      -0.0004   YYYZ       0.0002
      XXZZ      -4.3202   XYZZ      -0.4297   YYZZ      -4.3197
      XZZZ      -0.0016   YZZZ       0.0002   ZZZZ     -15.8307
 -----------------------------------------------------------------
 Total job time:  4.85s(wall), 3.94s(cpu) 
 Tue Apr 30 20:50:20 2013

        *************************************************************
        *                                                           *
        *  Thank you very much for using Q-Chem.  Have a nice day.  *
        *                                                           *
        *************************************************************


0 sent ACK to 0 
now end server 0 ... 
 
**********************************************************************
Job 3 of 3 
**********************************************************************
 
Process 0 of 1 is on cl128.stfx.acenet.ca - thread support 1
initial socket setup ...start
initial socket setup ...done 
now start server 0 ... 

cmd = /usr/bin/ssh clhead /usr/local/qchem/bin/get_hostid 1860514950 > /scratch/tmp/5955431.1.short.q/qchem18949/lic.dat
                  Welcome to Q-Chem
     A Quantum Leap Into The Future Of Chemistry

 Y. Shao, L. Fusti-Molnar, Y. Jung, J. Kussmann, C. Ochsenfeld,
 S. T. Brown, A. T. B. Gilbert, L. V. Slipchenko,S. V. Levchenko,
 D. P. O'Neill, R. A. DiStasio Jr., R. C. Lochan, T. Wang,
 G. J. O. Beran, N. A. Besley, J. M. Herbert, C. Y. Lin,
 T. Van Voorhis, S. H. Chien, A. Sodt, R. P. Steele, 
 V. A. Rassolov, P. E. Maslen, P. P. Korambath, R. D. Adamson,
 B. Austin, J. Baker, E. F. C. Byrd, H. Dachsel, R. J. Doerksen,
 A. Dreuw, B. D. Dunietz, A. D. Dutoi, T. R. Furlani,
 S. R. Gwaltney, A. Heyden, S. Hirata, C.-P. Hsu, G. Kedziora,
 R. Z. Khaliullin, P. Klunzinger, A. M. Lee, M. S. Lee, W. Liang,
 I. Lotan, N. Nair, B. Peters, E. I. Proynov, P. A. Pieniazek, 
 Y. M. Rhee, J. Ritchie, E. Rosta, C. D. Sherrill, 
 A. C. Simmonett, J. E. Subotnik, H. L. Woodcock III,
 W. Zhang, A. T. Bell, A. K. Chakraborty, D. M. Chipman,
 F. J. Keil, A. Warshel, W. J. Hehre, H. F. Schaefer III,
 J. Kong, A. I. Krylov, P. M. W. Gill, M. Head-Gordon,
 Q-Chem, Version 3.1, Q-Chem, Inc., Pittsburgh, PA (2007).

 Additional authors for Version 3.1: 
 Z. Gan, Y. Zhao, N. E. Schultz, D. Truhlar, E. Epifanovsky and M. Oana.

 Additional authors for Version 3.2: 
 R. Baer, B. R. Brooks, D. Casanova, J.-D. Chai, C.-L. Cheng, 
 C. Cramer, D. Crittenden, A. Ghysels, G. Hawkins, E. G. Hohenstein, 
 C. Kelley, W. Kurlancheek, D. Liotard, E. Livshits, P. Manohar, 
 A. Marenich, D. Neuhauser, R. Olson, M. A. Rohrdanz, K. S. Thanthiriwatte, 
 A. J. W. Thom, V. Vanovschi, C. F. Williams, Q. Wu and Z.-Q. You. 


 Intel X86 Linux Version

 Q-chem begins on Tue Apr 30 20:50:23 2013  

 Parallel job on  1  processors
Processing $rem in /usr/local/qchem/config/preferences.

theFileMan(): MAXOPENFILES=974 MAX_SUB_FILE_NUM=16
Maximum size of a physical file is 2.0 GB, maximum size of a tmp-file is 32.0 GB


--------------------------------------------------------------
User input:
--------------------------------------------------------------

$molecule
1,1
C
H,1,RCH

RCH=1.13309913

$end

$comment
positive
$end

$xc_functional
C PBE   1.00
X wPBE  1.00
$end

$rem
SYMMETRY_DECOMPOSITION	0
LRC_DFT                 true
exchange 		general
BASIS                   g3large
omega			260
mem_static              760
max_scf_cycles          200
scf_final_print         1
sym_ignore              true
$end

--------------------------------------------------------------
 Writing REM_CC_EA            2
 ----------------------------------------------------
       Standard Nuclear Orientation (Angstroms)
    I     Atom         X            Y            Z
 ----------------------------------------------------
    1      C       0.000000     0.000000     0.000000
    2      H       0.000000     0.000000     1.133099
 ----------------------------------------------------
 Nuclear Repulsion Energy =     2.8021054652 hartrees
 There are        3 alpha and        3 beta electrons
 Requested basis set is G3large
 There are 16 shells and 52 basis functions

Total QAlloc Memory Limit   2000 MB
Mega-Array Size       743 MB
MEM_STATIC part       760 MB

                       Distance Matrix (Angstroms)
             C (  1)
   H (  2)  1.133099
 
 A cutoff of  1.0D-08 yielded    136 shell pairs
 There are   1462 function pairs (  1834 Cartesian)
Evaluating contribution to one-electron hamiltonian from nuclear
 Smallest overlap matrix eigenvalue = 4.17E-03
 Multipole matrices computed through 2nd order

  Scale SEOQF with 1.000000e-01/1.000000e-01/1.000000e-01

 Standard Electronic Orientation quadrupole field applied
 Nucleus-field energy     =    -0.0000000001 hartrees
 Guess from superposition of atomic densities
 Warning:  Energy on first SCF cycle will be non-variational
 Long-range K will be added via erf
 Coulomb attenuation parameter = 0.26 bohr**(-1)
 A restricted Kohn-Sham SCF calculation will be
 performed using Pulay DIIS extrapolation
 Exchange:  wPBE + LR-HF      Correlation:  PBE
 Using SG-1 standard quadrature grid
 SCF converges when DIIS error is below 1.0E-05
 Requested basis set is G3large
 There are 16 shells and 52 basis functions
 A cutoff of  1.0D-08 yielded    136 shell pairs
 There are   1462 function pairs (  1834 Cartesian)
 Warning!  Inaccurate integrated density:
   Number of electrons =     6
   Numerical integral  =     7.000003590818
   Relative error      =    16.6667265136 %
 ---------------------------------------
  Cycle       Energy         DIIS Error
 ---------------------------------------
    1     -38.2751603075      2.37E-02
    2     -37.9831787391      1.01E-02
    3     -38.0331063127      2.77E-03
    4     -38.0352185872      3.11E-04
    5     -38.0352579571      5.54E-05
    6     -38.0352616658      1.79E-05
    7     -38.0352625134      9.12E-06 Convergence criterion met
 ---------------------------------------
 One-Electron    Energy =   -53.5457114930
 Total Coulomb   Energy =    17.9442228307
 Alpha Exchange  Energy =    -0.4149011609
 Beta  Exchange  Energy =    -0.4149011609
 DFT   Exchange  Energy =    -4.2491636445
 DFT Correlation Energy =    -0.1569133499
 Nuclear Repu.   Energy =     2.8021054651
 Nuclear Attr.   Energy =   -91.5078108900
 Kinetic         Energy =    37.9620993970
 SCF time:  CPU 3.53 s  wall 4.40 s
 Final Alpha MO Eigenvalues
            1           2           3           4           5           6
    1 -10.6528064  -1.1325491  -0.8000755  -0.4700202  -0.4700199  -0.1621844
            7           8
    1  -0.0791946  -0.0766743
 Analysis of SCF Wavefunction
 
 --------------------------------------------------------------
                    Orbital Energies (a.u.)
 --------------------------------------------------------------
 
 Alpha MOs
 -- Occupied --
-10.653  -1.133  -0.800
 -- Virtual --
 -0.470  -0.470  -0.162  -0.079  -0.077  -0.077  -0.054  -0.016
  0.231   0.282   0.282   0.307   0.317   0.317   0.395   0.395
  0.464   0.739   0.787   0.787   1.134   2.013   2.225   2.225
  2.430   2.430   2.439   2.439   2.491   2.491   2.639   2.736
  2.812   2.813   2.931   2.931   3.298   3.702   3.702   4.748
 22.826  26.505  26.505  27.001  40.143  40.235  40.418  40.440
 40.440
 --------------------------------------------------------------
 
          Ground-State Mulliken Net Atomic Charges

     Atom                 Charge (a.u.)
  ----------------------------------------
      1 C                     0.778491
      2 H                     0.221509
  ----------------------------------------
  Sum of atomic charges =     1.000000

 -----------------------------------------------------------------
                    Cartesian Multipole Moments
 -----------------------------------------------------------------
    Charge (ESU x 10^10)
                 4.8032
    Dipole Moment (Debye)
         X       0.0002      Y      -0.0001      Z       2.2203
       Tot       2.2203
    Quadrupole Moments (Debye-Ang)
        XX      -3.9234     XY       0.0000     YY      -3.9234
        XZ      -0.0004     YZ       0.0002     ZZ      -3.8171
    Octapole Moments (Debye-Ang^2)
       XXX       0.0002    XXY       0.0000    XYY       0.0001
       YYY      -0.0001    XXZ      -0.2924    XYZ       0.0000
       YYZ      -0.2924    XZZ      -0.0001    YZZ       0.0000
       ZZZ       1.3700
    Hexadecapole Moments (Debye-Ang^3)
      XXXX      -2.9992   XXXY       0.0000   XXYY      -0.9998
      XYYY       0.0000   YYYY      -2.9993   XXXZ      -0.0003
      XXYZ       0.0001   XYYZ      -0.0001   YYYZ       0.0002
      XXZZ      -2.1252   XYZZ       0.0000   YYZZ      -2.1252
      XZZZ      -0.0004   YZZZ       0.0002   ZZZZ      -6.1780
 -----------------------------------------------------------------
 Total job time:  4.47s(wall), 3.58s(cpu) 
 Tue Apr 30 20:50:27 2013

        *************************************************************
        *                                                           *
        *  Thank you very much for using Q-Chem.  Have a nice day.  *
        *                                                           *
        *************************************************************


0 sent ACK to 0 
now end server 0 ... 
