Process 0 of 1 is on cl132 - thread support 1
initial socket setup ...start
initial socket setup ...done 
now start server 0 ... 

cmd = /usr/bin/ssh clhead /usr/local/qchem/bin/get_hostid 46758825 > /tmp/1603074.1.medium.q/qchem11268/lic.dat

cmd = /usr/bin/ssh clhead /usr/local/qchem/bin/get_hostid 46758825 > /tmp/1603074.1.medium.q/qchem11268/lic.dat

cmd = /usr/bin/ssh clhead /usr/local/qchem/bin/get_hostid 46758825 > /tmp/1603074.1.medium.q/qchem11268/lic.dat

cmd = /usr/bin/ssh clhead /usr/local/qchem/bin/get_hostid 46758825 > /tmp/1603074.1.medium.q/qchem11268/lic.dat

cmd = /usr/bin/ssh clhead /usr/local/qchem/bin/get_hostid 46758825 > /tmp/1603074.1.medium.q/qchem11268/lic.dat
                  Welcome to Q-Chem
     A Quantum Leap Into The Future Of Chemistry

 Y. Shao, L. Fusti-Molnar, Y. Jung, J. Kussmann, C. Ochsenfeld,
 S. T. Brown, A. T. B. Gilbert, L. V. Slipchenko,S. V. Levchenko,
 D. P. O'Neill, R. A. DiStasio Jr., R. C. Lochan, T. Wang,
 G. J. O. Beran, N. A. Besley, J. M. Herbert, C. Y. Lin,
 T. Van Voorhis, S. H. Chien, A. Sodt, R. P. Steele, 
 V. A. Rassolov, P. E. Maslen, P. P. Korambath, R. D. Adamson,
 B. Austin, J. Baker, E. F. C. Byrd, H. Dachsel, R. J. Doerksen,
 A. Dreuw, B. D. Dunietz, A. D. Dutoi, T. R. Furlani,
 S. R. Gwaltney, A. Heyden, S. Hirata, C.-P. Hsu, G. Kedziora,
 R. Z. Khaliullin, P. Klunzinger, A. M. Lee, M. S. Lee, W. Liang,
 I. Lotan, N. Nair, B. Peters, E. I. Proynov, P. A. Pieniazek, 
 Y. M. Rhee, J. Ritchie, E. Rosta, C. D. Sherrill, 
 A. C. Simmonett, J. E. Subotnik, H. L. Woodcock III,
 W. Zhang, A. T. Bell, A. K. Chakraborty, D. M. Chipman,
 F. J. Keil, A. Warshel, W. J. Hehre, H. F. Schaefer III,
 J. Kong, A. I. Krylov, P. M. W. Gill, M. Head-Gordon,
 Q-Chem, Version 3.1, Q-Chem, Inc., Pittsburgh, PA (2007).

 Additional authors for Version 3.1: 
 Z. Gan, Y. Zhao, N. E. Schultz, D. Truhlar, E. Epifanovsky and M. Oana.

 Additional authors for Version 3.2: 
 R. Baer, B. R. Brooks, D. Casanova, J.-D. Chai, C.-L. Cheng, 
 C. Cramer, D. Crittenden, A. Ghysels, G. Hawkins, E. G. Hohenstein, 
 C. Kelley, W. Kurlancheek, D. Liotard, E. Livshits, P. Manohar, 
 A. Marenich, D. Neuhauser, R. Olson, M. A. Rohrdanz, K. S. Thanthiriwatte, 
 A. J. W. Thom, V. Vanovschi, C. F. Williams, Q. Wu and Z.-Q. You. 


 Intel X86 Linux Version

 Q-chem begins on Wed Mar 26 00:22:41 2014  

 Parallel job on  1  processors
Processing $rem in /usr/local/qchem/config/preferences.

theFileMan(): MAXOPENFILES=974 MAX_SUB_FILE_NUM=16
Maximum size of a physical file is 2.0 GB, maximum size of a tmp-file is 32.0 GB


--------------------------------------------------------------
User input:
--------------------------------------------------------------

$molecule
-1,2
Si        -0.00009        0.00000        0.00110
Cl         0.00019        0.00000        2.01284
Cl         1.89621        0.00000       -0.67116
Cl        -0.94815        1.64199       -0.67139
Cl        -0.94815       -1.64199       -0.67139
$end

$comment
negative
$end

$xc_functional
C PBE   1.00
X wPBE  1.00
$end

$rem
SYMMETRY_DECOMPOSITION	0
exchange 		general
LRC_DFT                 true
BASIS                   g3large
omega			300
mem_static              760
max_scf_cycles          200
scf_final_print         1
sym_ignore              true
$end

--------------------------------------------------------------
 Writing REM_CC_EA            5
 ----------------------------------------------------
       Standard Nuclear Orientation (Angstroms)
    I     Atom         X            Y            Z
 ----------------------------------------------------
    1      Si     -0.000090     0.000000     0.001100
    2      Cl      0.000190     0.000000     2.012840
    3      Cl      1.896210     0.000000    -0.671160
    4      Cl     -0.948150     1.641990    -0.671390
    5      Cl     -0.948150    -1.641990    -0.671390
 ----------------------------------------------------
 Nuclear Repulsion Energy =   529.7173585981 hartrees
 There are       42 alpha and       41 beta electrons
 Requested basis set is G3large
 There are 95 shells and 330 basis functions

Total QAlloc Memory Limit   2000 MB
Mega-Array Size       743 MB
MEM_STATIC part       760 MB

                       Distance Matrix (Angstroms)
             Si(  1)   Cl(  2)   Cl(  3)   Cl(  4)
   Cl(  2)  2.011740
   Cl(  3)  2.011936  3.286145
   Cl(  4)  2.011763  3.286422  3.284283
   Cl(  5)  2.011763  3.286422  3.284283  3.283980
 
 A cutoff of  1.0D-08 yielded   3472 shell pairs
 There are  43435 function pairs ( 61990 Cartesian)
Evaluating contribution to one-electron hamiltonian from nuclear
 Smallest overlap matrix eigenvalue = 2.86E-04
 Multipole matrices computed through 2nd order

  Scale SEOQF with 1.000000e-01/1.000000e-01/1.000000e-01

 Standard Electronic Orientation quadrupole field applied
 Guess from superposition of atomic densities
 Warning:  Energy on first SCF cycle will be non-variational
 Long-range K will be added via erf
 Coulomb attenuation parameter = 0.3 bohr**(-1)
 An unrestricted Kohn-Sham SCF calculation will be
 performed using Pulay DIIS extrapolation
 Exchange:  wPBE + LR-HF      Correlation:  PBE
 Using SG-1 standard quadrature grid
 SCF converges when DIIS error is below 1.0E-05
 Requested basis set is G3large
 There are 95 shells and 330 basis functions
 A cutoff of  1.0D-08 yielded   3472 shell pairs
 There are  43435 function pairs ( 61990 Cartesian)
 Warning!  Inaccurate integrated density:
   Number of electrons =    83
   Numerical integral  =    82.000036047218
   Relative error      =    -1.2047758467 %
 ---------------------------------------
  Cycle       Energy         DIIS Error
 ---------------------------------------
    1   -2130.5993883833      1.93E-02
    2   -2129.7153000229      1.92E-03
    3   -2129.7577247733      1.49E-03
    4   -2129.7779006395      2.53E-04
    5   -2129.7795149104      1.08E-04
    6   -2129.7805264208      7.40E-05
    7   -2129.7814083878      5.06E-05
    8   -2129.7825440505      3.80E-05
    9   -2129.7834598399      1.88E-05
   10   -2129.7837681613      7.25E-06 Convergence criterion met
 ---------------------------------------
 One-Electron    Energy = -4012.1884873517
 Total Coulomb   Energy =  1486.1734176458
 Alpha Exchange  Energy =    -6.6715779522
 Beta  Exchange  Energy =    -6.5934514114
 DFT   Exchange  Energy =  -116.9940003185
 DFT Correlation Energy =    -3.2270273714
 Nuclear Repu.   Energy =   529.7173585980
 Nuclear Attr.   Energy = -6139.7336261626
 Kinetic         Energy =  2127.5451388109
 <S^2> = 0.7515
 SCF time:  CPU 621.39 s  wall 625.61 s
 Final Alpha MO Eigenvalues
            1           2           3           4           5           6
    1-100.6920354-100.6918876-100.6918090-100.6918066 -65.5259445  -9.2156789
            7           8           9          10          11          12
    1  -9.2155769  -9.2155131  -9.2154796  -7.0338716  -7.0337260  -7.0336995
           13          14          15          16          17          18
    1  -7.0335504  -7.0280382  -7.0279673  -7.0279377  -7.0278860  -7.0278678
           19          20          21          22          23          24
    1  -7.0278633  -7.0278596  -7.0277938  -5.1755912  -3.5825384  -3.5825105
           25          26          27          28          29          30
    1  -3.5825077  -0.8468418  -0.7951754  -0.7951053  -0.7950954  -0.5073312
           31          32          33          34          35          36
    1  -0.3999811  -0.3999517  -0.3999386  -0.3285189  -0.3285032  -0.3147145
           37          38          39          40          41          42
    1  -0.3145984  -0.3145693  -0.2815836  -0.2815536  -0.2815439   0.0295656
           43          44          45          46          47
    1   0.1632506   0.1632871   0.1633735   0.1831272   0.2131859
 Final Beta MO Eigenvalues
            1           2           3           4           5           6
    1-100.6916045-100.6914610-100.6913861-100.6913735 -65.5248201  -9.2152174
            7           8           9          10          11          12
    1  -9.2151197  -9.2150567  -9.2150152  -7.0330852  -7.0329307  -7.0329267
           13          14          15          16          17          18
    1  -7.0327277  -7.0276558  -7.0275704  -7.0275683  -7.0275022  -7.0274891
           19          20          21          22          23          24
    1  -7.0274874  -7.0274841  -7.0274020  -5.1740483  -3.5809325  -3.5809087
           25          26          27          28          29          30
    1  -3.5809003  -0.8437615  -0.7925693  -0.7925155  -0.7924931  -0.5003671
           31          32          33          34          35          36
    1  -0.3965475  -0.3965246  -0.3965080  -0.3272759  -0.3272629  -0.3116029
           37          38          39          40          41          42
    1  -0.3115147  -0.3114819  -0.2805438  -0.2805229  -0.2805178   0.1471996
           43          44          45          46
    1   0.1749060   0.1750239   0.1750767   0.2035750
 Analysis of SCF Wavefunction
 
 --------------------------------------------------------------
                    Orbital Energies (a.u.)
 --------------------------------------------------------------
 
 Alpha MOs
 -- Occupied --
*******-100.692-100.692-100.692 -65.526  -9.216  -9.216  -9.216
 -9.215  -7.034  -7.034  -7.034  -7.034  -7.028  -7.028  -7.028
 -7.028  -7.028  -7.028  -7.028  -7.028  -5.176  -3.583  -3.583
 -3.583  -0.847  -0.795  -0.795  -0.795  -0.507  -0.400  -0.400
 -0.400  -0.329  -0.329  -0.315  -0.315  -0.315  -0.282  -0.282
 -0.282   0.030
 -- Virtual --
  0.163   0.163   0.163   0.183   0.213   0.213   0.213   0.243
  0.243   0.252   0.252   0.252   0.276   0.278   0.278   0.278
  0.305   0.305   0.305   0.308   0.317   0.317   0.317   0.366
  0.366   0.419   0.419   0.419   0.486   0.486   0.486   0.513
  0.514   0.514   0.528   0.528   0.544   0.544   0.545   0.584
  0.584   0.584   0.606   0.658   0.658   0.658   0.683   0.683
  0.687   0.712   0.712   0.712   0.795   0.806   0.806   0.806
  0.808   0.808   0.808   0.851   0.851   0.851   0.906   0.906
  0.996   1.012   1.013   1.013   1.028   1.028   1.068   1.068
  1.068   1.122   1.123   1.123   1.272   1.272   1.272   1.290
  1.290   1.290   1.298   1.298   1.313   1.313   1.313   1.326
  1.326   1.326   1.337   1.388   1.389   1.389   1.389   1.417
  1.417   1.417   1.443   1.443   1.444   1.444   1.444   1.538
  1.539   1.539   1.564   1.564   1.565   1.727   1.727   1.728
  1.738   1.742   1.742   1.743   1.805   1.805   1.805   1.826
  1.826   1.826   1.890   1.890   1.891   1.941   1.941   2.051
  2.176   2.176   2.176   2.419   2.419   2.421   2.441   2.442
  2.442   2.465   2.466   2.466   2.565   2.565   2.565   2.680
  2.681   2.681   2.768   2.768   2.768   2.869   3.937   3.939
  4.088   4.089   4.091   4.556   4.561   4.561   4.561   4.562
  4.562   4.562   4.586   4.586   4.599   4.666   4.666   4.667
  4.676   4.676   4.676   4.689   4.689   4.742   4.768   4.769
  4.769   4.772   4.772   4.772   4.786   4.786   4.787   5.227
  5.228   5.229   5.230   5.231   5.243   5.244   5.245   5.328
  5.328   5.328   5.408   5.408   5.408   5.436   5.448   5.448
  5.632   5.633   5.634   6.578   9.985   9.985   9.985  10.133
 11.778  11.778  11.778  17.678  17.752  17.762  17.837  17.894
 20.681  20.681  20.713  20.714  20.714  20.787  20.787  20.788
 20.972  20.972  20.972  21.011  22.212  22.214  22.220  22.222
 22.222  22.224  22.234  27.185  27.188  27.194  27.207  27.232
 27.249  27.263  27.263  27.271  27.279  27.292  27.305  27.309
 27.310  27.315  27.338  27.357  27.359  27.389  27.389  36.897
 36.898  36.898  36.898  36.899  36.899  36.900  36.901  36.902
 36.903  36.909  36.911  36.912  36.912  36.913  36.914  36.915
 36.916  36.922  36.922  36.924  36.925  36.925  36.926  36.926
 36.926  36.927  36.927 141.531 215.890 215.890 215.890 216.069
 
 Beta MOs
 -- Occupied --
*******-100.691-100.691-100.691 -65.525  -9.215  -9.215  -9.215
 -9.215  -7.033  -7.033  -7.033  -7.033  -7.028  -7.028  -7.028
 -7.028  -7.027  -7.027  -7.027  -7.027  -5.174  -3.581  -3.581
 -3.581  -0.844  -0.793  -0.793  -0.792  -0.500  -0.397  -0.397
 -0.397  -0.327  -0.327  -0.312  -0.312  -0.311  -0.281  -0.281
 -0.281
 -- Virtual --
  0.147   0.175   0.175   0.175   0.204   0.219   0.219   0.219
  0.245   0.245   0.257   0.257   0.257   0.279   0.279   0.279
  0.288   0.305   0.305   0.305   0.308   0.319   0.319   0.319
  0.368   0.368   0.422   0.422   0.422   0.486   0.486   0.486
  0.514   0.515   0.515   0.529   0.529   0.548   0.548   0.548
  0.586   0.586   0.586   0.610   0.659   0.660   0.660   0.684
  0.684   0.688   0.717   0.717   0.717   0.800   0.806   0.806
  0.806   0.810   0.810   0.810   0.852   0.852   0.852   0.912
  0.912   0.998   1.014   1.015   1.015   1.029   1.029   1.069
  1.069   1.069   1.126   1.126   1.126   1.274   1.274   1.274
  1.293   1.293   1.293   1.301   1.301   1.315   1.315   1.315
  1.328   1.328   1.329   1.340   1.389   1.391   1.391   1.392
  1.419   1.419   1.420   1.445   1.445   1.445   1.446   1.446
  1.541   1.541   1.541   1.567   1.567   1.567   1.728   1.729
  1.729   1.739   1.745   1.745   1.745   1.806   1.806   1.806
  1.827   1.827   1.827   1.892   1.892   1.893   1.942   1.942
  2.054   2.178   2.179   2.179   2.420   2.420   2.430   2.443
  2.443   2.444   2.474   2.475   2.475   2.565   2.565   2.566
  2.688   2.689   2.689   2.770   2.771   2.771   2.872   3.940
  3.941   4.090   4.091   4.093   4.558   4.563   4.563   4.563
  4.564   4.564   4.564   4.589   4.589   4.601   4.669   4.669
  4.670   4.679   4.679   4.679   4.692   4.692   4.745   4.771
  4.771   4.771   4.774   4.775   4.775   4.789   4.789   4.789
  5.228   5.228   5.230   5.231   5.232   5.243   5.245   5.246
  5.328   5.329   5.329   5.408   5.409   5.409   5.438   5.448
  5.449   5.633   5.635   5.635   6.581   9.985   9.985   9.986
 10.134  11.780  11.780  11.780  17.680  17.754  17.764  17.839
 17.896  20.682  20.682  20.714  20.714  20.714  20.788  20.788
 20.788  20.973  20.973  20.973  21.012  22.213  22.215  22.221
 22.223  22.223  22.225  22.235  27.185  27.188  27.194  27.208
 27.232  27.250  27.264  27.264  27.272  27.280  27.293  27.306
 27.310  27.311  27.316  27.339  27.358  27.360  27.389  27.390
 36.898  36.898  36.898  36.898  36.899  36.899  36.900  36.902
 36.902  36.904  36.910  36.911  36.912  36.913  36.913  36.915
 36.915  36.917  36.922  36.923  36.925  36.925  36.926  36.926
 36.926  36.927  36.927  36.927 141.533 215.890 215.890 215.891
216.070
 --------------------------------------------------------------
 
          Ground-State Mulliken Net Atomic Charges

     Atom                 Charge (a.u.)    Spin (a.u.)
  --------------------------------------------------------
      1 Si                   -2.174117       3.968816
      2 Cl                    0.298556      -0.746331
      3 Cl                    0.292667      -0.740968
      4 Cl                    0.291771      -0.741139
      5 Cl                    0.291124      -0.740378
  --------------------------------------------------------
  Sum of atomic charges =    -1.000000
  Sum of spin   charges =     1.000000

 -----------------------------------------------------------------
                    Cartesian Multipole Moments
 -----------------------------------------------------------------
    Charge (ESU x 10^10)
                -4.8032
    Dipole Moment (Debye)
         X      -0.0170      Y      -0.0074      Z      -0.0406
       Tot       0.0446
    Quadrupole Moments (Debye-Ang)
        XX     -86.9949     XY       0.0001     YY     -87.0247
        XZ      -0.0021     YZ       0.0000     ZZ     -87.0980
    Octapole Moments (Debye-Ang^2)
       XXX      -5.5619    XXY      -0.0479    XYY       5.2533
       YYY      -0.1441    XXZ       3.6675    XYZ       0.0013
       YYZ       3.6737    XZZ      -0.0877    YZZ      -0.0490
       ZZZ      -8.3309
    Hexadecapole Moments (Debye-Ang^3)
      XXXX    -770.4971   XXXY       0.0141   XXYY    -256.8738
      XYYY       0.0303   YYYY    -770.9251   XXXZ       7.3790
      XXYZ       0.0056   XYYZ      -7.4141   YYYZ       0.0168
      XXZZ    -252.0693   XYZZ       0.0068   YYZZ    -252.1405
      XZZZ      -0.0690   YZZZ       0.0038   ZZZZ    -778.5781
 -----------------------------------------------------------------
 Total job time:  626.25s(wall), 621.97s(cpu) 
 Wed Mar 26 00:33:08 2014

        *************************************************************
        *                                                           *
        *  Thank you very much for using Q-Chem.  Have a nice day.  *
        *                                                           *
        *************************************************************


0 sent ACK to 0 
now end server 0 ... 
 
**********************************************************************
Job 2 of 3 
**********************************************************************
 
Process 0 of 1 is on cl132 - thread support 1
initial socket setup ...start
initial socket setup ...done 
now start server 0 ... 

cmd = /usr/bin/ssh clhead /usr/local/qchem/bin/get_hostid 46956690 > /tmp/1603074.1.medium.q/qchem11268/lic.dat

cmd = /usr/bin/ssh clhead /usr/local/qchem/bin/get_hostid 46956690 > /tmp/1603074.1.medium.q/qchem11268/lic.dat

cmd = /usr/bin/ssh clhead /usr/local/qchem/bin/get_hostid 46956690 > /tmp/1603074.1.medium.q/qchem11268/lic.dat

cmd = /usr/bin/ssh clhead /usr/local/qchem/bin/get_hostid 46956690 > /tmp/1603074.1.medium.q/qchem11268/lic.dat

cmd = /usr/bin/ssh clhead /usr/local/qchem/bin/get_hostid 46956690 > /tmp/1603074.1.medium.q/qchem11268/lic.dat
                  Welcome to Q-Chem
     A Quantum Leap Into The Future Of Chemistry

 Y. Shao, L. Fusti-Molnar, Y. Jung, J. Kussmann, C. Ochsenfeld,
 S. T. Brown, A. T. B. Gilbert, L. V. Slipchenko,S. V. Levchenko,
 D. P. O'Neill, R. A. DiStasio Jr., R. C. Lochan, T. Wang,
 G. J. O. Beran, N. A. Besley, J. M. Herbert, C. Y. Lin,
 T. Van Voorhis, S. H. Chien, A. Sodt, R. P. Steele, 
 V. A. Rassolov, P. E. Maslen, P. P. Korambath, R. D. Adamson,
 B. Austin, J. Baker, E. F. C. Byrd, H. Dachsel, R. J. Doerksen,
 A. Dreuw, B. D. Dunietz, A. D. Dutoi, T. R. Furlani,
 S. R. Gwaltney, A. Heyden, S. Hirata, C.-P. Hsu, G. Kedziora,
 R. Z. Khaliullin, P. Klunzinger, A. M. Lee, M. S. Lee, W. Liang,
 I. Lotan, N. Nair, B. Peters, E. I. Proynov, P. A. Pieniazek, 
 Y. M. Rhee, J. Ritchie, E. Rosta, C. D. Sherrill, 
 A. C. Simmonett, J. E. Subotnik, H. L. Woodcock III,
 W. Zhang, A. T. Bell, A. K. Chakraborty, D. M. Chipman,
 F. J. Keil, A. Warshel, W. J. Hehre, H. F. Schaefer III,
 J. Kong, A. I. Krylov, P. M. W. Gill, M. Head-Gordon,
 Q-Chem, Version 3.1, Q-Chem, Inc., Pittsburgh, PA (2007).

 Additional authors for Version 3.1: 
 Z. Gan, Y. Zhao, N. E. Schultz, D. Truhlar, E. Epifanovsky and M. Oana.

 Additional authors for Version 3.2: 
 R. Baer, B. R. Brooks, D. Casanova, J.-D. Chai, C.-L. Cheng, 
 C. Cramer, D. Crittenden, A. Ghysels, G. Hawkins, E. G. Hohenstein, 
 C. Kelley, W. Kurlancheek, D. Liotard, E. Livshits, P. Manohar, 
 A. Marenich, D. Neuhauser, R. Olson, M. A. Rohrdanz, K. S. Thanthiriwatte, 
 A. J. W. Thom, V. Vanovschi, C. F. Williams, Q. Wu and Z.-Q. You. 


 Intel X86 Linux Version

 Q-chem begins on Wed Mar 26 00:33:12 2014  

 Parallel job on  1  processors
Processing $rem in /usr/local/qchem/config/preferences.

theFileMan(): MAXOPENFILES=974 MAX_SUB_FILE_NUM=16
Maximum size of a physical file is 2.0 GB, maximum size of a tmp-file is 32.0 GB


--------------------------------------------------------------
User input:
--------------------------------------------------------------

$molecule
0,1
Si        -0.00009        0.00000        0.00110
Cl         0.00019        0.00000        2.01284
Cl         1.89621        0.00000       -0.67116
Cl        -0.94815        1.64199       -0.67139
Cl        -0.94815       -1.64199       -0.67139
$end

$comment
neutral
$end

$xc_functional
C PBE   1.00
X wPBE  1.00
$end


$rem
SYMMETRY_DECOMPOSITION	0
LRC_DFT                 true
exchange 		general
BASIS                   g3large
omega			300
mem_static              760
max_scf_cycles          200
scf_final_print         1
sym_ignore              true
$end

--------------------------------------------------------------
 Writing REM_CC_EA            5
 ----------------------------------------------------
       Standard Nuclear Orientation (Angstroms)
    I     Atom         X            Y            Z
 ----------------------------------------------------
    1      Si     -0.000090     0.000000     0.001100
    2      Cl      0.000190     0.000000     2.012840
    3      Cl      1.896210     0.000000    -0.671160
    4      Cl     -0.948150     1.641990    -0.671390
    5      Cl     -0.948150    -1.641990    -0.671390
 ----------------------------------------------------
 Nuclear Repulsion Energy =   529.7173585981 hartrees
 There are       41 alpha and       41 beta electrons
 Requested basis set is G3large
 There are 95 shells and 330 basis functions

Total QAlloc Memory Limit   2000 MB
Mega-Array Size       743 MB
MEM_STATIC part       760 MB

                       Distance Matrix (Angstroms)
             Si(  1)   Cl(  2)   Cl(  3)   Cl(  4)
   Cl(  2)  2.011740
   Cl(  3)  2.011936  3.286145
   Cl(  4)  2.011763  3.286422  3.284283
   Cl(  5)  2.011763  3.286422  3.284283  3.283980
 
 A cutoff of  1.0D-08 yielded   3472 shell pairs
 There are  43435 function pairs ( 61990 Cartesian)
Evaluating contribution to one-electron hamiltonian from nuclear
 Smallest overlap matrix eigenvalue = 2.86E-04
 Multipole matrices computed through 2nd order

  Scale SEOQF with 1.000000e-01/1.000000e-01/1.000000e-01

 Standard Electronic Orientation quadrupole field applied
 Guess from superposition of atomic densities
 Warning:  Energy on first SCF cycle will be non-variational
 Long-range K will be added via erf
 Coulomb attenuation parameter = 0.3 bohr**(-1)
 A restricted Kohn-Sham SCF calculation will be
 performed using Pulay DIIS extrapolation
 Exchange:  wPBE + LR-HF      Correlation:  PBE
 Using SG-1 standard quadrature grid
 SCF converges when DIIS error is below 1.0E-05
 Requested basis set is G3large
 There are 95 shells and 330 basis functions
 A cutoff of  1.0D-08 yielded   3472 shell pairs
 There are  43435 function pairs ( 61990 Cartesian)
 ---------------------------------------
  Cycle       Energy         DIIS Error
 ---------------------------------------
    1   -2130.5993883833      1.93E-02
    2   -2129.7433685013      2.19E-03
    3   -2129.7567660112      2.31E-03
    4   -2129.8157955796      1.79E-04
    5   -2129.8161682711      6.58E-05
    6   -2129.8162287404      2.04E-05
    7   -2129.8162340575      4.29E-06 Convergence criterion met
 ---------------------------------------
 One-Electron    Energy = -3999.3079452661
 Total Coulomb   Energy =  1473.1092237405
 Alpha Exchange  Energy =    -6.5964919609
 Beta  Exchange  Energy =    -6.5964919609
 DFT   Exchange  Energy =  -116.9302446165
 DFT Correlation Energy =    -3.2116425915
 Nuclear Repu.   Energy =   529.7173585980
 Nuclear Attr.   Energy = -6126.3547740012
 Kinetic         Energy =  2127.0468287351
 SCF time:  CPU 335.62 s  wall 338.23 s
 Final Alpha MO Eigenvalues
            1           2           3           4           5           6
    1-100.8485316-100.8484325-100.8483129-100.8482109 -65.7016720  -9.3713160
            7           8           9          10          11          12
    1  -9.3711855  -9.3711136  -9.3710214  -7.1897182  -7.1896750  -7.1895718
           13          14          15          16          17          18
    1  -7.1895404  -7.1835913  -7.1835875  -7.1834246  -7.1833678  -7.1833315
           19          20          21          22          23          24
    1  -7.1832980  -7.1832569  -7.1831671  -5.3480271  -3.7550482  -3.7550187
           25          26          27          28          29          30
    1  -3.7550115  -1.0000655  -0.9469545  -0.9467707  -0.9467394  -0.6562951
           31          32          33          34          35          36
    1  -0.5509848  -0.5508814  -0.5508604  -0.4786993  -0.4786881  -0.4633990
           37          38          39          40          41          42
    1  -0.4633080  -0.4632857  -0.4315396  -0.4315269  -0.4314093   0.0349265
           43          44          45          46
    1   0.0621678   0.0699456   0.0699515   0.0699633
 Analysis of SCF Wavefunction
 
 --------------------------------------------------------------
                    Orbital Energies (a.u.)
 --------------------------------------------------------------
 
 Alpha MOs
 -- Occupied --
*******-100.848-100.848-100.848 -65.702  -9.371  -9.371  -9.371
 -9.371  -7.190  -7.190  -7.190  -7.190  -7.184  -7.184  -7.183
 -7.183  -7.183  -7.183  -7.183  -7.183  -5.348  -3.755  -3.755
 -3.755  -1.000  -0.947  -0.947  -0.947  -0.656  -0.551  -0.551
 -0.551  -0.479  -0.479  -0.463  -0.463  -0.463  -0.432  -0.432
 -0.431
 -- Virtual --
  0.035   0.062   0.070   0.070   0.070   0.089   0.089   0.089
  0.130   0.130   0.130   0.133   0.133   0.165   0.170   0.170
  0.170   0.184   0.184   0.184   0.193   0.209   0.209   0.209
  0.218   0.218   0.280   0.280   0.280   0.353   0.353   0.353
  0.368   0.369   0.369   0.385   0.385   0.414   0.414   0.414
  0.443   0.443   0.443   0.472   0.525   0.525   0.525   0.549
  0.549   0.559   0.571   0.571   0.571   0.652   0.664   0.664
  0.664   0.666   0.666   0.666   0.713   0.713   0.713   0.756
  0.756   0.849   0.868   0.869   0.869   0.886   0.886   0.926
  0.926   0.926   0.974   0.975   0.975   1.126   1.126   1.126
  1.142   1.142   1.142   1.152   1.153   1.167   1.167   1.167
  1.181   1.181   1.181   1.193   1.241   1.241   1.241   1.242
  1.272   1.272   1.272   1.295   1.295   1.296   1.297   1.297
  1.391   1.392   1.392   1.420   1.420   1.420   1.579   1.579
  1.580   1.596   1.596   1.596   1.598   1.657   1.657   1.657
  1.681   1.681   1.681   1.743   1.743   1.744   1.793   1.793
  1.901   2.025   2.025   2.025   2.266   2.270   2.270   2.293
  2.294   2.294   2.311   2.312   2.312   2.417   2.417   2.417
  2.527   2.527   2.527   2.615   2.616   2.616   2.718   3.773
  3.774   3.925   3.926   3.928   4.405   4.410   4.410   4.410
  4.411   4.411   4.411   4.435   4.435   4.448   4.515   4.515
  4.516   4.524   4.524   4.524   4.537   4.537   4.589   4.617
  4.617   4.617   4.620   4.620   4.620   4.635   4.635   4.635
  5.074   5.075   5.076   5.077   5.078   5.090   5.091   5.092
  5.174   5.175   5.175   5.254   5.254   5.255   5.282   5.295
  5.295   5.477   5.478   5.479   6.412   9.831   9.831   9.831
  9.980  11.607  11.607  11.608  17.506  17.580  17.590  17.665
 17.722  20.526  20.526  20.558  20.559  20.559  20.632  20.632
 20.633  20.816  20.817  20.817  20.855  22.039  22.041  22.047
 22.049  22.049  22.051  22.061  27.029  27.032  27.039  27.052
 27.076  27.094  27.108  27.108  27.116  27.124  27.137  27.149
 27.153  27.154  27.160  27.182  27.201  27.203  27.233  27.233
 36.742  36.742  36.743  36.743  36.743  36.744  36.744  36.746
 36.746  36.748  36.754  36.755  36.756  36.756  36.757  36.759
 36.759  36.760  36.766  36.767  36.769  36.769  36.770  36.770
 36.770  36.771  36.771  36.771 141.356 215.734 215.734 215.734
215.913
 --------------------------------------------------------------
 
          Ground-State Mulliken Net Atomic Charges

     Atom                 Charge (a.u.)
  ----------------------------------------
      1 Si                    1.672922
      2 Cl                   -0.417927
      3 Cl                   -0.418084
      4 Cl                   -0.418568
      5 Cl                   -0.418343
  ----------------------------------------
  Sum of atomic charges =     0.000000

 -----------------------------------------------------------------
                    Cartesian Multipole Moments
 -----------------------------------------------------------------
    Charge (ESU x 10^10)
                 0.0000
    Dipole Moment (Debye)
         X      -0.0004      Y      -0.0016      Z       0.0073
       Tot       0.0075
    Quadrupole Moments (Debye-Ang)
        XX     -62.0080     XY       0.0008     YY     -62.0042
        XZ       0.0016     YZ       0.0014     ZZ     -61.9884
    Octapole Moments (Debye-Ang^2)
       XXX       2.2912    XXY      -0.0026    XYY      -2.2997
       YYY      -0.0079    XXZ      -1.6308    XYZ      -0.0009
       YYZ      -1.6374    XZZ      -0.0015    YZZ      -0.0020
       ZZZ       3.2873
    Hexadecapole Moments (Debye-Ang^3)
      XXXX    -459.6790   XXXY      -0.0028   XXYY    -153.2087
      XYYY       0.0029   YYYY    -459.5553   XXXZ      -4.7731
      XXYZ       0.0015   XYYZ       4.7402   YYYZ       0.0043
      XXZZ    -156.6467   XYZZ      -0.0005   YYZZ    -156.6242
      XZZZ      -0.0208   YZZZ      -0.0010   ZZZZ    -456.8564
 -----------------------------------------------------------------
 Total job time:  338.84s(wall), 336.17s(cpu) 
 Wed Mar 26 00:38:51 2014

        *************************************************************
        *                                                           *
        *  Thank you very much for using Q-Chem.  Have a nice day.  *
        *                                                           *
        *************************************************************


0 sent ACK to 0 
now end server 0 ... 
 
**********************************************************************
Job 3 of 3 
**********************************************************************
 
Process 0 of 1 is on cl132 - thread support 1
initial socket setup ...start
initial socket setup ...done 
now start server 0 ... 

cmd = /usr/bin/ssh clhead /usr/local/qchem/bin/get_hostid 953736336 > /tmp/1603074.1.medium.q/qchem11268/lic.dat

cmd = /usr/bin/ssh clhead /usr/local/qchem/bin/get_hostid 953736336 > /tmp/1603074.1.medium.q/qchem11268/lic.dat

cmd = /usr/bin/ssh clhead /usr/local/qchem/bin/get_hostid 953736336 > /tmp/1603074.1.medium.q/qchem11268/lic.dat

cmd = /usr/bin/ssh clhead /usr/local/qchem/bin/get_hostid 953736336 > /tmp/1603074.1.medium.q/qchem11268/lic.dat

cmd = /usr/bin/ssh clhead /usr/local/qchem/bin/get_hostid 953736336 > /tmp/1603074.1.medium.q/qchem11268/lic.dat
                  Welcome to Q-Chem
     A Quantum Leap Into The Future Of Chemistry

 Y. Shao, L. Fusti-Molnar, Y. Jung, J. Kussmann, C. Ochsenfeld,
 S. T. Brown, A. T. B. Gilbert, L. V. Slipchenko,S. V. Levchenko,
 D. P. O'Neill, R. A. DiStasio Jr., R. C. Lochan, T. Wang,
 G. J. O. Beran, N. A. Besley, J. M. Herbert, C. Y. Lin,
 T. Van Voorhis, S. H. Chien, A. Sodt, R. P. Steele, 
 V. A. Rassolov, P. E. Maslen, P. P. Korambath, R. D. Adamson,
 B. Austin, J. Baker, E. F. C. Byrd, H. Dachsel, R. J. Doerksen,
 A. Dreuw, B. D. Dunietz, A. D. Dutoi, T. R. Furlani,
 S. R. Gwaltney, A. Heyden, S. Hirata, C.-P. Hsu, G. Kedziora,
 R. Z. Khaliullin, P. Klunzinger, A. M. Lee, M. S. Lee, W. Liang,
 I. Lotan, N. Nair, B. Peters, E. I. Proynov, P. A. Pieniazek, 
 Y. M. Rhee, J. Ritchie, E. Rosta, C. D. Sherrill, 
 A. C. Simmonett, J. E. Subotnik, H. L. Woodcock III,
 W. Zhang, A. T. Bell, A. K. Chakraborty, D. M. Chipman,
 F. J. Keil, A. Warshel, W. J. Hehre, H. F. Schaefer III,
 J. Kong, A. I. Krylov, P. M. W. Gill, M. Head-Gordon,
 Q-Chem, Version 3.1, Q-Chem, Inc., Pittsburgh, PA (2007).

 Additional authors for Version 3.1: 
 Z. Gan, Y. Zhao, N. E. Schultz, D. Truhlar, E. Epifanovsky and M. Oana.

 Additional authors for Version 3.2: 
 R. Baer, B. R. Brooks, D. Casanova, J.-D. Chai, C.-L. Cheng, 
 C. Cramer, D. Crittenden, A. Ghysels, G. Hawkins, E. G. Hohenstein, 
 C. Kelley, W. Kurlancheek, D. Liotard, E. Livshits, P. Manohar, 
 A. Marenich, D. Neuhauser, R. Olson, M. A. Rohrdanz, K. S. Thanthiriwatte, 
 A. J. W. Thom, V. Vanovschi, C. F. Williams, Q. Wu and Z.-Q. You. 


 Intel X86 Linux Version

 Q-chem begins on Wed Mar 26 00:38:55 2014  

 Parallel job on  1  processors
Processing $rem in /usr/local/qchem/config/preferences.

theFileMan(): MAXOPENFILES=974 MAX_SUB_FILE_NUM=16
Maximum size of a physical file is 2.0 GB, maximum size of a tmp-file is 32.0 GB


--------------------------------------------------------------
User input:
--------------------------------------------------------------

$molecule
1,2
Si        -0.00009        0.00000        0.00110
Cl         0.00019        0.00000        2.01284
Cl         1.89621        0.00000       -0.67116
Cl        -0.94815        1.64199       -0.67139
Cl        -0.94815       -1.64199       -0.67139
$end

$comment
positive
$end

$xc_functional
C PBE   1.00
X wPBE  1.00
$end

$rem
SYMMETRY_DECOMPOSITION	0
LRC_DFT                 true
exchange 		general
BASIS                   g3large
omega			300
mem_static              760
max_scf_cycles          200
scf_final_print         1
sym_ignore              true
$end

--------------------------------------------------------------
 Writing REM_CC_EA            5
 ----------------------------------------------------
       Standard Nuclear Orientation (Angstroms)
    I     Atom         X            Y            Z
 ----------------------------------------------------
    1      Si     -0.000090     0.000000     0.001100
    2      Cl      0.000190     0.000000     2.012840
    3      Cl      1.896210     0.000000    -0.671160
    4      Cl     -0.948150     1.641990    -0.671390
    5      Cl     -0.948150    -1.641990    -0.671390
 ----------------------------------------------------
 Nuclear Repulsion Energy =   529.7173585981 hartrees
 There are       41 alpha and       40 beta electrons
 Requested basis set is G3large
 There are 95 shells and 330 basis functions

Total QAlloc Memory Limit   2000 MB
Mega-Array Size       743 MB
MEM_STATIC part       760 MB

                       Distance Matrix (Angstroms)
             Si(  1)   Cl(  2)   Cl(  3)   Cl(  4)
   Cl(  2)  2.011740
   Cl(  3)  2.011936  3.286145
   Cl(  4)  2.011763  3.286422  3.284283
   Cl(  5)  2.011763  3.286422  3.284283  3.283980
 
 A cutoff of  1.0D-08 yielded   3472 shell pairs
 There are  43435 function pairs ( 61990 Cartesian)
Evaluating contribution to one-electron hamiltonian from nuclear
 Smallest overlap matrix eigenvalue = 2.86E-04
 Multipole matrices computed through 2nd order

  Scale SEOQF with 1.000000e-01/1.000000e-01/1.000000e-01

 Standard Electronic Orientation quadrupole field applied
 Guess from superposition of atomic densities
 Warning:  Energy on first SCF cycle will be non-variational
 Long-range K will be added via erf
 Coulomb attenuation parameter = 0.3 bohr**(-1)
 An unrestricted Kohn-Sham SCF calculation will be
 performed using Pulay DIIS extrapolation
 Exchange:  wPBE + LR-HF      Correlation:  PBE
 Using SG-1 standard quadrature grid
 SCF converges when DIIS error is below 1.0E-05
 Requested basis set is G3large
 There are 95 shells and 330 basis functions
 A cutoff of  1.0D-08 yielded   3472 shell pairs
 There are  43435 function pairs ( 61990 Cartesian)
 Warning!  Inaccurate integrated density:
   Number of electrons =    81
   Numerical integral  =    82.000036047218
   Relative error      =     1.2346124040 %
 ---------------------------------------
  Cycle       Energy         DIIS Error
 ---------------------------------------
    1   -2130.5993883833      1.93E-02
    2   -2129.2649224834      2.47E-03
    3   -2129.2896270309      2.71E-03
    4   -2129.3751731472      2.40E-04
    5   -2129.3763089219      9.93E-05
    6   -2129.3767189839      3.77E-05
    7   -2129.3769512887      3.25E-05
    8   -2129.3770774046      1.88E-05
    9   -2129.3772317605      1.39E-05
   10   -2129.3772807904      6.00E-06 Convergence criterion met
 ---------------------------------------
 One-Electron    Energy = -3981.5527187794
 Total Coulomb   Energy =  1455.4019100551
 Alpha Exchange  Energy =    -6.6072456953
 Beta  Exchange  Energy =    -6.4153167053
 DFT   Exchange  Energy =  -116.7491723837
 DFT Correlation Energy =    -3.1720958799
 Nuclear Repu.   Energy =   529.7173585980
 Nuclear Attr.   Energy = -6108.1801818022
 Kinetic         Energy =  2126.6274630229
 <S^2> = 0.7595
 SCF time:  CPU 584.72 s  wall 589.25 s
 Final Alpha MO Eigenvalues
            1           2           3           4           5           6
    1-101.0987271-101.0968034-101.0823931-101.0266711 -65.9051785  -9.6185401
            7           8           9          10          11          12
    1  -9.6166627  -9.6026252  -9.5481317  -7.4377574  -7.4357420  -7.4349899
           13          14          15          16          17          18
    1  -7.4329972  -7.4282315  -7.4265570  -7.4203437  -7.4195649  -7.4128754
           19          20          21          22          23          24
    1  -7.3671544  -7.3605912  -7.3600371  -5.5516545  -3.9591315  -3.9589267
           25          26          27          28          29          30
    1  -3.9578026  -1.2222978  -1.1833271  -1.1736857  -1.1287270  -0.8665674
           31          32          33          34          35          36
    1  -0.7710233  -0.7675746  -0.7457962  -0.7092382  -0.7024709  -0.6823679
           37          38          39          40          41          42
    1  -0.6730321  -0.6700818  -0.6665148  -0.6224931  -0.6196508  -0.1514883
           43          44          45          46
    1  -0.1113216  -0.1106546  -0.1085571  -0.0914547
 Final Beta MO Eigenvalues
            1           2           3           4           5           6
    1-101.0962190-101.0943528-101.0804053-101.0265781 -65.9052971  -9.6163529
            7           8           9          10          11          12
    1  -9.6145233  -9.6008941  -9.5480527  -7.4336103  -7.4317627  -7.4311301
           13          14          15          16          17          18
    1  -7.4293833  -7.4267748  -7.4248960  -7.4184811  -7.4152095  -7.4115986
           19          20          21          22          23          24
    1  -7.3671258  -7.3602990  -7.3600114  -5.5518440  -3.9594165  -3.9591860
           25          26          27          28          29          30
    1  -3.9579428  -1.2120082  -1.1656449  -1.1587982  -1.1267831  -0.8619950
           31          32          33          34          35          36
    1  -0.7608999  -0.7563999  -0.7435287  -0.6812983  -0.6718808  -0.6643617
           37          38          39          40          41          42
    1  -0.6483972  -0.6470520  -0.6172541  -0.6151563  -0.4464208  -0.1481474
           43          44          45
    1  -0.1088022  -0.1060655  -0.1057286
 Analysis of SCF Wavefunction
 
 --------------------------------------------------------------
                    Orbital Energies (a.u.)
 --------------------------------------------------------------
 
 Alpha MOs
 -- Occupied --
*******-101.097-101.082-101.027 -65.905  -9.619  -9.617  -9.603
 -9.548  -7.438  -7.436  -7.435  -7.433  -7.428  -7.427  -7.420
 -7.420  -7.413  -7.367  -7.361  -7.360  -5.552  -3.959  -3.959
 -3.958  -1.222  -1.183  -1.174  -1.129  -0.867  -0.771  -0.768
 -0.746  -0.709  -0.702  -0.682  -0.673  -0.670  -0.667  -0.622
 -0.620
 -- Virtual --
 -0.151  -0.111  -0.111  -0.109  -0.091  -0.053  -0.052  -0.049
 -0.013  -0.012  -0.008  -0.008  -0.007   0.014   0.017   0.019
  0.032   0.032   0.034   0.035   0.041   0.042   0.062   0.071
  0.073   0.078   0.104   0.106   0.112   0.161   0.168   0.173
  0.180   0.182   0.186   0.202   0.203   0.240   0.245   0.246
  0.253   0.261   0.265   0.301   0.350   0.350   0.357   0.374
  0.375   0.385   0.385   0.387   0.403   0.463   0.470   0.470
  0.475   0.476   0.490   0.493   0.538   0.538   0.542   0.561
  0.562   0.653   0.678   0.679   0.684   0.696   0.698   0.740
  0.743   0.744   0.777   0.779   0.789   0.914   0.920   0.926
  0.938   0.940   0.950   0.952   0.956   0.961   0.964   0.970
  0.972   0.993   0.997   0.997   1.029   1.035   1.041   1.059
  1.070   1.074   1.078   1.083   1.085   1.104   1.105   1.108
  1.184   1.187   1.202   1.226   1.228   1.229   1.364   1.381
  1.384   1.396   1.398   1.402   1.421   1.452   1.461   1.464
  1.486   1.487   1.496   1.537   1.549   1.552   1.599   1.601
  1.701   1.820   1.822   1.837   2.055   2.058   2.060   2.070
  2.094   2.096   2.109   2.110   2.113   2.207   2.216   2.217
  2.316   2.327   2.329   2.399   2.404   2.426   2.516   3.568
  3.569   3.718   3.721   3.730   4.160   4.161   4.165   4.171
  4.178   4.194   4.209   4.209   4.223   4.248   4.281   4.286
  4.288   4.304   4.305   4.315   4.321   4.322   4.362   4.384
  4.392   4.393   4.405   4.421   4.421   4.425   4.432   4.434
  4.832   4.836   4.839   4.848   4.856   4.860   4.891   4.893
  4.944   4.962   4.965   5.016   5.038   5.045   5.063   5.086
  5.089   5.245   5.252   5.288   6.208   9.590   9.599   9.636
  9.766  11.404  11.404  11.406  17.303  17.376  17.387  17.461
 17.519  20.290  20.291  20.310  20.337  20.338  20.395  20.425
 20.427  20.573  20.581  20.603  20.655  21.835  21.837  21.843
 21.845  21.845  21.847  21.857  26.783  26.794  26.801  26.838
 26.856  26.862  26.872  26.881  26.893  26.899  26.908  26.910
 26.921  26.942  26.951  26.953  26.970  26.987  26.994  27.052
 36.494  36.496  36.497  36.498  36.504  36.505  36.508  36.511
 36.512  36.514  36.515  36.518  36.519  36.521  36.523  36.523
 36.529  36.530  36.532  36.536  36.538  36.569  36.572  36.580
 36.582  36.586  36.588  36.590 141.152 215.485 215.495 215.535
215.691
 
 Beta MOs
 -- Occupied --
*******-101.094-101.080-101.027 -65.905  -9.616  -9.615  -9.601
 -9.548  -7.434  -7.432  -7.431  -7.429  -7.427  -7.425  -7.418
 -7.415  -7.412  -7.367  -7.360  -7.360  -5.552  -3.959  -3.959
 -3.958  -1.212  -1.166  -1.159  -1.127  -0.862  -0.761  -0.756
 -0.744  -0.681  -0.672  -0.664  -0.648  -0.647  -0.617  -0.615
 -- Virtual --
 -0.446  -0.148  -0.109  -0.106  -0.106  -0.091  -0.052  -0.051
 -0.049  -0.012  -0.011  -0.008  -0.007  -0.006   0.015   0.023
  0.024   0.033   0.034   0.036   0.037   0.042   0.043   0.062
  0.075   0.076   0.078   0.108   0.109   0.113   0.175   0.178
  0.181   0.186   0.187   0.189   0.206   0.207   0.247   0.248
  0.254   0.255   0.266   0.268   0.301   0.356   0.356   0.358
  0.379   0.379   0.388   0.388   0.389   0.403   0.466   0.475
  0.478   0.479   0.481   0.493   0.495   0.541   0.541   0.542
  0.562   0.562   0.655   0.678   0.680   0.687   0.701   0.701
  0.743   0.746   0.747   0.780   0.782   0.790   0.925   0.930
  0.934   0.944   0.947   0.958   0.959   0.960   0.969   0.971
  0.976   0.980   0.999   1.001   1.001   1.036   1.041   1.051
  1.062   1.074   1.082   1.085   1.091   1.093   1.109   1.109
  1.112   1.190   1.192   1.205   1.232   1.232   1.232   1.373
  1.385   1.388   1.402   1.403   1.406   1.422   1.460   1.464
  1.466   1.493   1.494   1.497   1.543   1.553   1.556   1.603
  1.604   1.705   1.822   1.825   1.839   2.059   2.064   2.066
  2.086   2.100   2.101   2.108   2.109   2.110   2.211   2.223
  2.225   2.319   2.327   2.328   2.403   2.407   2.427   2.517
  3.568   3.569   3.719   3.721   3.730   4.182   4.184   4.188
  4.191   4.195   4.211   4.222   4.222   4.229   4.253   4.295
  4.302   4.304   4.308   4.312   4.317   4.328   4.330   4.375
  4.395   4.399   4.402   4.414   4.425   4.425   4.427   4.438
  4.440   4.838   4.843   4.845   4.854   4.861   4.864   4.893
  4.895   4.946   4.965   4.968   5.023   5.039   5.046   5.066
  5.089   5.090   5.248   5.255   5.288   6.208   9.595   9.603
  9.638   9.768  11.403  11.403  11.406  17.302  17.376  17.386
 17.461  17.519  20.295  20.297  20.320  20.341  20.343  20.397
 20.428  20.430  20.575  20.583  20.605  20.655  21.835  21.837
 21.843  21.845  21.845  21.847  21.857  26.788  26.799  26.806
 26.841  26.858  26.868  26.875  26.884  26.896  26.901  26.912
 26.913  26.923  26.945  26.952  26.955  26.973  26.988  26.995
 27.052  36.496  36.498  36.499  36.500  36.506  36.506  36.510
 36.512  36.514  36.515  36.517  36.520  36.520  36.522  36.523
 36.525  36.530  36.532  36.534  36.537  36.539  36.569  36.572
 36.580  36.582  36.586  36.588  36.590 141.152 215.488 215.497
215.536 215.693
 --------------------------------------------------------------
 
          Ground-State Mulliken Net Atomic Charges

     Atom                 Charge (a.u.)    Spin (a.u.)
  --------------------------------------------------------
      1 Si                    1.623184      -0.079043
      2 Cl                   -0.104735       0.372900
      3 Cl                   -0.139545       0.305134
      4 Cl                   -0.098615       0.383129
      5 Cl                   -0.280289       0.017881
  --------------------------------------------------------
  Sum of atomic charges =     1.000000
  Sum of spin   charges =     1.000000

 -----------------------------------------------------------------
                    Cartesian Multipole Moments
 -----------------------------------------------------------------
    Charge (ESU x 10^10)
                 4.8032
    Dipole Moment (Debye)
         X       0.4664      Y       1.4544      Z       0.6728
       Tot       1.6689
    Quadrupole Moments (Debye-Ang)
        XX     -50.1477     XY      -2.0660     YY     -51.3179
        XZ      -0.4999     YZ      -1.3814     ZZ     -48.7379
    Octapole Moments (Debye-Ang^2)
       XXX      11.6380    XXY       1.7655    XYY      -9.3598
       YYY       5.3055    XXZ      -6.1371    XYZ      -0.1603
       YYZ      -6.1247    XZZ       0.5662    YZZ       1.8813
       ZZZ      16.4059
    Hexadecapole Moments (Debye-Ang^3)
      XXXX    -394.5058   XXXY      -6.1069   XXYY    -132.1147
      XYYY      -5.7817   YYYY    -402.1577   XXXZ     -11.2822
      XXYZ      -1.2290   XYYZ       9.1439   YYYZ      -3.5689
      XXZZ    -137.0863   XYZZ      -2.4121   YYZZ    -137.5277
      XZZZ      -1.4298   YZZZ      -4.7377   ZZZZ    -380.0673
 -----------------------------------------------------------------
 Total job time:  589.85s(wall), 585.28s(cpu) 
 Wed Mar 26 00:48:45 2014

        *************************************************************
        *                                                           *
        *  Thank you very much for using Q-Chem.  Have a nice day.  *
        *                                                           *
        *************************************************************


0 sent ACK to 0 
now end server 0 ... 
