Process 0 of 1 is on cl203.stfx.acenet.ca - thread support 1
initial socket setup ...start
initial socket setup ...done 
now start server 0 ... 

cmd = /usr/bin/ssh clhead /usr/local/qchem/bin/get_hostid 1691100025 > /scratch/tmp/6063995.1.medium.q/qchem21726/lic.dat
                  Welcome to Q-Chem
     A Quantum Leap Into The Future Of Chemistry

 Y. Shao, L. Fusti-Molnar, Y. Jung, J. Kussmann, C. Ochsenfeld,
 S. T. Brown, A. T. B. Gilbert, L. V. Slipchenko,S. V. Levchenko,
 D. P. O'Neill, R. A. DiStasio Jr., R. C. Lochan, T. Wang,
 G. J. O. Beran, N. A. Besley, J. M. Herbert, C. Y. Lin,
 T. Van Voorhis, S. H. Chien, A. Sodt, R. P. Steele, 
 V. A. Rassolov, P. E. Maslen, P. P. Korambath, R. D. Adamson,
 B. Austin, J. Baker, E. F. C. Byrd, H. Dachsel, R. J. Doerksen,
 A. Dreuw, B. D. Dunietz, A. D. Dutoi, T. R. Furlani,
 S. R. Gwaltney, A. Heyden, S. Hirata, C.-P. Hsu, G. Kedziora,
 R. Z. Khaliullin, P. Klunzinger, A. M. Lee, M. S. Lee, W. Liang,
 I. Lotan, N. Nair, B. Peters, E. I. Proynov, P. A. Pieniazek, 
 Y. M. Rhee, J. Ritchie, E. Rosta, C. D. Sherrill, 
 A. C. Simmonett, J. E. Subotnik, H. L. Woodcock III,
 W. Zhang, A. T. Bell, A. K. Chakraborty, D. M. Chipman,
 F. J. Keil, A. Warshel, W. J. Hehre, H. F. Schaefer III,
 J. Kong, A. I. Krylov, P. M. W. Gill, M. Head-Gordon,
 Q-Chem, Version 3.1, Q-Chem, Inc., Pittsburgh, PA (2007).

 Additional authors for Version 3.1: 
 Z. Gan, Y. Zhao, N. E. Schultz, D. Truhlar, E. Epifanovsky and M. Oana.

 Additional authors for Version 3.2: 
 R. Baer, B. R. Brooks, D. Casanova, J.-D. Chai, C.-L. Cheng, 
 C. Cramer, D. Crittenden, A. Ghysels, G. Hawkins, E. G. Hohenstein, 
 C. Kelley, W. Kurlancheek, D. Liotard, E. Livshits, P. Manohar, 
 A. Marenich, D. Neuhauser, R. Olson, M. A. Rohrdanz, K. S. Thanthiriwatte, 
 A. J. W. Thom, V. Vanovschi, C. F. Williams, Q. Wu and Z.-Q. You. 


 Intel X86 Linux Version

 Q-chem begins on Sun Jul  7 09:39:34 2013  

 Parallel job on  1  processors
Processing $rem in /usr/local/qchem/config/preferences.

theFileMan(): MAXOPENFILES=974 MAX_SUB_FILE_NUM=16
Maximum size of a physical file is 2.0 GB, maximum size of a tmp-file is 32.0 GB


--------------------------------------------------------------
User input:
--------------------------------------------------------------

$molecule
-1,2
C          0.00000        0.00000       -1.45192
C          0.00000        0.00000       -0.12254
H          0.92778        0.00000       -2.01951
H         -0.92778        0.00000       -2.01951
C          1.27109        0.00000        0.67643
H          2.15408        0.00000        0.03271
H          1.31924        0.87967        1.32933
H          1.31924       -0.87967        1.32933
C         -1.27109        0.00000        0.67643
H         -2.15408        0.00000        0.03271
H         -1.31924       -0.87967        1.32933
H         -1.31924        0.87967        1.32933
$end

$comment
negative
$end

$xc_functional
C PBE   1.00
X wPBE  1.00
$end

$rem
SYMMETRY_DECOMPOSITION	0
exchange 		general
LRC_DFT                 true
BASIS                   g3large
omega			280
mem_static              760
max_scf_cycles          200
scf_final_print         1
sym_ignore              true
$end

--------------------------------------------------------------
 Writing REM_CC_EA           12
 ----------------------------------------------------
       Standard Nuclear Orientation (Angstroms)
    I     Atom         X            Y            Z
 ----------------------------------------------------
    1      C       0.000000     0.000000    -1.451920
    2      C       0.000000     0.000000    -0.122540
    3      H       0.927780     0.000000    -2.019510
    4      H      -0.927780     0.000000    -2.019510
    5      C       1.271090     0.000000     0.676430
    6      H       2.154080     0.000000     0.032710
    7      H       1.319240     0.879670     1.329330
    8      H       1.319240    -0.879670     1.329330
    9      C      -1.271090     0.000000     0.676430
   10      H      -2.154080     0.000000     0.032710
   11      H      -1.319240    -0.879670     1.329330
   12      H      -1.319240     0.879670     1.329330
 ----------------------------------------------------
 Nuclear Repulsion Energy =   119.8926149182 hartrees
 There are       17 alpha and       16 beta electrons
 Requested basis set is G3large
 There are 88 shells and 248 basis functions

Total QAlloc Memory Limit   2000 MB
Mega-Array Size       743 MB
MEM_STATIC part       760 MB

                       Distance Matrix (Angstroms)
             C (  1)   C (  2)   H (  3)   H (  4)   C (  5)   H (  6)
   C (  2)  1.329380
   H (  3)  1.087628  2.111699
   H (  4)  1.087628  2.111699  1.855560
   C (  5)  2.479021  1.501340  2.717711  3.478954
   H (  6)  2.616140  2.159667  2.390694  3.702630  1.092724
   H (  7)  3.201494  2.149916  3.484507  4.127669  1.096547  1.775387
   H (  8)  3.201494  2.149916  3.484507  4.127669  1.096547  1.775387
   C (  9)  2.479021  1.501340  3.478954  2.717711  2.542180  3.485135
   H ( 10)  2.616140  2.159667  3.702630  2.390694  3.485135  4.308160
   H ( 11)  3.201494  2.149916  4.127669  3.484507  2.812456  3.810380
   H ( 12)  3.201494  2.149916  4.127669  3.484507  2.812456  3.810380
             H (  7)   H (  8)   C (  9)   H ( 10)   H ( 11)
   H (  8)  1.759340
   C (  9)  2.812456  2.812456
   H ( 10)  3.810380  3.810380  1.092724
   H ( 11)  3.171254  2.638480  1.096547  1.775387
   H ( 12)  2.638480  3.171254  1.096547  1.775387  1.759340
 
 A cutoff of  1.0D-08 yielded   3625 shell pairs
 There are  28999 function pairs ( 35047 Cartesian)
Evaluating contribution to one-electron hamiltonian from nuclear
 Smallest overlap matrix eigenvalue = 1.72E-05

 Q-Chem warning in module mkSTV.C, line 194:

 Overlap eigenvalue is smaller than square root of threshold

 Multipole matrices computed through 2nd order

  Scale SEOQF with 1.000000e-01/1.000000e-01/1.000000e-01

 Standard Electronic Orientation quadrupole field applied
 Nucleus-field energy     =    -0.0000000020 hartrees
 Guess from superposition of atomic densities
 Warning:  Energy on first SCF cycle will be non-variational
 Long-range K will be added via erf
 Coulomb attenuation parameter = 0.28 bohr**(-1)
 An unrestricted Kohn-Sham SCF calculation will be
 performed using Pulay DIIS extrapolation
 Exchange:  wPBE + LR-HF      Correlation:  PBE
 Using SG-1 standard quadrature grid
 SCF converges when DIIS error is below 1.0E-05
 Requested basis set is G3large
 There are 88 shells and 248 basis functions
 A cutoff of  1.0D-08 yielded   3625 shell pairs
 There are  28999 function pairs ( 35047 Cartesian)
 Warning!  Inaccurate integrated density:
   Number of electrons =    33
   Numerical integral  =    31.999956925844
   Relative error      =    -3.0304335580 %
 ---------------------------------------
  Cycle       Energy         DIIS Error
 ---------------------------------------
    1    -158.0528792293      2.77E-02
    2    -156.8369927924      4.58E-03
    3    -156.7552177141      6.06E-03
    4    -157.0762407730      1.18E-03
    5    -157.0923330752      3.71E-04
    6    -157.0937348878      9.67E-05
    7    -157.0939946900      3.56E-05
    8    -157.0940668467      1.52E-05
    9    -157.0941029239      7.60E-06 Convergence criterion met
 ---------------------------------------
 One-Electron    Energy =  -451.1406921356
 Total Coulomb   Energy =   198.7646347939
 Alpha Exchange  Energy =    -2.3931361831
 Beta  Exchange  Energy =    -2.3366177059
 DFT   Exchange  Energy =   -18.8537211720
 DFT Correlation Energy =    -1.0271854374
 Nuclear Repu.   Energy =   119.8926149162
 Nuclear Attr.   Energy =  -607.5577769356
 Kinetic         Energy =   156.4170848001
 <S^2> = 0.7501
 SCF time:  CPU 250.80 s  wall 251.49 s
 Final Alpha MO Eigenvalues
            1           2           3           4           5           6
    1  -9.9245466  -9.8983676  -9.8976760  -9.8947255  -0.7719885  -0.6557927
            7           8           9          10          11          12
    1  -0.6454200  -0.4897547  -0.4214334  -0.4094995  -0.3975528  -0.3433824
           13          14          15          16          17          18
    1  -0.3294252  -0.3240064  -0.2995084  -0.2145048   0.0287025   0.1210866
           19          20          21          22
    1   0.1337066   0.1423979   0.1548053   0.1637891
 Final Beta MO Eigenvalues
            1           2           3           4           5           6
    1  -9.9244721  -9.8980007  -9.8972978  -9.8946940  -0.7716881  -0.6550159
            7           8           9          10          11          12
    1  -0.6449968  -0.4888956  -0.4209087  -0.4091277  -0.3966707  -0.3427824
           13          14          15          16          17          18
    1  -0.3289868  -0.3233264  -0.2990679  -0.2142891   0.1256631   0.1338592
           19          20          21
    1   0.1449832   0.1556891   0.1584653
 Analysis of SCF Wavefunction
 
 --------------------------------------------------------------
                    Orbital Energies (a.u.)
 --------------------------------------------------------------
 
 Alpha MOs
 -- Occupied --
 -9.925  -9.898  -9.898  -9.895  -0.772  -0.656  -0.645  -0.490
 -0.421  -0.409  -0.398  -0.343  -0.329  -0.324  -0.300  -0.215
  0.029
 -- Virtual --
  0.121   0.134   0.142   0.155   0.164   0.185   0.195   0.198
  0.215   0.247   0.251   0.251   0.271   0.276   0.280   0.285
  0.285   0.308   0.308   0.313   0.321   0.328   0.369   0.374
  0.378   0.381   0.392   0.392   0.411   0.436   0.463   0.478
  0.495   0.566   0.593   0.609   0.620   0.665   0.668   0.678
  0.700   0.708   0.708   0.734   0.752   0.759   0.765   0.774
  0.787   0.794   0.816   0.845   0.869   0.871   0.876   0.884
  0.891   0.906   0.949   0.987   1.024   1.030   1.054   1.073
  1.092   1.126   1.152   1.184   1.198   1.225   1.254   1.294
  1.314   1.316   1.340   1.347   1.358   1.397   1.421   1.446
  1.460   1.464   1.498   1.517   1.527   1.535   1.556   1.587
  1.643   1.648   1.651   1.673   1.702   1.719   1.737   1.766
  1.788   1.790   1.807   1.836   1.900   2.009   2.116   2.507
  2.598   2.647   2.700   2.756   2.774   2.871   2.879   2.920
  2.942   2.945   2.993   2.996   3.007   3.068   3.082   3.123
  3.136   3.159   3.205   3.217   3.266   3.268   3.270   3.294
  3.325   3.337   3.345   3.375   3.389   3.401   3.426   3.457
  3.488   3.523   3.549   3.553   3.568   3.629   3.633   3.694
  3.711   3.734   3.761   3.825   3.838   3.865   3.872   3.954
  3.961   4.006   4.042   4.104   4.106   4.108   4.170   4.202
  4.208   4.242   4.305   4.330   4.334   4.385   4.408   4.423
  4.425   4.438   4.518   4.559   4.579   4.591   4.592   4.637
  4.767   4.767   4.775   4.807   4.814   4.919   4.926   4.977
  5.172   5.258   5.468   5.594   5.704   5.805   5.833   5.839
  5.874   5.900   6.115  23.998  24.361  24.392  24.811  27.377
 27.591  27.779  27.995  28.168  28.186  28.222  28.236  28.319
 28.374  28.661  28.672  40.922  41.004  41.009  41.011  41.050
 41.089  41.105  41.214  41.220  41.254  41.269  41.274  41.325
 41.325  41.348  41.349  41.352  41.385  41.392  41.455
 
 Beta MOs
 -- Occupied --
 -9.924  -9.898  -9.897  -9.895  -0.772  -0.655  -0.645  -0.489
 -0.421  -0.409  -0.397  -0.343  -0.329  -0.323  -0.299  -0.214
 -- Virtual --
  0.126   0.134   0.145   0.156   0.158   0.166   0.185   0.194
  0.198   0.213   0.242   0.245   0.250   0.271   0.274   0.277
  0.280   0.284   0.303   0.307   0.312   0.319   0.321   0.365
  0.372   0.376   0.378   0.390   0.392   0.411   0.435   0.461
  0.474   0.489   0.564   0.592   0.607   0.617   0.663   0.667
  0.676   0.700   0.706   0.707   0.733   0.751   0.757   0.764
  0.773   0.787   0.793   0.815   0.844   0.867   0.872   0.876
  0.881   0.890   0.904   0.949   0.987   1.025   1.031   1.054
  1.073   1.093   1.126   1.153   1.184   1.199   1.226   1.254
  1.294   1.315   1.316   1.341   1.347   1.359   1.398   1.421
  1.447   1.460   1.464   1.498   1.518   1.527   1.536   1.555
  1.587   1.643   1.648   1.652   1.673   1.703   1.719   1.737
  1.767   1.788   1.791   1.808   1.836   1.900   2.009   2.116
  2.507   2.598   2.646   2.700   2.756   2.774   2.871   2.879
  2.920   2.942   2.945   2.993   2.997   3.007   3.068   3.082
  3.123   3.137   3.160   3.206   3.217   3.266   3.269   3.270
  3.295   3.325   3.338   3.346   3.375   3.389   3.401   3.426
  3.458   3.488   3.523   3.549   3.553   3.569   3.629   3.633
  3.695   3.712   3.734   3.762   3.825   3.838   3.866   3.872
  3.954   3.961   4.006   4.042   4.105   4.106   4.108   4.170
  4.202   4.208   4.243   4.305   4.331   4.334   4.385   4.408
  4.423   4.425   4.438   4.519   4.559   4.579   4.591   4.593
  4.637   4.767   4.767   4.776   4.807   4.815   4.919   4.926
  4.977   5.172   5.259   5.468   5.595   5.704   5.805   5.834
  5.840   5.875   5.901   6.115  23.998  24.362  24.392  24.811
 27.377  27.591  27.780  27.996  28.168  28.186  28.223  28.236
 28.320  28.374  28.662  28.672  40.922  41.004  41.009  41.012
 41.050  41.089  41.106  41.214  41.220  41.254  41.270  41.275
 41.325  41.326  41.348  41.349  41.352  41.385  41.392  41.455
 --------------------------------------------------------------
 
          Ground-State Mulliken Net Atomic Charges

     Atom                 Charge (a.u.)    Spin (a.u.)
  --------------------------------------------------------
      1 C                     1.673811      -2.422063
      2 C                    -3.165331       3.982005
      3 H                    -0.091289       0.189233
      4 H                    -0.118170       0.217336
      5 C                     2.127191      -2.548248
      6 H                    -0.711035       0.801066
      7 H                    -0.557257       0.655816
      8 H                    -0.564519       0.663654
      9 C                     2.320732      -2.742188
     10 H                    -0.743652       0.834769
     11 H                    -0.592074       0.691466
     12 H                    -0.578407       0.677154
  --------------------------------------------------------
  Sum of atomic charges =    -1.000000
  Sum of spin   charges =     1.000000

 -----------------------------------------------------------------
                    Cartesian Multipole Moments
 -----------------------------------------------------------------
    Charge (ESU x 10^10)
                -4.8032
    Dipole Moment (Debye)
         X       0.2502      Y       0.0730      Z      -4.9828
       Tot       4.9896
    Quadrupole Moments (Debye-Ang)
        XX     -62.8412     XY      -0.0317     YY     -55.5349
        XZ       0.1525     YZ       0.1205     ZZ     -61.5265
    Octapole Moments (Debye-Ang^2)
       XXX       4.2751    XXY       0.3351    XYY       1.1008
       YYY       0.8339    XXZ     -28.8226    XYZ      -0.0516
       YYZ     -28.4960    XZZ       1.4888    YZZ       0.4777
       ZZZ     -81.5523
    Hexadecapole Moments (Debye-Ang^3)
      XXXX    -870.3115   XXXY      -0.3547   XXYY    -193.6074
      XYYY      -0.3159   YYYY    -378.7048   XXXZ       1.7084
      XXYZ       0.5000   XYYZ       0.7477   YYYZ       1.1938
      XXZZ    -267.6565   XYZZ      -0.1742   YYZZ    -190.9276
      XZZZ       2.0678   YZZZ       1.3555   ZZZZ    -737.0593
 -----------------------------------------------------------------
 Total job time:  251.84s(wall), 251.14s(cpu) 
 Sun Jul  7 09:43:46 2013

        *************************************************************
        *                                                           *
        *  Thank you very much for using Q-Chem.  Have a nice day.  *
        *                                                           *
        *************************************************************


0 sent ACK to 0 
now end server 0 ... 
 
**********************************************************************
Job 2 of 3 
**********************************************************************
 
Process 0 of 1 is on cl203.stfx.acenet.ca - thread support 1
initial socket setup ...start
initial socket setup ...done 
now start server 0 ... 

cmd = /usr/bin/ssh clhead /usr/local/qchem/bin/get_hostid 1749790051 > /scratch/tmp/6063995.1.medium.q/qchem21726/lic.dat
                  Welcome to Q-Chem
     A Quantum Leap Into The Future Of Chemistry

 Y. Shao, L. Fusti-Molnar, Y. Jung, J. Kussmann, C. Ochsenfeld,
 S. T. Brown, A. T. B. Gilbert, L. V. Slipchenko,S. V. Levchenko,
 D. P. O'Neill, R. A. DiStasio Jr., R. C. Lochan, T. Wang,
 G. J. O. Beran, N. A. Besley, J. M. Herbert, C. Y. Lin,
 T. Van Voorhis, S. H. Chien, A. Sodt, R. P. Steele, 
 V. A. Rassolov, P. E. Maslen, P. P. Korambath, R. D. Adamson,
 B. Austin, J. Baker, E. F. C. Byrd, H. Dachsel, R. J. Doerksen,
 A. Dreuw, B. D. Dunietz, A. D. Dutoi, T. R. Furlani,
 S. R. Gwaltney, A. Heyden, S. Hirata, C.-P. Hsu, G. Kedziora,
 R. Z. Khaliullin, P. Klunzinger, A. M. Lee, M. S. Lee, W. Liang,
 I. Lotan, N. Nair, B. Peters, E. I. Proynov, P. A. Pieniazek, 
 Y. M. Rhee, J. Ritchie, E. Rosta, C. D. Sherrill, 
 A. C. Simmonett, J. E. Subotnik, H. L. Woodcock III,
 W. Zhang, A. T. Bell, A. K. Chakraborty, D. M. Chipman,
 F. J. Keil, A. Warshel, W. J. Hehre, H. F. Schaefer III,
 J. Kong, A. I. Krylov, P. M. W. Gill, M. Head-Gordon,
 Q-Chem, Version 3.1, Q-Chem, Inc., Pittsburgh, PA (2007).

 Additional authors for Version 3.1: 
 Z. Gan, Y. Zhao, N. E. Schultz, D. Truhlar, E. Epifanovsky and M. Oana.

 Additional authors for Version 3.2: 
 R. Baer, B. R. Brooks, D. Casanova, J.-D. Chai, C.-L. Cheng, 
 C. Cramer, D. Crittenden, A. Ghysels, G. Hawkins, E. G. Hohenstein, 
 C. Kelley, W. Kurlancheek, D. Liotard, E. Livshits, P. Manohar, 
 A. Marenich, D. Neuhauser, R. Olson, M. A. Rohrdanz, K. S. Thanthiriwatte, 
 A. J. W. Thom, V. Vanovschi, C. F. Williams, Q. Wu and Z.-Q. You. 


 Intel X86 Linux Version

 Q-chem begins on Sun Jul  7 09:43:49 2013  

 Parallel job on  1  processors
Processing $rem in /usr/local/qchem/config/preferences.

theFileMan(): MAXOPENFILES=974 MAX_SUB_FILE_NUM=16
Maximum size of a physical file is 2.0 GB, maximum size of a tmp-file is 32.0 GB


--------------------------------------------------------------
User input:
--------------------------------------------------------------

$molecule
0,1
C          0.00000        0.00000       -1.45192
C          0.00000        0.00000       -0.12254
H          0.92778        0.00000       -2.01951
H         -0.92778        0.00000       -2.01951
C          1.27109        0.00000        0.67643
H          2.15408        0.00000        0.03271
H          1.31924        0.87967        1.32933
H          1.31924       -0.87967        1.32933
C         -1.27109        0.00000        0.67643
H         -2.15408        0.00000        0.03271
H         -1.31924       -0.87967        1.32933
H         -1.31924        0.87967        1.32933
$end

$comment
neutral
$end

$xc_functional
C PBE   1.00
X wPBE  1.00
$end


$rem
SYMMETRY_DECOMPOSITION	0
LRC_DFT                 true
exchange 		general
BASIS                   g3large
omega			280
mem_static              760
max_scf_cycles          200
scf_final_print         1
sym_ignore              true
$end

--------------------------------------------------------------
 Writing REM_CC_EA           12
 ----------------------------------------------------
       Standard Nuclear Orientation (Angstroms)
    I     Atom         X            Y            Z
 ----------------------------------------------------
    1      C       0.000000     0.000000    -1.451920
    2      C       0.000000     0.000000    -0.122540
    3      H       0.927780     0.000000    -2.019510
    4      H      -0.927780     0.000000    -2.019510
    5      C       1.271090     0.000000     0.676430
    6      H       2.154080     0.000000     0.032710
    7      H       1.319240     0.879670     1.329330
    8      H       1.319240    -0.879670     1.329330
    9      C      -1.271090     0.000000     0.676430
   10      H      -2.154080     0.000000     0.032710
   11      H      -1.319240    -0.879670     1.329330
   12      H      -1.319240     0.879670     1.329330
 ----------------------------------------------------
 Nuclear Repulsion Energy =   119.8926149182 hartrees
 There are       16 alpha and       16 beta electrons
 Requested basis set is G3large
 There are 88 shells and 248 basis functions

Total QAlloc Memory Limit   2000 MB
Mega-Array Size       743 MB
MEM_STATIC part       760 MB

                       Distance Matrix (Angstroms)
             C (  1)   C (  2)   H (  3)   H (  4)   C (  5)   H (  6)
   C (  2)  1.329380
   H (  3)  1.087628  2.111699
   H (  4)  1.087628  2.111699  1.855560
   C (  5)  2.479021  1.501340  2.717711  3.478954
   H (  6)  2.616140  2.159667  2.390694  3.702630  1.092724
   H (  7)  3.201494  2.149916  3.484507  4.127669  1.096547  1.775387
   H (  8)  3.201494  2.149916  3.484507  4.127669  1.096547  1.775387
   C (  9)  2.479021  1.501340  3.478954  2.717711  2.542180  3.485135
   H ( 10)  2.616140  2.159667  3.702630  2.390694  3.485135  4.308160
   H ( 11)  3.201494  2.149916  4.127669  3.484507  2.812456  3.810380
   H ( 12)  3.201494  2.149916  4.127669  3.484507  2.812456  3.810380
             H (  7)   H (  8)   C (  9)   H ( 10)   H ( 11)
   H (  8)  1.759340
   C (  9)  2.812456  2.812456
   H ( 10)  3.810380  3.810380  1.092724
   H ( 11)  3.171254  2.638480  1.096547  1.775387
   H ( 12)  2.638480  3.171254  1.096547  1.775387  1.759340
 
 A cutoff of  1.0D-08 yielded   3625 shell pairs
 There are  28999 function pairs ( 35047 Cartesian)
Evaluating contribution to one-electron hamiltonian from nuclear
 Smallest overlap matrix eigenvalue = 1.72E-05

 Q-Chem warning in module mkSTV.C, line 194:

 Overlap eigenvalue is smaller than square root of threshold

 Multipole matrices computed through 2nd order

  Scale SEOQF with 1.000000e-01/1.000000e-01/1.000000e-01

 Standard Electronic Orientation quadrupole field applied
 Nucleus-field energy     =    -0.0000000020 hartrees
 Guess from superposition of atomic densities
 Warning:  Energy on first SCF cycle will be non-variational
 Long-range K will be added via erf
 Coulomb attenuation parameter = 0.28 bohr**(-1)
 A restricted Kohn-Sham SCF calculation will be
 performed using Pulay DIIS extrapolation
 Exchange:  wPBE + LR-HF      Correlation:  PBE
 Using SG-1 standard quadrature grid
 SCF converges when DIIS error is below 1.0E-05
 Requested basis set is G3large
 There are 88 shells and 248 basis functions
 A cutoff of  1.0D-08 yielded   3625 shell pairs
 There are  28999 function pairs ( 35047 Cartesian)
 ---------------------------------------
  Cycle       Energy         DIIS Error
 ---------------------------------------
    1    -158.0528792293      2.77E-02
    2    -157.0600181306      2.81E-03
    3    -157.0988935271      1.90E-03
    4    -157.1257020717      1.69E-04
    5    -157.1262100568      5.92E-05
    6    -157.1262352156      3.08E-05
    7    -157.1262472320      8.32E-06 Convergence criterion met
 ---------------------------------------
 One-Electron    Energy =  -447.1525103334
 Total Coulomb   Energy =   194.6749357327
 Alpha Exchange  Energy =    -2.3375109677
 Beta  Exchange  Energy =    -2.3375109677
 DFT   Exchange  Energy =   -18.8458430937
 DFT Correlation Energy =    -1.0204225185
 Nuclear Repu.   Energy =   119.8926149162
 Nuclear Attr.   Energy =  -603.5023638409
 Kinetic         Energy =   156.3498535075
 SCF time:  CPU 146.95 s  wall 147.35 s
 Final Alpha MO Eigenvalues
            1           2           3           4           5           6
    1 -10.0465688 -10.0287755 -10.0287488 -10.0160068  -0.8971900  -0.7843223
            7           8           9          10          11          12
    1  -0.7694529  -0.6131848  -0.5451760  -0.5347962  -0.5265277  -0.4739854
           13          14          15          16          17          18
    1  -0.4558672  -0.4502100  -0.4236015  -0.3373691   0.0364077   0.0511733
           19          20          21
    1   0.0587252   0.0589374   0.0735912
 Analysis of SCF Wavefunction
 
 --------------------------------------------------------------
                    Orbital Energies (a.u.)
 --------------------------------------------------------------
 
 Alpha MOs
 -- Occupied --
-10.047 -10.029 -10.029 -10.016  -0.897  -0.784  -0.769  -0.613
 -0.545  -0.535  -0.527  -0.474  -0.456  -0.450  -0.424  -0.337
 -- Virtual --
  0.036   0.051   0.059   0.059   0.074   0.081   0.092   0.096
  0.112   0.117   0.141   0.144   0.153   0.169   0.170   0.183
  0.186   0.188   0.200   0.204   0.210   0.211   0.220   0.255
  0.256   0.264   0.268   0.275   0.283   0.296   0.324   0.345
  0.362   0.382   0.454   0.478   0.487   0.501   0.544   0.547
  0.562   0.575   0.584   0.592   0.612   0.632   0.637   0.644
  0.650   0.668   0.671   0.694   0.731   0.746   0.750   0.751
  0.760   0.769   0.790   0.827   0.867   0.900   0.902   0.932
  0.949   0.964   1.008   1.025   1.063   1.073   1.099   1.130
  1.168   1.191   1.192   1.215   1.223   1.231   1.270   1.299
  1.321   1.336   1.341   1.373   1.391   1.400   1.408   1.430
  1.466   1.516   1.524   1.527   1.548   1.582   1.598   1.611
  1.639   1.664   1.666   1.681   1.710   1.779   1.883   1.992
  2.378   2.477   2.521   2.574   2.627   2.653   2.748   2.758
  2.792   2.818   2.820   2.869   2.872   2.882   2.941   2.956
  2.997   3.007   3.033   3.083   3.096   3.142   3.144   3.146
  3.168   3.197   3.216   3.217   3.246   3.262   3.274   3.301
  3.331   3.366   3.398   3.423   3.429   3.444   3.505   3.507
  3.566   3.586   3.607   3.634   3.701   3.710   3.740   3.747
  3.830   3.833   3.880   3.914   3.977   3.979   3.980   4.044
  4.075   4.084   4.114   4.183   4.205   4.206   4.265   4.279
  4.293   4.298   4.312   4.392   4.431   4.450   4.463   4.466
  4.510   4.639   4.643   4.648   4.680   4.687   4.796   4.800
  4.852   5.045   5.135   5.344   5.468   5.580   5.686   5.703
  5.708   5.746   5.773   5.993  23.876  24.232  24.261  24.689
 27.255  27.469  27.653  27.868  28.037  28.055  28.094  28.106
 28.197  28.252  28.537  28.545  40.800  40.875  40.878  40.886
 40.928  40.960  40.975  41.091  41.098  41.132  41.139  41.145
 41.198  41.203  41.218  41.221  41.223  41.258  41.268  41.332
 --------------------------------------------------------------
 
          Ground-State Mulliken Net Atomic Charges

     Atom                 Charge (a.u.)
  ----------------------------------------
      1 C                    -0.672856
      2 C                     0.722079
      3 H                     0.105372
      4 H                     0.105411
      5 C                    -0.403297
      6 H                     0.099017
      7 H                     0.087037
      8 H                     0.087047
      9 C                    -0.402839
     10 H                     0.099008
     11 H                     0.087009
     12 H                     0.087012
  ----------------------------------------
  Sum of atomic charges =     0.000000

 -----------------------------------------------------------------
                    Cartesian Multipole Moments
 -----------------------------------------------------------------
    Charge (ESU x 10^10)
                 0.0000
    Dipole Moment (Debye)
         X       0.0000      Y       0.0000      Z       0.5788
       Tot       0.5788
    Quadrupole Moments (Debye-Ang)
        XX     -25.7326     XY      -0.0009     YY     -28.2224
        XZ       0.0001     YZ       0.0000     ZZ     -26.3040
    Octapole Moments (Debye-Ang^2)
       XXX       0.0004    XXY       0.0000    XYY       0.0001
       YYY       0.0000    XXZ      -2.2319    XYZ       0.0006
       YYZ       3.9466    XZZ       0.0002    YZZ      -0.0001
       ZZZ      -0.5864
    Hexadecapole Moments (Debye-Ang^3)
      XXXX    -212.5114   XXXY      -0.0030   XXYY     -44.4974
      XYYY      -0.0004   YYYY     -46.6245   XXXZ       0.0002
      XXYZ       0.0000   XYYZ       0.0002   YYYZ      -0.0001
      XXZZ     -66.2230   XYZZ      -0.0039   YYZZ     -41.1237
      XZZZ       0.0004   YZZZ       0.0003   ZZZZ    -196.8880
 -----------------------------------------------------------------
 Total job time:  147.67s(wall), 147.25s(cpu) 
 Sun Jul  7 09:46:16 2013

        *************************************************************
        *                                                           *
        *  Thank you very much for using Q-Chem.  Have a nice day.  *
        *                                                           *
        *************************************************************


0 sent ACK to 0 
now end server 0 ... 
 
**********************************************************************
Job 3 of 3 
**********************************************************************
 
Process 0 of 1 is on cl203.stfx.acenet.ca - thread support 1
initial socket setup ...start
initial socket setup ...done 
now start server 0 ... 

cmd = /usr/bin/ssh clhead /usr/local/qchem/bin/get_hostid 910905816 > /scratch/tmp/6063995.1.medium.q/qchem21726/lic.dat
                  Welcome to Q-Chem
     A Quantum Leap Into The Future Of Chemistry

 Y. Shao, L. Fusti-Molnar, Y. Jung, J. Kussmann, C. Ochsenfeld,
 S. T. Brown, A. T. B. Gilbert, L. V. Slipchenko,S. V. Levchenko,
 D. P. O'Neill, R. A. DiStasio Jr., R. C. Lochan, T. Wang,
 G. J. O. Beran, N. A. Besley, J. M. Herbert, C. Y. Lin,
 T. Van Voorhis, S. H. Chien, A. Sodt, R. P. Steele, 
 V. A. Rassolov, P. E. Maslen, P. P. Korambath, R. D. Adamson,
 B. Austin, J. Baker, E. F. C. Byrd, H. Dachsel, R. J. Doerksen,
 A. Dreuw, B. D. Dunietz, A. D. Dutoi, T. R. Furlani,
 S. R. Gwaltney, A. Heyden, S. Hirata, C.-P. Hsu, G. Kedziora,
 R. Z. Khaliullin, P. Klunzinger, A. M. Lee, M. S. Lee, W. Liang,
 I. Lotan, N. Nair, B. Peters, E. I. Proynov, P. A. Pieniazek, 
 Y. M. Rhee, J. Ritchie, E. Rosta, C. D. Sherrill, 
 A. C. Simmonett, J. E. Subotnik, H. L. Woodcock III,
 W. Zhang, A. T. Bell, A. K. Chakraborty, D. M. Chipman,
 F. J. Keil, A. Warshel, W. J. Hehre, H. F. Schaefer III,
 J. Kong, A. I. Krylov, P. M. W. Gill, M. Head-Gordon,
 Q-Chem, Version 3.1, Q-Chem, Inc., Pittsburgh, PA (2007).

 Additional authors for Version 3.1: 
 Z. Gan, Y. Zhao, N. E. Schultz, D. Truhlar, E. Epifanovsky and M. Oana.

 Additional authors for Version 3.2: 
 R. Baer, B. R. Brooks, D. Casanova, J.-D. Chai, C.-L. Cheng, 
 C. Cramer, D. Crittenden, A. Ghysels, G. Hawkins, E. G. Hohenstein, 
 C. Kelley, W. Kurlancheek, D. Liotard, E. Livshits, P. Manohar, 
 A. Marenich, D. Neuhauser, R. Olson, M. A. Rohrdanz, K. S. Thanthiriwatte, 
 A. J. W. Thom, V. Vanovschi, C. F. Williams, Q. Wu and Z.-Q. You. 


 Intel X86 Linux Version

 Q-chem begins on Sun Jul  7 09:46:19 2013  

 Parallel job on  1  processors
Processing $rem in /usr/local/qchem/config/preferences.

theFileMan(): MAXOPENFILES=974 MAX_SUB_FILE_NUM=16
Maximum size of a physical file is 2.0 GB, maximum size of a tmp-file is 32.0 GB


--------------------------------------------------------------
User input:
--------------------------------------------------------------

$molecule
1,2
C          0.00000        0.00000       -1.45192
C          0.00000        0.00000       -0.12254
H          0.92778        0.00000       -2.01951
H         -0.92778        0.00000       -2.01951
C          1.27109        0.00000        0.67643
H          2.15408        0.00000        0.03271
H          1.31924        0.87967        1.32933
H          1.31924       -0.87967        1.32933
C         -1.27109        0.00000        0.67643
H         -2.15408        0.00000        0.03271
H         -1.31924       -0.87967        1.32933
H         -1.31924        0.87967        1.32933
$end

$comment
positive
$end

$xc_functional
C PBE   1.00
X wPBE  1.00
$end

$rem
SYMMETRY_DECOMPOSITION	0
LRC_DFT                 true
exchange 		general
BASIS                   g3large
omega			280
mem_static              760
max_scf_cycles          200
scf_final_print         1
sym_ignore              true
$end

--------------------------------------------------------------
 Writing REM_CC_EA           12
 ----------------------------------------------------
       Standard Nuclear Orientation (Angstroms)
    I     Atom         X            Y            Z
 ----------------------------------------------------
    1      C       0.000000     0.000000    -1.451920
    2      C       0.000000     0.000000    -0.122540
    3      H       0.927780     0.000000    -2.019510
    4      H      -0.927780     0.000000    -2.019510
    5      C       1.271090     0.000000     0.676430
    6      H       2.154080     0.000000     0.032710
    7      H       1.319240     0.879670     1.329330
    8      H       1.319240    -0.879670     1.329330
    9      C      -1.271090     0.000000     0.676430
   10      H      -2.154080     0.000000     0.032710
   11      H      -1.319240    -0.879670     1.329330
   12      H      -1.319240     0.879670     1.329330
 ----------------------------------------------------
 Nuclear Repulsion Energy =   119.8926149182 hartrees
 There are       16 alpha and       15 beta electrons
 Requested basis set is G3large
 There are 88 shells and 248 basis functions

Total QAlloc Memory Limit   2000 MB
Mega-Array Size       743 MB
MEM_STATIC part       760 MB

                       Distance Matrix (Angstroms)
             C (  1)   C (  2)   H (  3)   H (  4)   C (  5)   H (  6)
   C (  2)  1.329380
   H (  3)  1.087628  2.111699
   H (  4)  1.087628  2.111699  1.855560
   C (  5)  2.479021  1.501340  2.717711  3.478954
   H (  6)  2.616140  2.159667  2.390694  3.702630  1.092724
   H (  7)  3.201494  2.149916  3.484507  4.127669  1.096547  1.775387
   H (  8)  3.201494  2.149916  3.484507  4.127669  1.096547  1.775387
   C (  9)  2.479021  1.501340  3.478954  2.717711  2.542180  3.485135
   H ( 10)  2.616140  2.159667  3.702630  2.390694  3.485135  4.308160
   H ( 11)  3.201494  2.149916  4.127669  3.484507  2.812456  3.810380
   H ( 12)  3.201494  2.149916  4.127669  3.484507  2.812456  3.810380
             H (  7)   H (  8)   C (  9)   H ( 10)   H ( 11)
   H (  8)  1.759340
   C (  9)  2.812456  2.812456
   H ( 10)  3.810380  3.810380  1.092724
   H ( 11)  3.171254  2.638480  1.096547  1.775387
   H ( 12)  2.638480  3.171254  1.096547  1.775387  1.759340
 
 A cutoff of  1.0D-08 yielded   3625 shell pairs
 There are  28999 function pairs ( 35047 Cartesian)
Evaluating contribution to one-electron hamiltonian from nuclear
 Smallest overlap matrix eigenvalue = 1.72E-05

 Q-Chem warning in module mkSTV.C, line 194:

 Overlap eigenvalue is smaller than square root of threshold

 Multipole matrices computed through 2nd order

  Scale SEOQF with 1.000000e-01/1.000000e-01/1.000000e-01

 Standard Electronic Orientation quadrupole field applied
 Nucleus-field energy     =    -0.0000000020 hartrees
 Guess from superposition of atomic densities
 Warning:  Energy on first SCF cycle will be non-variational
 Long-range K will be added via erf
 Coulomb attenuation parameter = 0.28 bohr**(-1)
 An unrestricted Kohn-Sham SCF calculation will be
 performed using Pulay DIIS extrapolation
 Exchange:  wPBE + LR-HF      Correlation:  PBE
 Using SG-1 standard quadrature grid
 SCF converges when DIIS error is below 1.0E-05
 Requested basis set is G3large
 There are 88 shells and 248 basis functions
 A cutoff of  1.0D-08 yielded   3625 shell pairs
 There are  28999 function pairs ( 35047 Cartesian)
 Warning!  Inaccurate integrated density:
   Number of electrons =    31
   Numerical integral  =    31.999956925844
   Relative error      =     3.2256675027 %
 ---------------------------------------
  Cycle       Energy         DIIS Error
 ---------------------------------------
    1    -158.0528792293      2.77E-02
    2    -156.7317924828      2.10E-03
    3    -156.7662532019      1.30E-03
    4    -156.7800491502      3.42E-04
    5    -156.7823030101      9.09E-05
    6    -156.7829062933      5.13E-05
    7    -156.7831385714      2.34E-05
    8    -156.7832151221      9.65E-06 Convergence criterion met
 ---------------------------------------
 One-Electron    Energy =  -439.3090547663
 Total Coulomb   Energy =   186.8842255602
 Alpha Exchange  Energy =    -2.3452883567
 Beta  Exchange  Energy =    -2.2005445254
 DFT   Exchange  Energy =   -18.7224427489
 DFT Correlation Energy =    -0.9827252011
 Nuclear Repu.   Energy =   119.8926149162
 Nuclear Attr.   Energy =  -595.4896703213
 Kinetic         Energy =   156.1806155549
 <S^2> = 0.7529
 SCF time:  CPU 217.53 s  wall 218.06 s
 Final Alpha MO Eigenvalues
            1           2           3           4           5           6
    1 -10.3469102 -10.3258996 -10.2451948 -10.2451776  -1.1745610  -1.0310239
            7           8           9          10          11          12
    1  -1.0073577  -0.8657712  -0.8006282  -0.7728020  -0.7648684  -0.6889073
           13          14          15          16          17          18
    1  -0.6855665  -0.6841516  -0.6566393  -0.6326189  -0.1881136  -0.1034231
           19          20          21
    1  -0.0729886  -0.0720211  -0.0591365
 Final Beta MO Eigenvalues
            1           2           3           4           5           6
    1 -10.3428794 -10.3169028 -10.2450670 -10.2450477  -1.1526670  -1.0147486
            7           8           9          10          11          12
    1  -1.0048860  -0.8546597  -0.7935943  -0.7695427  -0.7388478  -0.6810968
           13          14          15          16          17          18
    1  -0.6809154  -0.6781303  -0.6558494  -0.3466994  -0.1340806  -0.1018214
           19          20
    1  -0.0719825  -0.0716285
 Analysis of SCF Wavefunction
 
 --------------------------------------------------------------
                    Orbital Energies (a.u.)
 --------------------------------------------------------------
 
 Alpha MOs
 -- Occupied --
-10.347 -10.326 -10.245 -10.245  -1.175  -1.031  -1.007  -0.866
 -0.801  -0.773  -0.765  -0.689  -0.686  -0.684  -0.657  -0.633
 -- Virtual --
 -0.188  -0.103  -0.073  -0.072  -0.059  -0.053  -0.045  -0.033
 -0.029  -0.022  -0.019  -0.002   0.009   0.015   0.031   0.034
  0.037   0.039   0.044   0.048   0.054   0.061   0.065   0.085
  0.088   0.100   0.105   0.110   0.119   0.131   0.138   0.144
  0.199   0.223   0.261   0.264   0.304   0.324   0.339   0.341
  0.364   0.366   0.373   0.391   0.404   0.408   0.418   0.455
  0.460   0.463   0.478   0.489   0.508   0.517   0.535   0.547
  0.561   0.579   0.589   0.619   0.635   0.691   0.694   0.717
  0.731   0.755   0.794   0.820   0.843   0.851   0.896   0.923
  0.949   0.965   0.988   1.006   1.016   1.032   1.063   1.071
  1.102   1.125   1.127   1.149   1.186   1.197   1.199   1.237
  1.251   1.315   1.318   1.330   1.342   1.358   1.368   1.395
  1.436   1.438   1.469   1.480   1.492   1.538   1.650   1.756
  2.161   2.243   2.267   2.352   2.403   2.421   2.451   2.495
  2.539   2.560   2.567   2.599   2.605   2.629   2.682   2.717
  2.747   2.790   2.794   2.815   2.823   2.880   2.884   2.903
  2.927   2.955   2.966   2.993   3.020   3.023   3.035   3.059
  3.076   3.101   3.145   3.164   3.176   3.219   3.236   3.269
  3.346   3.352   3.363   3.396   3.445   3.466   3.485   3.507
  3.591   3.605   3.645   3.693   3.740   3.755   3.756   3.801
  3.833   3.838   3.887   3.943   3.956   3.978   4.009   4.058
  4.059   4.076   4.079   4.172   4.209   4.221   4.227   4.243
  4.270   4.390   4.400   4.405   4.455   4.457   4.550   4.552
  4.570   4.804   4.870   5.100   5.223   5.330   5.427   5.486
  5.492   5.535   5.555   5.729  23.579  24.005  24.044  24.388
 26.939  27.159  27.395  27.621  27.820  27.837  27.843  27.888
 27.924  27.953  28.264  28.293  40.493  40.590  40.611  40.661
 40.663  40.735  40.756  40.783  40.789  40.824  40.890  40.922
 40.926  40.931  40.935  40.992  41.001  41.004  41.026  41.060
 
 Beta MOs
 -- Occupied --
-10.343 -10.317 -10.245 -10.245  -1.153  -1.015  -1.005  -0.855
 -0.794  -0.770  -0.739  -0.681  -0.681  -0.678  -0.656
 -- Virtual --
 -0.347  -0.134  -0.102  -0.072  -0.072  -0.055  -0.052  -0.044
 -0.032  -0.022  -0.020  -0.016  -0.002   0.011   0.016   0.033
  0.035   0.041   0.042   0.048   0.050   0.055   0.063   0.068
  0.088   0.089   0.103   0.109   0.111   0.121   0.132   0.139
  0.150   0.200   0.225   0.264   0.272   0.308   0.325   0.348
  0.353   0.375   0.375   0.381   0.405   0.412   0.416   0.445
  0.456   0.465   0.466   0.480   0.492   0.526   0.530   0.540
  0.557   0.564   0.583   0.593   0.624   0.647   0.695   0.702
  0.719   0.738   0.761   0.796   0.826   0.851   0.860   0.898
  0.926   0.956   0.975   0.990   1.014   1.019   1.036   1.073
  1.080   1.111   1.128   1.131   1.159   1.187   1.202   1.203
  1.239   1.261   1.320   1.320   1.333   1.348   1.364   1.376
  1.404   1.438   1.442   1.472   1.492   1.495   1.552   1.659
  1.759   2.166   2.248   2.289   2.356   2.412   2.428   2.494
  2.512   2.562   2.571   2.575   2.622   2.637   2.638   2.708
  2.722   2.764   2.797   2.806   2.836   2.848   2.900   2.903
  2.904   2.939   2.961   2.973   2.999   3.029   3.037   3.044
  3.065   3.089   3.130   3.162   3.184   3.188   3.221   3.262
  3.279   3.350   3.354   3.375   3.412   3.462   3.488   3.490
  3.509   3.596   3.613   3.648   3.697   3.749   3.760   3.762
  3.805   3.845   3.848   3.892   3.945   3.968   3.984   4.019
  4.065   4.072   4.082   4.084   4.174   4.217   4.230   4.234
  4.248   4.280   4.395   4.412   4.416   4.459   4.463   4.552
  4.558   4.597   4.807   4.879   5.109   5.227   5.334   5.429
  5.493   5.498   5.537   5.557   5.734  23.587  24.007  24.044
 24.397  26.962  27.176  27.396  27.621  27.821  27.838  27.847
 27.888  27.926  27.958  28.266  28.294  40.505  40.596  40.629
 40.661  40.664  40.737  40.757  40.797  40.803  40.837  40.904
 40.923  40.926  40.933  40.939  40.994  41.002  41.004  41.026
 41.060
 --------------------------------------------------------------
 
          Ground-State Mulliken Net Atomic Charges

     Atom                 Charge (a.u.)    Spin (a.u.)
  --------------------------------------------------------
      1 C                    -0.354166       0.652778
      2 C                     0.734025       0.260016
      3 H                     0.180830      -0.020346
      4 H                     0.180854      -0.020348
      5 C                    -0.311541      -0.002263
      6 H                     0.130177      -0.002356
      7 H                     0.155352       0.034520
      8 H                     0.155227       0.034037
      9 C                    -0.311528      -0.002230
     10 H                     0.130194      -0.002355
     11 H                     0.155347       0.034515
     12 H                     0.155229       0.034033
  --------------------------------------------------------
  Sum of atomic charges =     1.000000
  Sum of spin   charges =     1.000000

 -----------------------------------------------------------------
                    Cartesian Multipole Moments
 -----------------------------------------------------------------
    Charge (ESU x 10^10)
                 4.8032
    Dipole Moment (Debye)
         X       0.0000      Y       0.0001      Z      -1.0336
       Tot       1.0336
    Quadrupole Moments (Debye-Ang)
        XX     -17.0535     XY       0.0002     YY     -22.8437
        XZ       0.0000     YZ      -0.0001     ZZ     -14.4041
    Octapole Moments (Debye-Ang^2)
       XXX      -0.0003    XXY       0.0000    XYY      -0.0001
       YYY       0.0001    XXZ       0.8720    XYZ      -0.0004
       YYZ       3.3941    XZZ      -0.0001    YZZ       0.0002
       ZZZ      -9.0903
    Hexadecapole Moments (Debye-Ang^3)
      XXXX    -167.4237   XXXY      -0.0089   XXYY     -35.9796
      XYYY       0.0017   YYYY     -33.6257   XXXZ      -0.0002
      XXYZ      -0.0001   XYYZ      -0.0001   YYYZ       0.0000
      XXZZ     -46.5411   XYZZ       0.0091   YYZZ     -28.6943
      XZZZ      -0.0002   YZZZ      -0.0005   ZZZZ    -138.9287
 -----------------------------------------------------------------
 Total job time:  218.38s(wall), 217.84s(cpu) 
 Sun Jul  7 09:49:57 2013

        *************************************************************
        *                                                           *
        *  Thank you very much for using Q-Chem.  Have a nice day.  *
        *                                                           *
        *************************************************************


0 sent ACK to 0 
now end server 0 ... 
