Process 0 of 1 is on cl192.stfx.acenet.ca - thread support 1
initial socket setup ...start
initial socket setup ...done 
now start server 0 ... 

cmd = /usr/bin/ssh clhead /usr/local/qchem/bin/get_hostid 531836785 > /scratch/tmp/6000831.1.medium.q/qchem18710/lic.dat
                  Welcome to Q-Chem
     A Quantum Leap Into The Future Of Chemistry

 Y. Shao, L. Fusti-Molnar, Y. Jung, J. Kussmann, C. Ochsenfeld,
 S. T. Brown, A. T. B. Gilbert, L. V. Slipchenko,S. V. Levchenko,
 D. P. O'Neill, R. A. DiStasio Jr., R. C. Lochan, T. Wang,
 G. J. O. Beran, N. A. Besley, J. M. Herbert, C. Y. Lin,
 T. Van Voorhis, S. H. Chien, A. Sodt, R. P. Steele, 
 V. A. Rassolov, P. E. Maslen, P. P. Korambath, R. D. Adamson,
 B. Austin, J. Baker, E. F. C. Byrd, H. Dachsel, R. J. Doerksen,
 A. Dreuw, B. D. Dunietz, A. D. Dutoi, T. R. Furlani,
 S. R. Gwaltney, A. Heyden, S. Hirata, C.-P. Hsu, G. Kedziora,
 R. Z. Khaliullin, P. Klunzinger, A. M. Lee, M. S. Lee, W. Liang,
 I. Lotan, N. Nair, B. Peters, E. I. Proynov, P. A. Pieniazek, 
 Y. M. Rhee, J. Ritchie, E. Rosta, C. D. Sherrill, 
 A. C. Simmonett, J. E. Subotnik, H. L. Woodcock III,
 W. Zhang, A. T. Bell, A. K. Chakraborty, D. M. Chipman,
 F. J. Keil, A. Warshel, W. J. Hehre, H. F. Schaefer III,
 J. Kong, A. I. Krylov, P. M. W. Gill, M. Head-Gordon,
 Q-Chem, Version 3.1, Q-Chem, Inc., Pittsburgh, PA (2007).

 Additional authors for Version 3.1: 
 Z. Gan, Y. Zhao, N. E. Schultz, D. Truhlar, E. Epifanovsky and M. Oana.

 Additional authors for Version 3.2: 
 R. Baer, B. R. Brooks, D. Casanova, J.-D. Chai, C.-L. Cheng, 
 C. Cramer, D. Crittenden, A. Ghysels, G. Hawkins, E. G. Hohenstein, 
 C. Kelley, W. Kurlancheek, D. Liotard, E. Livshits, P. Manohar, 
 A. Marenich, D. Neuhauser, R. Olson, M. A. Rohrdanz, K. S. Thanthiriwatte, 
 A. J. W. Thom, V. Vanovschi, C. F. Williams, Q. Wu and Z.-Q. You. 


 Intel X86 Linux Version

 Q-chem begins on Wed May 22 19:04:36 2013  

 Parallel job on  1  processors
Processing $rem in /usr/local/qchem/config/preferences.

theFileMan(): MAXOPENFILES=974 MAX_SUB_FILE_NUM=16
Maximum size of a physical file is 2.0 GB, maximum size of a tmp-file is 32.0 GB


--------------------------------------------------------------
User input:
--------------------------------------------------------------

$molecule
0,1
LI
LI,1,R

 R=2.7230522

$end

$comment
neutral
$end

$xc_functional
C PBE   1.00
X wPBE  1.00
$end


$rem
SYMMETRY_DECOMPOSITION	0
LRC_DFT                 true
exchange 		general
BASIS                   cc-pVTZ
omega			210 
JOBTYPE                 opt
mem_static              760
max_scf_cycles          200
scf_final_print         1
sym_ignore              true
$end


--------------------------------------------------------------
 Writing REM_CC_EA            2
 ----------------------------------------------------
       Standard Nuclear Orientation (Angstroms)
    I     Atom         X            Y            Z
 ----------------------------------------------------
    1      Li      0.000000     0.000000     0.000000
    2      Li      0.000000     0.000000     2.723052
 ----------------------------------------------------
 Nuclear Repulsion Energy =     1.7489914065 hartrees
 There are        3 alpha and        3 beta electrons
 Requested basis set is cc-pVTZ
 There are 20 shells and 60 basis functions

Total QAlloc Memory Limit   2000 MB
Mega-Array Size       743 MB
MEM_STATIC part       760 MB
 A cutoff of  1.0D-11 yielded    210 shell pairs
 There are   1930 function pairs (  2653 Cartesian)
Evaluating contribution to one-electron hamiltonian from nuclear
 Smallest overlap matrix eigenvalue = 1.33E-03
 Multipole matrices computed through 2nd order

  Scale SEOQF with 1.000000e-01/1.000000e-01/1.000000e-01

 Standard Electronic Orientation quadrupole field applied
 Nucleus-field energy     =    -0.0000000024 hartrees
 Guess from superposition of atomic densities
 Warning:  Energy on first SCF cycle will be non-variational
 Long-range K will be added via erf
 Coulomb attenuation parameter = 0.21 bohr**(-1)
 A restricted Kohn-Sham SCF calculation will be
 performed using Pulay DIIS extrapolation
 Exchange:  wPBE + LR-HF      Correlation:  PBE
 Using SG-1 standard quadrature grid
 SCF converges when DIIS error is below 1.0E-08
 Requested basis set is cc-pVTZ
 There are 20 shells and 60 basis functions
 A cutoff of  1.0D-11 yielded    210 shell pairs
 There are   1930 function pairs (  2653 Cartesian)
 ---------------------------------------
  Cycle       Energy         DIIS Error
 ---------------------------------------
    1     -14.8931195314      5.00E-03
    2     -14.9592415321      7.61E-04
    3     -14.9599050618      1.73E-04
    4     -14.9600188480      5.43E-05
    5     -14.9600359204      8.17E-06
    6     -14.9600362324      1.08E-06
    7     -14.9600362353      2.04E-07
    8     -14.9600362355      3.38E-08
    9     -14.9600362348      5.94E-09 Convergence criterion met
 ---------------------------------------
 One-Electron    Energy =   -23.0874205131
 Total Coulomb   Energy =    10.0187359053
 Alpha Exchange  Energy =    -0.3170877130
 Beta  Exchange  Energy =    -0.3170877130
 DFT   Exchange  Energy =    -2.8815918182
 DFT Correlation Energy =    -0.1245757869
 Nuclear Repu.   Energy =     1.7489914041
 Nuclear Attr.   Energy =   -37.8738363084
 Kinetic         Energy =    14.7864157954
 SCF time:  CPU 6.71 s  wall 6.95 s
 Final Alpha MO Eigenvalues
            1           2           3           4           5           6
    1  -1.9832932  -1.9829954  -0.1925325  -0.0087143   0.0127874   0.0127874
            7           8
    1   0.0278043   0.0502405
 Analysis of SCF Wavefunction
 
 --------------------------------------------------------------
                    Orbital Energies (a.u.)
 --------------------------------------------------------------
 
 Alpha MOs
 -- Occupied --
 -1.983  -1.983  -0.193
 -- Virtual --
 -0.009   0.013   0.013   0.028   0.050   0.050   0.056   0.091
  0.093   0.093   0.125   0.131   0.131   0.146   0.186   0.186
  0.212   0.223   0.223   0.249   0.249   0.276   0.330   0.330
  0.355   0.393   0.393   0.408   0.408   0.445   0.471   0.626
  0.626   0.638   0.639   0.672   0.672   0.689   0.689   0.702
  0.713   0.713   0.748   0.748   0.783   0.783   0.840   0.840
  0.850   0.859   0.886   0.886   0.954   1.063   1.063   2.520
  2.774
 --------------------------------------------------------------
 
          Ground-State Mulliken Net Atomic Charges

     Atom                 Charge (a.u.)
  ----------------------------------------
      1 Li                    0.000000
      2 Li                    0.000000
  ----------------------------------------
  Sum of atomic charges =     0.000000

 -----------------------------------------------------------------
                    Cartesian Multipole Moments
 -----------------------------------------------------------------
    Charge (ESU x 10^10)
                 0.0000
    Dipole Moment (Debye)
         X       0.0000      Y       0.0000      Z       0.0000
       Tot       0.0000
    Quadrupole Moments (Debye-Ang)
        XX     -15.7606     XY       0.0000     YY     -15.7606
        XZ       0.0000     YZ       0.0000     ZZ      -1.4599
    Octapole Moments (Debye-Ang^2)
       XXX       0.0000    XXY       0.0000    XYY       0.0000
       YYY       0.0000    XXZ     -21.4585    XYZ       0.0000
       YYZ     -21.4585    XZZ       0.0000    YZZ       0.0000
       ZZZ      -5.9630
    Hexadecapole Moments (Debye-Ang^3)
      XXXX     -76.1075   XXXY       0.0000   XXYY     -25.3692
      XYYY       0.0000   YYYY     -76.1075   XXXZ       0.0000
      XXYZ       0.0000   XYYZ       0.0000   YYYZ       0.0000
      XXZZ     -64.3344   XYZZ       0.0000   YYZZ     -64.3344
      XZZZ       0.0000   YZZZ       0.0000   ZZZZ    -114.8661
 -----------------------------------------------------------------
 Calculating analytic gradient of the SCF energy
 Gradient of AOints
            1           2
    1  -0.0000000   0.0000000
    2  -0.0000000   0.0000000
    3   0.4268382  -0.4268382
 Gradient of XC Energy
            1           2
    1   0.0000000  -0.0000000
    2   0.0000000  -0.0000000
    3  -0.0012305   0.0012305
 Gradient of SCF Energy
            1           2
    1   0.0000000  -0.0000000
    2   0.0000000  -0.0000000
    3  -0.0005556   0.0005556
 Max gradient component =       5.556E-04
 RMS gradient           =       3.208E-04
 Gradient time:  CPU 2.63 s  wall 2.79 s
 Geometry Optimization Parameters
   NAtoms,    NIC,     NZ,  NCons,   NDum,   NFix, NCnnct, MaxDiis
        2       5       2       0       0       0       0       0


** GEOMETRY OPTIMIZATION IN DELOCALIZED INTERNAL COORDINATES **
   Searching for a Minimum

   Optimization Cycle:   1

                       Coordinates (Angstroms)
     ATOM              X           Y           Z
    1  Li          0.000000    0.000000    0.000000
    2  Li          0.000000    0.000000    2.723052
   Point Group: c1    Number of degrees of freedom:   0


   Energy is    -14.960036235


 Attempting to Generate Delocalized Internal Coordinates

  ***ERROR*** Wrong Number of Internal Coordinates
              Should be:   0  Found:   1
**WARNING** Problems with Internal Coordinates
  Switching to Cartesian Coordinates

 Translations and Rotations Projected Out of Hessian

  1 Hessian modes will be used to form the next step
  Hessian Eigenvalues:
     1.000000

 Minimum Search - Taking Simple RFO Step
 Searching for Lamda that Minimizes Along All modes
 Value Taken    Lamda =   0.00000000
 Step Taken.  Stepsize is  0.000786

                             Maximum     Tolerance    Cnvgd?
         Gradient           0.000556      0.000300      NO
         Displacement       0.000556      0.001200     YES
         Energy change     *********      0.000001      NO

 Writing REM_CC_EA            2
 ----------------------------------------------------
       Standard Nuclear Orientation (Angstroms)
    I     Atom         X            Y            Z
 ----------------------------------------------------
    1      Li      0.000000     0.000000     0.000294
    2      Li      0.000000     0.000000     2.722758
 ----------------------------------------------------
 Nuclear Repulsion Energy =     1.7493691991 hartrees
 There are        3 alpha and        3 beta electrons
 Applying Cartesian multipole field
    Component          Value
    ---------          -----
     (2,0,0)        1.00000E-11
     (0,2,0)        2.00000E-11
     (0,0,2)       -3.00000E-11
 Nucleus-field energy     =    -0.0000000024 hartrees
 Requested basis set is cc-pVTZ
 There are 20 shells and 60 basis functions
 A cutoff of  1.0D-11 yielded    210 shell pairs
 There are   1930 function pairs (  2653 Cartesian)
Evaluating contribution to one-electron hamiltonian from nuclear
 Smallest overlap matrix eigenvalue = 1.33E-03
 Multipole matrices computed through 2nd order
 Guess MOs from SCF MO coefficient file
Reading MOs from coefficient file
Reading MOs from coefficient file
 Long-range K will be added via erf
 Coulomb attenuation parameter = 0.21 bohr**(-1)
 A restricted Kohn-Sham SCF calculation will be
 performed using Pulay DIIS extrapolation
 Exchange:  wPBE + LR-HF      Correlation:  PBE
 Using SG-1 standard quadrature grid
 SCF converges when DIIS error is below 1.0E-08
 Requested basis set is cc-pVTZ
 There are 20 shells and 60 basis functions
 A cutoff of  1.0D-11 yielded    210 shell pairs
 There are   1930 function pairs (  2653 Cartesian)
 ---------------------------------------
  Cycle       Energy         DIIS Error
 ---------------------------------------
    1     -14.9600018219      4.01E-06
    2     -14.9600368431      5.84E-07
    3     -14.9600368432      1.19E-07
    4     -14.9600368436      3.24E-08
    5     -14.9600368436      5.29E-09 Convergence criterion met
 ---------------------------------------
 One-Electron    Energy =   -23.0881954535
 Total Coulomb   Energy =    10.0191594127
 Alpha Exchange  Energy =    -0.3170906779
 Beta  Exchange  Energy =    -0.3170906779
 DFT   Exchange  Energy =    -2.8816114550
 DFT Correlation Energy =    -0.1245771888
 Nuclear Repu.   Energy =     1.7493691967
 Nuclear Attr.   Energy =   -37.8747019003
 Kinetic         Energy =    14.7865064468
 SCF time:  CPU 3.74 s  wall 3.82 s
 Final Alpha MO Eigenvalues
            1           2           3           4           5           6
    1  -1.9832815  -1.9829828  -0.1925414  -0.0087060   0.0127853   0.0127853
            7           8
    1   0.0278084   0.0502449
 Analysis of SCF Wavefunction
 
 --------------------------------------------------------------
                    Orbital Energies (a.u.)
 --------------------------------------------------------------
 
 Alpha MOs
 -- Occupied --
 -1.983  -1.983  -0.193
 -- Virtual --
 -0.009   0.013   0.013   0.028   0.050   0.050   0.056   0.091
  0.093   0.093   0.125   0.131   0.131   0.146   0.186   0.186
  0.212   0.223   0.223   0.249   0.249   0.276   0.331   0.331
  0.355   0.393   0.393   0.408   0.408   0.445   0.471   0.626
  0.626   0.638   0.638   0.672   0.672   0.689   0.689   0.702
  0.713   0.713   0.748   0.748   0.783   0.783   0.840   0.840
  0.850   0.858   0.887   0.887   0.954   1.063   1.063   2.520
  2.774
 --------------------------------------------------------------
 
          Ground-State Mulliken Net Atomic Charges

     Atom                 Charge (a.u.)
  ----------------------------------------
      1 Li                    0.000000
      2 Li                    0.000000
  ----------------------------------------
  Sum of atomic charges =     0.000000

 -----------------------------------------------------------------
                    Cartesian Multipole Moments
 -----------------------------------------------------------------
    Charge (ESU x 10^10)
                 0.0000
    Dipole Moment (Debye)
         X       0.0000      Y       0.0000      Z       0.0000
       Tot       0.0000
    Quadrupole Moments (Debye-Ang)
        XX     -15.7598     XY       0.0000     YY     -15.7598
        XZ       0.0000     YZ       0.0000     ZZ      -1.4626
    Octapole Moments (Debye-Ang^2)
       XXX       0.0000    XXY       0.0000    XYY       0.0000
       YYY       0.0000    XXZ     -21.4574    XYZ       0.0000
       YYZ     -21.4574    XZZ       0.0000    YZZ       0.0000
       ZZZ      -5.9739
    Hexadecapole Moments (Debye-Ang^3)
      XXXX     -76.0980   XXXY       0.0000   XXYY     -25.3660
      XYYY       0.0000   YYYY     -76.0980   XXXZ       0.0000
      XXYZ       0.0000   XYYZ       0.0000   YYYZ       0.0000
      XXZZ     -64.3225   XYZZ       0.0000   YYZZ     -64.3225
      XZZZ       0.0000   YZZZ       0.0000   ZZZZ    -114.8670
 -----------------------------------------------------------------
 Calculating analytic gradient of the SCF energy
 Gradient of AOints
            1           2
    1   0.0000000  -0.0000000
    2  -0.0000000   0.0000000
    3   0.4268914  -0.4268914
 Gradient of XC Energy
            1           2
    1  -0.0000000   0.0000000
    2   0.0000000  -0.0000000
    3  -0.0012282   0.0012282
 Gradient of SCF Energy
            1           2
    1  -0.0000000   0.0000000
    2  -0.0000000   0.0000000
    3  -0.0005386   0.0005386
 Max gradient component =       5.386E-04
 RMS gradient           =       3.109E-04
 Gradient time:  CPU 2.60 s  wall 2.64 s
 Geometry Optimization Parameters
   NAtoms,    NIC,     NZ,  NCons,   NDum,   NFix, NCnnct, MaxDiis
        2       5       2       0       0       0       0       0

 Cartesian Hessian Update
 Hessian Updated using BFGS Update


** GEOMETRY OPTIMIZATION IN CARTESIAN COORDINATES **
   Searching for a Minimum

   Optimization Cycle:   2

                       Coordinates (Angstroms)
     ATOM              X           Y           Z
    1  Li          0.000000    0.000000    0.000294
    2  Li          0.000000    0.000000    2.722758
   Point Group: c1    Number of degrees of freedom:   0


   Energy is    -14.960036844


 Translations and Rotations Projected Out of Hessian

  1 Hessian modes will be used to form the next step
  Hessian Eigenvalues:
     0.030729

 Minimum Search - Taking Simple RFO Step
 Searching for Lamda that Minimizes Along All modes
 Value Taken    Lamda =  -0.00001888
 Step Taken.  Stepsize is  0.024771

                             Maximum     Tolerance    Cnvgd?
         Gradient           0.000539      0.000300      NO
         Displacement       0.017516      0.001200      NO
         Energy change     -0.000001      0.000001     YES

 Writing REM_CC_EA            2
 ----------------------------------------------------
       Standard Nuclear Orientation (Angstroms)
    I     Atom         X            Y            Z
 ----------------------------------------------------
    1      Li      0.000000     0.000000     0.009563
    2      Li      0.000000     0.000000     2.713489
 ----------------------------------------------------
 Nuclear Repulsion Energy =     1.7613625782 hartrees
 There are        3 alpha and        3 beta electrons
 Applying Cartesian multipole field
    Component          Value
    ---------          -----
     (2,0,0)        1.00000E-11
     (0,2,0)        2.00000E-11
     (0,0,2)       -3.00000E-11
 Nucleus-field energy     =    -0.0000000024 hartrees
 Requested basis set is cc-pVTZ
 There are 20 shells and 60 basis functions
 A cutoff of  1.0D-11 yielded    210 shell pairs
 There are   1930 function pairs (  2653 Cartesian)
Evaluating contribution to one-electron hamiltonian from nuclear
 Smallest overlap matrix eigenvalue = 1.29E-03
 Multipole matrices computed through 2nd order
 Guess MOs from SCF MO coefficient file
Reading MOs from coefficient file
Reading MOs from coefficient file
 Long-range K will be added via erf
 Coulomb attenuation parameter = 0.21 bohr**(-1)
 A restricted Kohn-Sham SCF calculation will be
 performed using Pulay DIIS extrapolation
 Exchange:  wPBE + LR-HF      Correlation:  PBE
 Using SG-1 standard quadrature grid
 SCF converges when DIIS error is below 1.0E-08
 Requested basis set is cc-pVTZ
 There are 20 shells and 60 basis functions
 A cutoff of  1.0D-11 yielded    210 shell pairs
 There are   1930 function pairs (  2653 Cartesian)
 ---------------------------------------
  Cycle       Energy         DIIS Error
 ---------------------------------------
    1     -14.9589413072      1.27E-04
    2     -14.9600458839      1.85E-05
    3     -14.9600461529      3.77E-06
    4     -14.9600461687      1.02E-06
    5     -14.9600461717      1.65E-07
    6     -14.9600461718      5.72E-08
    7     -14.9600461718      1.04E-08
    8     -14.9600461703      1.06E-09 Convergence criterion met
 ---------------------------------------
 One-Electron    Energy =   -23.1127449184
 Total Coulomb   Energy =    10.0325575592
 Alpha Exchange  Energy =    -0.3171837179
 Beta  Exchange  Energy =    -0.3171837179
 DFT   Exchange  Energy =    -2.8822325488
 DFT Correlation Energy =    -0.1246214024
 Nuclear Repu.   Energy =     1.7613625758
 Nuclear Attr.   Energy =   -37.9021287660
 Kinetic         Energy =    14.7893838476
 SCF time:  CPU 5.87 s  wall 6.02 s
 Final Alpha MO Eigenvalues
            1           2           3           4           5           6
    1  -1.9829207  -1.9825915  -0.1928253  -0.0084456   0.0127165   0.0127165
            7           8
    1   0.0279379   0.0503817
 Analysis of SCF Wavefunction
 
 --------------------------------------------------------------
                    Orbital Energies (a.u.)
 --------------------------------------------------------------
 
 Alpha MOs
 -- Occupied --
 -1.983  -1.983  -0.193
 -- Virtual --
 -0.008   0.013   0.013   0.028   0.050   0.050   0.056   0.091
  0.093   0.093   0.125   0.132   0.132   0.146   0.186   0.186
  0.213   0.223   0.223   0.250   0.250   0.276   0.331   0.331
  0.355   0.393   0.393   0.408   0.408   0.444   0.474   0.627
  0.627   0.638   0.638   0.672   0.672   0.689   0.689   0.704
  0.714   0.714   0.749   0.749   0.785   0.785   0.843   0.843
  0.852   0.853   0.889   0.889   0.957   1.063   1.063   2.534
  2.770
 --------------------------------------------------------------
 
          Ground-State Mulliken Net Atomic Charges

     Atom                 Charge (a.u.)
  ----------------------------------------
      1 Li                    0.000000
      2 Li                    0.000000
  ----------------------------------------
  Sum of atomic charges =     0.000000

 -----------------------------------------------------------------
                    Cartesian Multipole Moments
 -----------------------------------------------------------------
    Charge (ESU x 10^10)
                 0.0000
    Dipole Moment (Debye)
         X       0.0000      Y       0.0000      Z       0.0000
       Tot       0.0000
    Quadrupole Moments (Debye-Ang)
        XX     -15.7331     XY       0.0000     YY     -15.7331
        XZ       0.0000     YZ       0.0000     ZZ      -1.5469
    Octapole Moments (Debye-Ang^2)
       XXX       0.0000    XXY       0.0000    XYY       0.0000
       YYY       0.0000    XXZ     -21.4210    XYZ       0.0000
       YYZ     -21.4210    XZZ       0.0000    YZZ       0.0000
       ZZZ      -6.3184
    Hexadecapole Moments (Debye-Ang^3)
      XXXX     -75.8017   XXXY       0.0000   XXYY     -25.2672
      XYYY       0.0000   YYYY     -75.8017   XXXZ       0.0000
      XXYZ       0.0000   XYYZ       0.0000   YYYZ       0.0000
      XXZZ     -63.9487   XYZZ       0.0000   YYZZ     -63.9487
      XZZZ       0.0000   YZZZ       0.0000   ZZZZ    -114.9003
 -----------------------------------------------------------------
 Calculating analytic gradient of the SCF energy
 Gradient of AOints
            1           2
    1   0.0000000  -0.0000000
    2  -0.0000000   0.0000000
    3   0.4285745  -0.4285745
 Gradient of XC Energy
            1           2
    1  -0.0000000   0.0000000
    2   0.0000000  -0.0000000
    3  -0.0011587   0.0011587
 Gradient of SCF Energy
            1           2
    1   0.0000000  -0.0000000
    2   0.0000000  -0.0000000
    3   0.0000093  -0.0000093
 Max gradient component =       9.252E-06
 RMS gradient           =       5.342E-06
 Gradient time:  CPU 2.61 s  wall 2.63 s
 Geometry Optimization Parameters
   NAtoms,    NIC,     NZ,  NCons,   NDum,   NFix, NCnnct, MaxDiis
        2       5       2       0       0       0       0       0

 Cartesian Hessian Update
 Hessian Updated using BFGS Update


** GEOMETRY OPTIMIZATION IN CARTESIAN COORDINATES **
   Searching for a Minimum

   Optimization Cycle:   3

                       Coordinates (Angstroms)
     ATOM              X           Y           Z
    1  Li          0.000000    0.000000    0.009563
    2  Li          0.000000    0.000000    2.713489
   Point Group: c1    Number of degrees of freedom:   0


   Energy is    -14.960046170


 Translations and Rotations Projected Out of Hessian

  1 Hessian modes will be used to form the next step
  Hessian Eigenvalues:
     0.031276

 Minimum Search - Taking Simple RFO Step
 Searching for Lamda that Minimizes Along All modes
 Value Taken    Lamda =   0.00000000
 Step Taken.  Stepsize is  0.000418

                             Maximum     Tolerance    Cnvgd?
         Gradient           0.000009      0.000300     YES
         Displacement       0.000296      0.001200     YES
         Energy change     -0.000009      0.000001      NO


                       Distance Matrix (Angstroms)
             Li(  1)
   Li(  2)  2.703926
 


 ******************************
 **  OPTIMIZATION CONVERGED  **
 ******************************
 Analysis of SCF Wavefunction
 
 --------------------------------------------------------------
                    Orbital Energies (a.u.)
 --------------------------------------------------------------
 
 Alpha MOs
 -- Occupied --
 -1.983  -1.983  -0.193
 -- Virtual --
 -0.008   0.013   0.013   0.028   0.050   0.050   0.056   0.091
  0.093   0.093   0.125   0.132   0.132   0.146   0.186   0.186
  0.213   0.223   0.223   0.250   0.250   0.276   0.331   0.331
  0.355   0.393   0.393   0.408   0.408   0.444   0.474   0.627
  0.627   0.638   0.638   0.672   0.672   0.689   0.689   0.704
  0.714   0.714   0.749   0.749   0.785   0.785   0.843   0.843
  0.852   0.853   0.889   0.889   0.957   1.063   1.063   2.534
  2.770
 --------------------------------------------------------------
 
          Ground-State Mulliken Net Atomic Charges

     Atom                 Charge (a.u.)
  ----------------------------------------
      1 Li                    0.000000
      2 Li                    0.000000
  ----------------------------------------
  Sum of atomic charges =     0.000000

 -----------------------------------------------------------------
                    Cartesian Multipole Moments
 -----------------------------------------------------------------
    Charge (ESU x 10^10)
                 0.0000
    Dipole Moment (Debye)
         X       0.0000      Y       0.0000      Z       0.0000
       Tot       0.0000
    Quadrupole Moments (Debye-Ang)
        XX     -15.7331     XY       0.0000     YY     -15.7331
        XZ       0.0000     YZ       0.0000     ZZ      -1.5469
    Octapole Moments (Debye-Ang^2)
       XXX       0.0000    XXY       0.0000    XYY       0.0000
       YYY       0.0000    XXZ     -21.4210    XYZ       0.0000
       YYZ     -21.4210    XZZ       0.0000    YZZ       0.0000
       ZZZ      -6.3184
    Hexadecapole Moments (Debye-Ang^3)
      XXXX     -75.8017   XXXY       0.0000   XXYY     -25.2672
      XYYY       0.0000   YYYY     -75.8017   XXXZ       0.0000
      XXYZ       0.0000   XYYZ       0.0000   YYYZ       0.0000
      XXZZ     -63.9487   XYZZ       0.0000   YYZZ     -63.9487
      XZZZ       0.0000   YZZZ       0.0000   ZZZZ    -114.9003
 -----------------------------------------------------------------
 Total job time:  25.05s(wall), 24.34s(cpu) 
 Wed May 22 19:05:01 2013

        *************************************************************
        *                                                           *
        *  Thank you very much for using Q-Chem.  Have a nice day.  *
        *                                                           *
        *************************************************************


0 sent ACK to 0 
now end server 0 ... 
 
**********************************************************************
Job 2 of 2 
**********************************************************************
 
Process 0 of 1 is on cl192.stfx.acenet.ca - thread support 1
initial socket setup ...start
initial socket setup ...done 
now start server 0 ... 

cmd = /usr/bin/ssh clhead /usr/local/qchem/bin/get_hostid 1681709211 > /scratch/tmp/6000831.1.medium.q/qchem18710/lic.dat
                  Welcome to Q-Chem
     A Quantum Leap Into The Future Of Chemistry

 Y. Shao, L. Fusti-Molnar, Y. Jung, J. Kussmann, C. Ochsenfeld,
 S. T. Brown, A. T. B. Gilbert, L. V. Slipchenko,S. V. Levchenko,
 D. P. O'Neill, R. A. DiStasio Jr., R. C. Lochan, T. Wang,
 G. J. O. Beran, N. A. Besley, J. M. Herbert, C. Y. Lin,
 T. Van Voorhis, S. H. Chien, A. Sodt, R. P. Steele, 
 V. A. Rassolov, P. E. Maslen, P. P. Korambath, R. D. Adamson,
 B. Austin, J. Baker, E. F. C. Byrd, H. Dachsel, R. J. Doerksen,
 A. Dreuw, B. D. Dunietz, A. D. Dutoi, T. R. Furlani,
 S. R. Gwaltney, A. Heyden, S. Hirata, C.-P. Hsu, G. Kedziora,
 R. Z. Khaliullin, P. Klunzinger, A. M. Lee, M. S. Lee, W. Liang,
 I. Lotan, N. Nair, B. Peters, E. I. Proynov, P. A. Pieniazek, 
 Y. M. Rhee, J. Ritchie, E. Rosta, C. D. Sherrill, 
 A. C. Simmonett, J. E. Subotnik, H. L. Woodcock III,
 W. Zhang, A. T. Bell, A. K. Chakraborty, D. M. Chipman,
 F. J. Keil, A. Warshel, W. J. Hehre, H. F. Schaefer III,
 J. Kong, A. I. Krylov, P. M. W. Gill, M. Head-Gordon,
 Q-Chem, Version 3.1, Q-Chem, Inc., Pittsburgh, PA (2007).

 Additional authors for Version 3.1: 
 Z. Gan, Y. Zhao, N. E. Schultz, D. Truhlar, E. Epifanovsky and M. Oana.

 Additional authors for Version 3.2: 
 R. Baer, B. R. Brooks, D. Casanova, J.-D. Chai, C.-L. Cheng, 
 C. Cramer, D. Crittenden, A. Ghysels, G. Hawkins, E. G. Hohenstein, 
 C. Kelley, W. Kurlancheek, D. Liotard, E. Livshits, P. Manohar, 
 A. Marenich, D. Neuhauser, R. Olson, M. A. Rohrdanz, K. S. Thanthiriwatte, 
 A. J. W. Thom, V. Vanovschi, C. F. Williams, Q. Wu and Z.-Q. You. 


 Intel X86 Linux Version

 Q-chem begins on Wed May 22 19:05:04 2013  

 Parallel job on  1  processors
Processing $rem in /usr/local/qchem/config/preferences.

theFileMan(): MAXOPENFILES=974 MAX_SUB_FILE_NUM=16
Maximum size of a physical file is 2.0 GB, maximum size of a tmp-file is 32.0 GB


 Q-Chem warning in module rem.C, line 1695:

 !!Desired Analytical derivatives not available.

 2-order derivative to be evaluated numerically with 1-order analytical derivatives

--------------------------------------------------------------
User input:
--------------------------------------------------------------

$molecule 
READ 
$end 

$xc_functional
C PBE   1.00
X wPBE  1.00
$end


$rem
SYMMETRY_DECOMPOSITION	0
LRC_DFT                 true
exchange 		general
BASIS                   cc-pVTZ
omega			210 
JOBTYPE                 freq
SCF_GUESS READ
mem_static              760
max_scf_cycles          200
scf_final_print         1
sym_ignore              true
$end

--------------------------------------------------------------
 Writing REM_CC_EA            2
 ----------------------------------------------------
       Standard Nuclear Orientation (Angstroms)
    I     Atom         X            Y            Z
 ----------------------------------------------------
    1      Li      0.000000     0.000000     0.009563
    2      Li      0.000000     0.000000     2.713489
 ----------------------------------------------------
 Nuclear Repulsion Energy =     1.7613625782 hartrees
 There are        3 alpha and        3 beta electrons
 Requested basis set is cc-pVTZ
 There are 20 shells and 60 basis functions

Total QAlloc Memory Limit   2000 MB
Mega-Array Size       759 MB
MEM_STATIC part       760 MB

                       Distance Matrix (Angstroms)
             Li(  1)
   Li(  2)  2.703926
 
 A cutoff of  1.0D-11 yielded    210 shell pairs
 There are   1930 function pairs (  2653 Cartesian)
Evaluating contribution to one-electron hamiltonian from nuclear
 Smallest overlap matrix eigenvalue = 1.29E-03
 Multipole matrices computed through 2nd order
 Guess MOs from SCF MO coefficient file
Reading MOs from coefficient file
Reading MOs from coefficient file
 Long-range K will be added via erf
 Coulomb attenuation parameter = 0.21 bohr**(-1)
 A restricted Kohn-Sham SCF calculation will be
 performed using Pulay DIIS extrapolation
 Exchange:  wPBE + LR-HF      Correlation:  PBE
 Using SG-1 standard quadrature grid
 SCF converges when DIIS error is below 1.0E-08
 ---------------------------------------
  Cycle       Energy         DIIS Error
 ---------------------------------------
    1     -14.9600461715      1.24E-10
    2     -14.9600461715      3.24E-11 Convergence criterion met
 ---------------------------------------
 One-Electron    Energy =   -23.1127449352
 Total Coulomb   Energy =    10.0325575755
 Alpha Exchange  Energy =    -0.3171837192
 Beta  Exchange  Energy =    -0.3171837192
 DFT   Exchange  Energy =    -2.8822325482
 DFT Correlation Energy =    -0.1246214033
 Nuclear Repu.   Energy =     1.7613625782
 Nuclear Attr.   Energy =   -37.9021287331
 Kinetic         Energy =    14.7893837979
 SCF time:  CPU 1.46 s  wall 1.50 s
 Final Alpha MO Eigenvalues
            1           2           3           4           5           6
    1  -1.9829207  -1.9825915  -0.1928253  -0.0084456   0.0127165   0.0127165
            7           8
    1   0.0279379   0.0503817
 Analysis of SCF Wavefunction
 
 --------------------------------------------------------------
                    Orbital Energies (a.u.)
 --------------------------------------------------------------
 
 Alpha MOs
 -- Occupied --
 -1.983  -1.983  -0.193
 -- Virtual --
 -0.008   0.013   0.013   0.028   0.050   0.050   0.056   0.091
  0.093   0.093   0.125   0.132   0.132   0.146   0.186   0.186
  0.213   0.223   0.223   0.250   0.250   0.276   0.331   0.331
  0.355   0.393   0.393   0.408   0.408   0.444   0.474   0.627
  0.627   0.638   0.638   0.672   0.672   0.689   0.689   0.704
  0.714   0.714   0.749   0.749   0.785   0.785   0.843   0.843
  0.852   0.853   0.889   0.889   0.957   1.063   1.063   2.534
  2.770
 --------------------------------------------------------------
 
          Ground-State Mulliken Net Atomic Charges

     Atom                 Charge (a.u.)
  ----------------------------------------
      1 Li                    0.000000
      2 Li                    0.000000
  ----------------------------------------
  Sum of atomic charges =     0.000000

 -----------------------------------------------------------------
                    Cartesian Multipole Moments
 -----------------------------------------------------------------
    Charge (ESU x 10^10)
                 0.0000
    Dipole Moment (Debye)
         X       0.0000      Y       0.0000      Z       0.0000
       Tot       0.0000
    Quadrupole Moments (Debye-Ang)
        XX     -15.7331     XY       0.0000     YY     -15.7331
        XZ       0.0000     YZ       0.0000     ZZ      -1.5469
    Octapole Moments (Debye-Ang^2)
       XXX       0.0000    XXY       0.0000    XYY       0.0000
       YYY       0.0000    XXZ     -21.4210    XYZ       0.0000
       YYZ     -21.4210    XZZ       0.0000    YZZ       0.0000
       ZZZ      -6.3184
    Hexadecapole Moments (Debye-Ang^3)
      XXXX     -75.8017   XXXY       0.0000   XXYY     -25.2672
      XYYY       0.0000   YYYY     -75.8017   XXXZ       0.0000
      XXYZ       0.0000   XYYZ       0.0000   YYYZ       0.0000
      XXZZ     -63.9487   XYZZ       0.0000   YYZZ     -63.9487
      XZZZ       0.0000   YZZZ       0.0000   ZZZZ    -114.9003
 -----------------------------------------------------------------
 Calculating analytic gradient of the SCF energy
 Gradient of AOints
            1           2
    1  -0.0000000   0.0000000
    2  -0.0000000   0.0000000
    3   0.4285745  -0.4285745
 Gradient of XC Energy
            1           2
    1   0.0000000  -0.0000000
    2   0.0000000  -0.0000000
    3  -0.0011587   0.0011587
 Gradient of SCF Energy
            1           2
    1   0.0000000  -0.0000000
    2   0.0000000  -0.0000000
    3   0.0000093  -0.0000093
 Max gradient component =       9.252E-06
 RMS gradient           =       5.342E-06
 Gradient time:  CPU 2.58 s  wall 2.61 s
 ######################################################
 ######################################################
 # Starting finite difference calculation for IDERIV  #
 Finite diff step size: 1.89e-03 a.u.
 Writing REM_CC_EA            2
 ----------------------------------------------------
       Standard Nuclear Orientation (Angstroms)
    I     Atom         X            Y            Z
 ----------------------------------------------------
    1      Li      0.001000     0.000000     0.009563
    2      Li      0.000000     0.000000     2.713489
 ----------------------------------------------------
 Nuclear Repulsion Energy =     1.7613624577 hartrees
 There are        3 alpha and        3 beta electrons

                       Distance Matrix (Angstroms)
             Li(  1)
   Li(  2)  2.703927
 
 Requested basis set is cc-pVTZ
 There are 20 shells and 60 basis functions
 A cutoff of  1.0D-11 yielded    210 shell pairs
 There are   1930 function pairs (  2653 Cartesian)
Evaluating contribution to one-electron hamiltonian from nuclear
 Smallest overlap matrix eigenvalue = 1.29E-03
 Multipole matrices computed through 2nd order
 Guess MOs from SCF MO coefficient file
Reading MOs from coefficient file
Reading MOs from coefficient file
 Long-range K will be added via erf
 Coulomb attenuation parameter = 0.21 bohr**(-1)
 A restricted Kohn-Sham SCF calculation will be
 performed using Pulay DIIS extrapolation
 Exchange:  wPBE + LR-HF      Correlation:  PBE
 Using SG-1 standard quadrature grid
 SCF converges when DIIS error is below 1.0E-08
 ---------------------------------------
  Cycle       Energy         DIIS Error
 ---------------------------------------
    1     -14.9600461855      3.63E-06
    2     -14.9600461732      3.57E-07
    3     -14.9600461731      7.38E-08
    4     -14.9600461733      1.25E-08
    5     -14.9600461733      2.67E-09 Convergence criterion met
 ---------------------------------------
 One-Electron    Energy =   -23.1127446871
 Total Coulomb   Energy =    10.0325574390
 Alpha Exchange  Energy =    -0.3171837183
 Beta  Exchange  Energy =    -0.3171837183
 DFT   Exchange  Energy =    -2.8822325434
 DFT Correlation Energy =    -0.1246214030
 Nuclear Repu.   Energy =     1.7613624577
 Nuclear Attr.   Energy =   -37.9021284565
 Kinetic         Energy =    14.7893837694
 SCF time:  CPU 3.80 s  wall 13.81 s
 Final Alpha MO Eigenvalues
            1           2           3           4           5           6
    1  -1.9829207  -1.9825915  -0.1928253  -0.0084456   0.0127165   0.0127165
            7           8
    1   0.0279379   0.0503817
 Analysis of SCF Wavefunction
 
 --------------------------------------------------------------
                    Orbital Energies (a.u.)
 --------------------------------------------------------------
 
 Alpha MOs
 -- Occupied --
 -1.983  -1.983  -0.193
 -- Virtual --
 -0.008   0.013   0.013   0.028   0.050   0.050   0.056   0.091
  0.093   0.093   0.125   0.132   0.132   0.146   0.186   0.186
  0.213   0.223   0.223   0.250   0.250   0.276   0.331   0.331
  0.355   0.393   0.393   0.408   0.408   0.444   0.474   0.627
  0.627   0.638   0.638   0.672   0.672   0.689   0.689   0.704
  0.714   0.714   0.749   0.749   0.785   0.785   0.843   0.843
  0.852   0.853   0.889   0.889   0.957   1.063   1.063   2.534
  2.770
 --------------------------------------------------------------
 
          Ground-State Mulliken Net Atomic Charges

     Atom                 Charge (a.u.)
  ----------------------------------------
      1 Li                    0.000000
      2 Li                    0.000000
  ----------------------------------------
  Sum of atomic charges =     0.000000

 -----------------------------------------------------------------
                    Cartesian Multipole Moments
 -----------------------------------------------------------------
    Charge (ESU x 10^10)
                 0.0000
    Dipole Moment (Debye)
         X       0.0000      Y       0.0000      Z       0.0000
       Tot       0.0000
    Quadrupole Moments (Debye-Ang)
        XX     -15.7331     XY       0.0000     YY     -15.7331
        XZ      -0.0052     YZ       0.0000     ZZ      -1.5469
    Octapole Moments (Debye-Ang^2)
       XXX      -0.0236    XXY       0.0000    XYY      -0.0079
       YYY       0.0000    XXZ     -21.4210    XYZ       0.0000
       YYZ     -21.4210    XZZ      -0.0151    YZZ       0.0000
       ZZZ      -6.3185
    Hexadecapole Moments (Debye-Ang^3)
      XXXX     -75.8018   XXXY       0.0000   XXYY     -25.2673
      XYYY       0.0000   YYYY     -75.8017   XXXZ      -0.0216
      XXYZ       0.0000   XYYZ      -0.0072   YYYZ       0.0000
      XXZZ     -63.9487   XYZZ       0.0000   YYZZ     -63.9487
      XZZZ      -0.0348   YZZZ       0.0000   ZZZZ    -114.9003
 -----------------------------------------------------------------
 Calculating analytic gradient of the SCF energy
 Gradient of AOints
            1           2
    1  -0.0001585   0.0001585
    2  -0.0000000   0.0000000
    3   0.4285744  -0.4285744
 Gradient of XC Energy
            1           2
    1   0.0000003  -0.0000003
    2   0.0000000  -0.0000000
    3  -0.0011587   0.0011587
 Gradient of SCF Energy
            1           2
    1  -0.0000001   0.0000001
    2  -0.0000000   0.0000000
    3   0.0000092  -0.0000092
 Max gradient component =       9.247E-06
 RMS gradient           =       5.339E-06
 Gradient time:  CPU 2.63 s  wall 2.64 s
 Writing REM_CC_EA            2
 ----------------------------------------------------
       Standard Nuclear Orientation (Angstroms)
    I     Atom         X            Y            Z
 ----------------------------------------------------
    1      Li     -0.001000     0.000000     0.009563
    2      Li      0.000000     0.000000     2.713489
 ----------------------------------------------------
 Nuclear Repulsion Energy =     1.7613624577 hartrees
 There are        3 alpha and        3 beta electrons

                       Distance Matrix (Angstroms)
             Li(  1)
   Li(  2)  2.703927
 
 Requested basis set is cc-pVTZ
 There are 20 shells and 60 basis functions
 A cutoff of  1.0D-11 yielded    210 shell pairs
 There are   1930 function pairs (  2653 Cartesian)
Evaluating contribution to one-electron hamiltonian from nuclear
 Smallest overlap matrix eigenvalue = 1.29E-03
 Multipole matrices computed through 2nd order
 Guess MOs from SCF MO coefficient file
Reading MOs from coefficient file
Reading MOs from coefficient file
 Long-range K will be added via erf
 Coulomb attenuation parameter = 0.21 bohr**(-1)
 A restricted Kohn-Sham SCF calculation will be
 performed using Pulay DIIS extrapolation
 Exchange:  wPBE + LR-HF      Correlation:  PBE
 Using SG-1 standard quadrature grid
 SCF converges when DIIS error is below 1.0E-08
 ---------------------------------------
  Cycle       Energy         DIIS Error
 ---------------------------------------
    1     -14.9600461830      7.25E-06
    2     -14.9600461714      7.14E-07
    3     -14.9600461718      1.48E-07
    4     -14.9600461715      2.49E-08
    5     -14.9600461718      5.33E-09 Convergence criterion met
 ---------------------------------------
 One-Electron    Energy =   -23.1127446918
 Total Coulomb   Energy =    10.0325574449
 Alpha Exchange  Energy =    -0.3171837184
 Beta  Exchange  Energy =    -0.3171837184
 DFT   Exchange  Energy =    -2.8822325428
 DFT Correlation Energy =    -0.1246214030
 Nuclear Repu.   Energy =     1.7613624577
 Nuclear Attr.   Energy =   -37.9021284648
 Kinetic         Energy =    14.7893837729
 SCF time:  CPU 3.73 s  wall 3.81 s
 Final Alpha MO Eigenvalues
            1           2           3           4           5           6
    1  -1.9829207  -1.9825915  -0.1928253  -0.0084456   0.0127165   0.0127165
            7           8
    1   0.0279379   0.0503817
 Analysis of SCF Wavefunction
 
 --------------------------------------------------------------
                    Orbital Energies (a.u.)
 --------------------------------------------------------------
 
 Alpha MOs
 -- Occupied --
 -1.983  -1.983  -0.193
 -- Virtual --
 -0.008   0.013   0.013   0.028   0.050   0.050   0.056   0.091
  0.093   0.093   0.125   0.132   0.132   0.146   0.186   0.186
  0.213   0.223   0.223   0.250   0.250   0.276   0.331   0.331
  0.355   0.393   0.393   0.408   0.408   0.444   0.474   0.627
  0.627   0.638   0.638   0.672   0.672   0.689   0.689   0.704
  0.714   0.714   0.749   0.749   0.785   0.785   0.843   0.843
  0.852   0.853   0.889   0.889   0.957   1.063   1.063   2.534
  2.770
 --------------------------------------------------------------
 
          Ground-State Mulliken Net Atomic Charges

     Atom                 Charge (a.u.)
  ----------------------------------------
      1 Li                    0.000000
      2 Li                    0.000000
  ----------------------------------------
  Sum of atomic charges =     0.000000

 -----------------------------------------------------------------
                    Cartesian Multipole Moments
 -----------------------------------------------------------------
    Charge (ESU x 10^10)
                 0.0000
    Dipole Moment (Debye)
         X       0.0000      Y       0.0000      Z       0.0000
       Tot       0.0000
    Quadrupole Moments (Debye-Ang)
        XX     -15.7331     XY       0.0000     YY     -15.7331
        XZ       0.0052     YZ       0.0000     ZZ      -1.5469
    Octapole Moments (Debye-Ang^2)
       XXX       0.0236    XXY       0.0000    XYY       0.0079
       YYY       0.0000    XXZ     -21.4210    XYZ       0.0000
       YYZ     -21.4210    XZZ       0.0151    YZZ       0.0000
       ZZZ      -6.3185
    Hexadecapole Moments (Debye-Ang^3)
      XXXX     -75.8018   XXXY       0.0000   XXYY     -25.2673
      XYYY       0.0000   YYYY     -75.8017   XXXZ       0.0216
      XXYZ       0.0000   XYYZ       0.0072   YYYZ       0.0000
      XXZZ     -63.9487   XYZZ       0.0000   YYZZ     -63.9487
      XZZZ       0.0348   YZZZ       0.0000   ZZZZ    -114.9003
 -----------------------------------------------------------------
 Calculating analytic gradient of the SCF energy
 Gradient of AOints
            1           2
    1   0.0001585  -0.0001585
    2   0.0000000  -0.0000000
    3   0.4285744  -0.4285744
 Gradient of XC Energy
            1           2
    1  -0.0000003   0.0000003
    2  -0.0000000   0.0000000
    3  -0.0011587   0.0011587
 Gradient of SCF Energy
            1           2
    1   0.0000001  -0.0000001
    2   0.0000000  -0.0000000
    3   0.0000092  -0.0000092
 Max gradient component =       9.247E-06
 RMS gradient           =       5.339E-06
 Gradient time:  CPU 2.63 s  wall 2.64 s
 Writing REM_CC_EA            2
 ----------------------------------------------------
       Standard Nuclear Orientation (Angstroms)
    I     Atom         X            Y            Z
 ----------------------------------------------------
    1      Li      0.000000     0.001000     0.009563
    2      Li      0.000000     0.000000     2.713489
 ----------------------------------------------------
 Nuclear Repulsion Energy =     1.7613624577 hartrees
 There are        3 alpha and        3 beta electrons

                       Distance Matrix (Angstroms)
             Li(  1)
   Li(  2)  2.703927
 
 Requested basis set is cc-pVTZ
 There are 20 shells and 60 basis functions
 A cutoff of  1.0D-11 yielded    210 shell pairs
 There are   1930 function pairs (  2653 Cartesian)
Evaluating contribution to one-electron hamiltonian from nuclear
 Smallest overlap matrix eigenvalue = 1.29E-03
 Multipole matrices computed through 2nd order
 Guess MOs from SCF MO coefficient file
Reading MOs from coefficient file
Reading MOs from coefficient file
 Long-range K will be added via erf
 Coulomb attenuation parameter = 0.21 bohr**(-1)
 A restricted Kohn-Sham SCF calculation will be
 performed using Pulay DIIS extrapolation
 Exchange:  wPBE + LR-HF      Correlation:  PBE
 Using SG-1 standard quadrature grid
 SCF converges when DIIS error is below 1.0E-08
 ---------------------------------------
  Cycle       Energy         DIIS Error
 ---------------------------------------
    1     -14.9600461773      5.13E-06
    2     -14.9600461717      5.05E-07
    3     -14.9600461715      1.04E-07
    4     -14.9600461715      1.76E-08
    5     -14.9600461716      3.77E-09 Convergence criterion met
 ---------------------------------------
 One-Electron    Energy =   -23.1127446868
 Total Coulomb   Energy =    10.0325574389
 Alpha Exchange  Energy =    -0.3171837182
 Beta  Exchange  Energy =    -0.3171837182
 DFT   Exchange  Energy =    -2.8822325420
 DFT Correlation Energy =    -0.1246214029
 Nuclear Repu.   Energy =     1.7613624577
 Nuclear Attr.   Energy =   -37.9021284585
 Kinetic         Energy =    14.7893837717
 SCF time:  CPU 3.75 s  wall 3.83 s
 Final Alpha MO Eigenvalues
            1           2           3           4           5           6
    1  -1.9829207  -1.9825915  -0.1928253  -0.0084456   0.0127165   0.0127165
            7           8
    1   0.0279379   0.0503817
 Analysis of SCF Wavefunction
 
 --------------------------------------------------------------
                    Orbital Energies (a.u.)
 --------------------------------------------------------------
 
 Alpha MOs
 -- Occupied --
 -1.983  -1.983  -0.193
 -- Virtual --
 -0.008   0.013   0.013   0.028   0.050   0.050   0.056   0.091
  0.093   0.093   0.125   0.132   0.132   0.146   0.186   0.186
  0.213   0.223   0.223   0.250   0.250   0.276   0.331   0.331
  0.355   0.393   0.393   0.408   0.408   0.444   0.474   0.627
  0.627   0.638   0.638   0.672   0.672   0.689   0.689   0.704
  0.714   0.714   0.749   0.749   0.785   0.785   0.843   0.843
  0.852   0.853   0.889   0.889   0.957   1.063   1.063   2.534
  2.770
 --------------------------------------------------------------
 
          Ground-State Mulliken Net Atomic Charges

     Atom                 Charge (a.u.)
  ----------------------------------------
      1 Li                    0.000000
      2 Li                    0.000000
  ----------------------------------------
  Sum of atomic charges =     0.000000

 -----------------------------------------------------------------
                    Cartesian Multipole Moments
 -----------------------------------------------------------------
    Charge (ESU x 10^10)
                 0.0000
    Dipole Moment (Debye)
         X       0.0000      Y       0.0000      Z       0.0000
       Tot       0.0000
    Quadrupole Moments (Debye-Ang)
        XX     -15.7331     XY       0.0000     YY     -15.7331
        XZ       0.0000     YZ      -0.0052     ZZ      -1.5469
    Octapole Moments (Debye-Ang^2)
       XXX       0.0000    XXY      -0.0079    XYY       0.0000
       YYY      -0.0236    XXZ     -21.4210    XYZ       0.0000
       YYZ     -21.4210    XZZ       0.0000    YZZ      -0.0151
       ZZZ      -6.3185
    Hexadecapole Moments (Debye-Ang^3)
      XXXX     -75.8017   XXXY       0.0000   XXYY     -25.2673
      XYYY       0.0000   YYYY     -75.8018   XXXZ       0.0000
      XXYZ      -0.0072   XYYZ       0.0000   YYYZ      -0.0216
      XXZZ     -63.9487   XYZZ       0.0000   YYZZ     -63.9487
      XZZZ       0.0000   YZZZ      -0.0348   ZZZZ    -114.9003
 -----------------------------------------------------------------
 Calculating analytic gradient of the SCF energy
 Gradient of AOints
            1           2
    1  -0.0000000   0.0000000
    2  -0.0001585   0.0001585
    3   0.4285744  -0.4285744
 Gradient of XC Energy
            1           2
    1   0.0000000  -0.0000000
    2   0.0000003  -0.0000003
    3  -0.0011587   0.0011587
 Gradient of SCF Energy
            1           2
    1   0.0000000  -0.0000000
    2  -0.0000001   0.0000001
    3   0.0000092  -0.0000092
 Max gradient component =       9.247E-06
 RMS gradient           =       5.339E-06
 Gradient time:  CPU 2.63 s  wall 2.66 s
 Writing REM_CC_EA            2
 ----------------------------------------------------
       Standard Nuclear Orientation (Angstroms)
    I     Atom         X            Y            Z
 ----------------------------------------------------
    1      Li      0.000000    -0.001000     0.009563
    2      Li      0.000000     0.000000     2.713489
 ----------------------------------------------------
 Nuclear Repulsion Energy =     1.7613624577 hartrees
 There are        3 alpha and        3 beta electrons

                       Distance Matrix (Angstroms)
             Li(  1)
   Li(  2)  2.703927
 
 Requested basis set is cc-pVTZ
 There are 20 shells and 60 basis functions
 A cutoff of  1.0D-11 yielded    210 shell pairs
 There are   1930 function pairs (  2653 Cartesian)
Evaluating contribution to one-electron hamiltonian from nuclear
 Smallest overlap matrix eigenvalue = 1.29E-03
 Multipole matrices computed through 2nd order
 Guess MOs from SCF MO coefficient file
Reading MOs from coefficient file
Reading MOs from coefficient file
 Long-range K will be added via erf
 Coulomb attenuation parameter = 0.21 bohr**(-1)
 A restricted Kohn-Sham SCF calculation will be
 performed using Pulay DIIS extrapolation
 Exchange:  wPBE + LR-HF      Correlation:  PBE
 Using SG-1 standard quadrature grid
 SCF converges when DIIS error is below 1.0E-08
 ---------------------------------------
  Cycle       Energy         DIIS Error
 ---------------------------------------
    1     -14.9600461830      7.25E-06
    2     -14.9600461714      7.14E-07
    3     -14.9600461718      1.48E-07
    4     -14.9600461718      2.49E-08
    5     -14.9600461718      5.33E-09 Convergence criterion met
 ---------------------------------------
 One-Electron    Energy =   -23.1127446891
 Total Coulomb   Energy =    10.0325574415
 Alpha Exchange  Energy =    -0.3171837183
 Beta  Exchange  Energy =    -0.3171837183
 DFT   Exchange  Energy =    -2.8822325423
 DFT Correlation Energy =    -0.1246214029
 Nuclear Repu.   Energy =     1.7613624577
 Nuclear Attr.   Energy =   -37.9021284596
 Kinetic         Energy =    14.7893837705
 SCF time:  CPU 3.75 s  wall 3.83 s
 Final Alpha MO Eigenvalues
            1           2           3           4           5           6
    1  -1.9829207  -1.9825915  -0.1928253  -0.0084456   0.0127165   0.0127165
            7           8
    1   0.0279379   0.0503817
 Analysis of SCF Wavefunction
 
 --------------------------------------------------------------
                    Orbital Energies (a.u.)
 --------------------------------------------------------------
 
 Alpha MOs
 -- Occupied --
 -1.983  -1.983  -0.193
 -- Virtual --
 -0.008   0.013   0.013   0.028   0.050   0.050   0.056   0.091
  0.093   0.093   0.125   0.132   0.132   0.146   0.186   0.186
  0.213   0.223   0.223   0.250   0.250   0.276   0.331   0.331
  0.355   0.393   0.393   0.408   0.408   0.444   0.474   0.627
  0.627   0.638   0.638   0.672   0.672   0.689   0.689   0.704
  0.714   0.714   0.749   0.749   0.785   0.785   0.843   0.843
  0.852   0.853   0.889   0.889   0.957   1.063   1.063   2.534
  2.770
 --------------------------------------------------------------
 
          Ground-State Mulliken Net Atomic Charges

     Atom                 Charge (a.u.)
  ----------------------------------------
      1 Li                    0.000000
      2 Li                    0.000000
  ----------------------------------------
  Sum of atomic charges =     0.000000

 -----------------------------------------------------------------
                    Cartesian Multipole Moments
 -----------------------------------------------------------------
    Charge (ESU x 10^10)
                 0.0000
    Dipole Moment (Debye)
         X       0.0000      Y       0.0000      Z       0.0000
       Tot       0.0000
    Quadrupole Moments (Debye-Ang)
        XX     -15.7331     XY       0.0000     YY     -15.7331
        XZ       0.0000     YZ       0.0052     ZZ      -1.5469
    Octapole Moments (Debye-Ang^2)
       XXX       0.0000    XXY       0.0079    XYY       0.0000
       YYY       0.0236    XXZ     -21.4210    XYZ       0.0000
       YYZ     -21.4210    XZZ       0.0000    YZZ       0.0151
       ZZZ      -6.3185
    Hexadecapole Moments (Debye-Ang^3)
      XXXX     -75.8017   XXXY       0.0000   XXYY     -25.2673
      XYYY       0.0000   YYYY     -75.8018   XXXZ       0.0000
      XXYZ       0.0072   XYYZ       0.0000   YYYZ       0.0216
      XXZZ     -63.9487   XYZZ       0.0000   YYZZ     -63.9487
      XZZZ       0.0000   YZZZ       0.0348   ZZZZ    -114.9003
 -----------------------------------------------------------------
 Calculating analytic gradient of the SCF energy
 Gradient of AOints
            1           2
    1  -0.0000000   0.0000000
    2   0.0001585  -0.0001585
    3   0.4285744  -0.4285744
 Gradient of XC Energy
            1           2
    1   0.0000000  -0.0000000
    2  -0.0000003   0.0000003
    3  -0.0011587   0.0011587
 Gradient of SCF Energy
            1           2
    1   0.0000000  -0.0000000
    2   0.0000001  -0.0000001
    3   0.0000092  -0.0000092
 Max gradient component =       9.247E-06
 RMS gradient           =       5.339E-06
 Gradient time:  CPU 2.62 s  wall 2.63 s
 Writing REM_CC_EA            2
 ----------------------------------------------------
       Standard Nuclear Orientation (Angstroms)
    I     Atom         X            Y            Z
 ----------------------------------------------------
    1      Li      0.000000     0.000000     0.010563
    2      Li      0.000000     0.000000     2.713489
 ----------------------------------------------------
 Nuclear Repulsion Energy =     1.7620142284 hartrees
 There are        3 alpha and        3 beta electrons

                       Distance Matrix (Angstroms)
             Li(  1)
   Li(  2)  2.702926
 
 Requested basis set is cc-pVTZ
 There are 20 shells and 60 basis functions
 A cutoff of  1.0D-11 yielded    210 shell pairs
 There are   1930 function pairs (  2653 Cartesian)
Evaluating contribution to one-electron hamiltonian from nuclear
 Smallest overlap matrix eigenvalue = 1.29E-03
 Multipole matrices computed through 2nd order
 Guess MOs from SCF MO coefficient file
Reading MOs from coefficient file
Reading MOs from coefficient file
 Long-range K will be added via erf
 Coulomb attenuation parameter = 0.21 bohr**(-1)
 A restricted Kohn-Sham SCF calculation will be
 performed using Pulay DIIS extrapolation
 Exchange:  wPBE + LR-HF      Correlation:  PBE
 Using SG-1 standard quadrature grid
 SCF converges when DIIS error is below 1.0E-08
 ---------------------------------------
  Cycle       Energy         DIIS Error
 ---------------------------------------
    1     -14.9599865729      7.79E-06
    2     -14.9600461247      1.06E-06
    3     -14.9600461256      2.27E-07
    4     -14.9600461255      6.73E-08
    5     -14.9600461255      1.34E-08
    6     -14.9600461254      4.38E-09 Convergence criterion met
 ---------------------------------------
 One-Electron    Energy =   -23.1140762301
 Total Coulomb   Energy =    10.0332832765
 Alpha Exchange  Energy =    -0.3171887105
 Beta  Exchange  Energy =    -0.3171887105
 DFT   Exchange  Energy =    -2.8822661913
 DFT Correlation Energy =    -0.1246237878
 Nuclear Repu.   Energy =     1.7620142284
 Nuclear Attr.   Energy =   -37.9036169271
 Kinetic         Energy =    14.7895406970
 SCF time:  CPU 4.46 s  wall 4.57 s
 Final Alpha MO Eigenvalues
            1           2           3           4           5           6
    1  -1.9829015  -1.9825706  -0.1928406  -0.0084316   0.0127127   0.0127127
            7           8
    1   0.0279448   0.0503891
 Analysis of SCF Wavefunction
 
 --------------------------------------------------------------
                    Orbital Energies (a.u.)
 --------------------------------------------------------------
 
 Alpha MOs
 -- Occupied --
 -1.983  -1.983  -0.193
 -- Virtual --
 -0.008   0.013   0.013   0.028   0.050   0.050   0.056   0.091
  0.093   0.093   0.125   0.132   0.132   0.146   0.186   0.186
  0.213   0.224   0.224   0.250   0.250   0.276   0.331   0.331
  0.355   0.393   0.393   0.408   0.408   0.444   0.474   0.627
  0.627   0.638   0.638   0.671   0.671   0.689   0.690   0.704
  0.714   0.714   0.749   0.749   0.785   0.785   0.844   0.844
  0.852   0.853   0.889   0.889   0.957   1.063   1.063   2.535
  2.770
 --------------------------------------------------------------
 
          Ground-State Mulliken Net Atomic Charges

     Atom                 Charge (a.u.)
  ----------------------------------------
      1 Li                    0.000000
      2 Li                    0.000000
  ----------------------------------------
  Sum of atomic charges =     0.000000

 -----------------------------------------------------------------
                    Cartesian Multipole Moments
 -----------------------------------------------------------------
    Charge (ESU x 10^10)
                 0.0000
    Dipole Moment (Debye)
         X       0.0000      Y       0.0000      Z       0.0000
       Tot       0.0000
    Quadrupole Moments (Debye-Ang)
        XX     -15.7317     XY       0.0000     YY     -15.7317
        XZ       0.0000     YZ       0.0000     ZZ      -1.5515
    Octapole Moments (Debye-Ang^2)
       XXX       0.0000    XXY       0.0000    XYY       0.0000
       YYY       0.0000    XXZ     -21.4269    XYZ       0.0000
       YYZ     -21.4269    XZZ       0.0000    YZZ       0.0000
       ZZZ      -6.3394
    Hexadecapole Moments (Debye-Ang^3)
      XXXX     -75.7858   XXXY       0.0000   XXYY     -25.2619
      XYYY       0.0000   YYYY     -75.7858   XXXZ       0.0000
      XXYZ       0.0000   XYYZ       0.0000   YYYZ       0.0000
      XXZZ     -63.9501   XYZZ       0.0000   YYZZ     -63.9501
      XZZZ       0.0000   YZZZ       0.0000   ZZZZ    -114.9154
 -----------------------------------------------------------------
 Calculating analytic gradient of the SCF energy
 Gradient of AOints
            1           2
    1   0.0000000  -0.0000000
    2  -0.0000000   0.0000000
    3   0.4286660  -0.4286660
 Gradient of XC Energy
            1           2
    1  -0.0000000   0.0000000
    2   0.0000000  -0.0000000
    3  -0.0011551   0.0011551
 Gradient of SCF Energy
            1           2
    1  -0.0000000   0.0000000
    2   0.0000000  -0.0000000
    3   0.0000394  -0.0000394
 Max gradient component =       3.939E-05
 RMS gradient           =       2.274E-05
 Gradient time:  CPU 2.60 s  wall 2.62 s
 Writing REM_CC_EA            2
 ----------------------------------------------------
       Standard Nuclear Orientation (Angstroms)
    I     Atom         X            Y            Z
 ----------------------------------------------------
    1      Li      0.000000     0.000000     0.008563
    2      Li      0.000000     0.000000     2.713489
 ----------------------------------------------------
 Nuclear Repulsion Energy =     1.7607114098 hartrees
 There are        3 alpha and        3 beta electrons

                       Distance Matrix (Angstroms)
             Li(  1)
   Li(  2)  2.704926
 
 Requested basis set is cc-pVTZ
 There are 20 shells and 60 basis functions
 A cutoff of  1.0D-11 yielded    210 shell pairs
 There are   1930 function pairs (  2653 Cartesian)
Evaluating contribution to one-electron hamiltonian from nuclear
 Smallest overlap matrix eigenvalue = 1.30E-03
 Multipole matrices computed through 2nd order
 Guess MOs from SCF MO coefficient file
Reading MOs from coefficient file
Reading MOs from coefficient file
 Long-range K will be added via erf
 Coulomb attenuation parameter = 0.21 bohr**(-1)
 A restricted Kohn-Sham SCF calculation will be
 performed using Pulay DIIS extrapolation
 Exchange:  wPBE + LR-HF      Correlation:  PBE
 Using SG-1 standard quadrature grid
 SCF converges when DIIS error is below 1.0E-08
 ---------------------------------------
  Cycle       Energy         DIIS Error
 ---------------------------------------
    1     -14.9601652302      1.38E-05
    2     -14.9600461572      2.00E-06
    3     -14.9600461604      4.06E-07
    4     -14.9600461606      1.09E-07
    5     -14.9600461606      1.78E-08
    6     -14.9600461615      6.12E-09 Convergence criterion met
 ---------------------------------------
 One-Electron    Energy =   -23.1114144467
 Total Coulomb   Energy =    10.0318322951
 Alpha Exchange  Energy =    -0.3171787329
 Beta  Exchange  Energy =    -0.3171787329
 DFT   Exchange  Energy =    -2.8821989296
 DFT Correlation Energy =    -0.1246190244
 Nuclear Repu.   Energy =     1.7607114098
 Nuclear Attr.   Energy =   -37.9006414278
 Kinetic         Energy =    14.7892269812
 SCF time:  CPU 4.61 s  wall 4.72 s
 Final Alpha MO Eigenvalues
            1           2           3           4           5           6
    1  -1.9829399  -1.9826124  -0.1928099  -0.0084595   0.0127203   0.0127203
            7           8
    1   0.0279309   0.0503744
 Analysis of SCF Wavefunction
 
 --------------------------------------------------------------
                    Orbital Energies (a.u.)
 --------------------------------------------------------------
 
 Alpha MOs
 -- Occupied --
 -1.983  -1.983  -0.193
 -- Virtual --
 -0.008   0.013   0.013   0.028   0.050   0.050   0.056   0.091
  0.093   0.093   0.125   0.132   0.132   0.146   0.186   0.186
  0.213   0.223   0.223   0.250   0.250   0.276   0.331   0.331
  0.355   0.393   0.393   0.408   0.408   0.444   0.474   0.627
  0.627   0.638   0.638   0.672   0.672   0.689   0.689   0.704
  0.714   0.714   0.749   0.749   0.785   0.785   0.843   0.843
  0.852   0.853   0.889   0.889   0.956   1.063   1.063   2.533
  2.770
 --------------------------------------------------------------
 
          Ground-State Mulliken Net Atomic Charges

     Atom                 Charge (a.u.)
  ----------------------------------------
      1 Li                    0.000000
      2 Li                    0.000000
  ----------------------------------------
  Sum of atomic charges =     0.000000

 -----------------------------------------------------------------
                    Cartesian Multipole Moments
 -----------------------------------------------------------------
    Charge (ESU x 10^10)
                 0.0000
    Dipole Moment (Debye)
         X       0.0000      Y       0.0000      Z       0.0000
       Tot       0.0000
    Quadrupole Moments (Debye-Ang)
        XX     -15.7345     XY       0.0000     YY     -15.7345
        XZ       0.0000     YZ       0.0000     ZZ      -1.5423
    Octapole Moments (Debye-Ang^2)
       XXX       0.0000    XXY       0.0000    XYY       0.0000
       YYY       0.0000    XXZ     -21.4151    XYZ       0.0000
       YYZ     -21.4151    XZZ       0.0000    YZZ       0.0000
       ZZZ      -6.2975
    Hexadecapole Moments (Debye-Ang^3)
      XXXX     -75.8177   XXXY       0.0000   XXYY     -25.2726
      XYYY       0.0000   YYYY     -75.8177   XXXZ       0.0000
      XXYZ       0.0000   XYYZ       0.0000   YYYZ       0.0000
      XXZZ     -63.9473   XYZZ       0.0000   YYZZ     -63.9473
      XZZZ       0.0000   YZZZ       0.0000   ZZZZ    -114.8853
 -----------------------------------------------------------------
 Calculating analytic gradient of the SCF energy
 Gradient of AOints
            1           2
    1  -0.0000000   0.0000000
    2  -0.0000000   0.0000000
    3   0.4284830  -0.4284830
 Gradient of XC Energy
            1           2
    1   0.0000000  -0.0000000
    2   0.0000000  -0.0000000
    3  -0.0011623   0.0011623
 Gradient of SCF Energy
            1           2
    1   0.0000000  -0.0000000
    2   0.0000000  -0.0000000
    3  -0.0000208   0.0000208
 Max gradient component =       2.082E-05
 RMS gradient           =       1.202E-05
 Gradient time:  CPU 2.70 s  wall 2.72 s
 Writing REM_CC_EA            2
 ----------------------------------------------------
       Standard Nuclear Orientation (Angstroms)
    I     Atom         X            Y            Z
 ----------------------------------------------------
    1      Li      0.000000     0.000000     0.009563
    2      Li      0.001000     0.000000     2.713489
 ----------------------------------------------------
 Nuclear Repulsion Energy =     1.7613624577 hartrees
 There are        3 alpha and        3 beta electrons

                       Distance Matrix (Angstroms)
             Li(  1)
   Li(  2)  2.703927
 
 Requested basis set is cc-pVTZ
 There are 20 shells and 60 basis functions
 A cutoff of  1.0D-11 yielded    210 shell pairs
 There are   1930 function pairs (  2653 Cartesian)
Evaluating contribution to one-electron hamiltonian from nuclear
 Smallest overlap matrix eigenvalue = 1.29E-03
 Multipole matrices computed through 2nd order
 Guess MOs from SCF MO coefficient file
Reading MOs from coefficient file
Reading MOs from coefficient file
 Long-range K will be added via erf
 Coulomb attenuation parameter = 0.21 bohr**(-1)
 A restricted Kohn-Sham SCF calculation will be
 performed using Pulay DIIS extrapolation
 Exchange:  wPBE + LR-HF      Correlation:  PBE
 Using SG-1 standard quadrature grid
 SCF converges when DIIS error is below 1.0E-08
 ---------------------------------------
  Cycle       Energy         DIIS Error
 ---------------------------------------
    1     -14.9599866385      7.78E-06
    2     -14.9600461705      1.06E-06
    3     -14.9600461714      2.27E-07
    4     -14.9600461713      6.73E-08
    5     -14.9600461714      1.34E-08
    6     -14.9600461711      4.37E-09 Convergence criterion met
 ---------------------------------------
 One-Electron    Energy =   -23.1127447565
 Total Coulomb   Energy =    10.0325575128
 Alpha Exchange  Energy =    -0.3171837168
 Beta  Exchange  Energy =    -0.3171837168
 DFT   Exchange  Energy =    -2.8822325503
 DFT Correlation Energy =    -0.1246214012
 Nuclear Repu.   Energy =     1.7613624577
 Nuclear Attr.   Energy =   -37.9021286233
 Kinetic         Energy =    14.7893838668
 SCF time:  CPU 4.57 s  wall 4.67 s
 Final Alpha MO Eigenvalues
            1           2           3           4           5           6
    1  -1.9829207  -1.9825915  -0.1928253  -0.0084456   0.0127165   0.0127165
            7           8
    1   0.0279379   0.0503817
 Analysis of SCF Wavefunction
 
 --------------------------------------------------------------
                    Orbital Energies (a.u.)
 --------------------------------------------------------------
 
 Alpha MOs
 -- Occupied --
 -1.983  -1.983  -0.193
 -- Virtual --
 -0.008   0.013   0.013   0.028   0.050   0.050   0.056   0.091
  0.093   0.093   0.125   0.132   0.132   0.146   0.186   0.186
  0.213   0.223   0.223   0.250   0.250   0.276   0.331   0.331
  0.355   0.393   0.393   0.408   0.408   0.444   0.474   0.627
  0.627   0.638   0.638   0.672   0.672   0.689   0.689   0.704
  0.714   0.714   0.749   0.749   0.785   0.785   0.843   0.843
  0.852   0.853   0.889   0.889   0.957   1.063   1.063   2.534
  2.770
 --------------------------------------------------------------
 
          Ground-State Mulliken Net Atomic Charges

     Atom                 Charge (a.u.)
  ----------------------------------------
      1 Li                    0.000000
      2 Li                    0.000000
  ----------------------------------------
  Sum of atomic charges =     0.000000

 -----------------------------------------------------------------
                    Cartesian Multipole Moments
 -----------------------------------------------------------------
    Charge (ESU x 10^10)
                 0.0000
    Dipole Moment (Debye)
         X       0.0000      Y       0.0000      Z       0.0000
       Tot       0.0000
    Quadrupole Moments (Debye-Ang)
        XX     -15.7331     XY       0.0000     YY     -15.7331
        XZ       0.0052     YZ       0.0000     ZZ      -1.5469
    Octapole Moments (Debye-Ang^2)
       XXX      -0.0236    XXY       0.0000    XYY      -0.0079
       YYY       0.0000    XXZ     -21.4210    XYZ       0.0000
       YYZ     -21.4210    XZZ       0.0135    YZZ       0.0000
       ZZZ      -6.3185
    Hexadecapole Moments (Debye-Ang^3)
      XXXX     -75.8018   XXXY       0.0000   XXYY     -25.2672
      XYYY       0.0000   YYYY     -75.8017   XXXZ      -0.0427
      XXYZ       0.0000   XYYZ      -0.0142   YYYZ       0.0000
      XXZZ     -63.9487   XYZZ       0.0000   YYZZ     -63.9487
      XZZZ       0.0285   YZZZ       0.0000   ZZZZ    -114.9004
 -----------------------------------------------------------------
 Calculating analytic gradient of the SCF energy
 Gradient of AOints
            1           2
    1   0.0001585  -0.0001585
    2   0.0000000  -0.0000000
    3   0.4285745  -0.4285745
 Gradient of XC Energy
            1           2
    1  -0.0000003   0.0000003
    2  -0.0000000   0.0000000
    3  -0.0011587   0.0011587
 Gradient of SCF Energy
            1           2
    1   0.0000001  -0.0000001
    2   0.0000000  -0.0000000
    3   0.0000092  -0.0000092
 Max gradient component =       9.246E-06
 RMS gradient           =       5.339E-06
 Gradient time:  CPU 2.61 s  wall 2.63 s
 Writing REM_CC_EA            2
 ----------------------------------------------------
       Standard Nuclear Orientation (Angstroms)
    I     Atom         X            Y            Z
 ----------------------------------------------------
    1      Li      0.000000     0.000000     0.009563
    2      Li     -0.001000     0.000000     2.713489
 ----------------------------------------------------
 Nuclear Repulsion Energy =     1.7613624577 hartrees
 There are        3 alpha and        3 beta electrons

                       Distance Matrix (Angstroms)
             Li(  1)
   Li(  2)  2.703927
 
 Requested basis set is cc-pVTZ
 There are 20 shells and 60 basis functions
 A cutoff of  1.0D-11 yielded    210 shell pairs
 There are   1930 function pairs (  2653 Cartesian)
Evaluating contribution to one-electron hamiltonian from nuclear
 Smallest overlap matrix eigenvalue = 1.29E-03
 Multipole matrices computed through 2nd order
 Guess MOs from SCF MO coefficient file
Reading MOs from coefficient file
Reading MOs from coefficient file
 Long-range K will be added via erf
 Coulomb attenuation parameter = 0.21 bohr**(-1)
 A restricted Kohn-Sham SCF calculation will be
 performed using Pulay DIIS extrapolation
 Exchange:  wPBE + LR-HF      Correlation:  PBE
 Using SG-1 standard quadrature grid
 SCF converges when DIIS error is below 1.0E-08
 ---------------------------------------
  Cycle       Energy         DIIS Error
 ---------------------------------------
    1     -14.9600461830      7.25E-06
    2     -14.9600461720      7.14E-07
    3     -14.9600461715      1.48E-07
    4     -14.9600461723      2.49E-08
    5     -14.9600461717      5.34E-09 Convergence criterion met
 ---------------------------------------
 One-Electron    Energy =   -23.1127446865
 Total Coulomb   Energy =    10.0325574380
 Alpha Exchange  Energy =    -0.3171837182
 Beta  Exchange  Energy =    -0.3171837182
 DFT   Exchange  Energy =    -2.8822325415
 DFT Correlation Energy =    -0.1246214029
 Nuclear Repu.   Energy =     1.7613624577
 Nuclear Attr.   Energy =   -37.9021284523
 Kinetic         Energy =    14.7893837658
 SCF time:  CPU 3.74 s  wall 3.82 s
 Final Alpha MO Eigenvalues
            1           2           3           4           5           6
    1  -1.9829207  -1.9825915  -0.1928253  -0.0084456   0.0127165   0.0127165
            7           8
    1   0.0279379   0.0503817
 Analysis of SCF Wavefunction
 
 --------------------------------------------------------------
                    Orbital Energies (a.u.)
 --------------------------------------------------------------
 
 Alpha MOs
 -- Occupied --
 -1.983  -1.983  -0.193
 -- Virtual --
 -0.008   0.013   0.013   0.028   0.050   0.050   0.056   0.091
  0.093   0.093   0.125   0.132   0.132   0.146   0.186   0.186
  0.213   0.223   0.223   0.250   0.250   0.276   0.331   0.331
  0.355   0.393   0.393   0.408   0.408   0.444   0.474   0.627
  0.627   0.638   0.638   0.672   0.672   0.689   0.689   0.704
  0.714   0.714   0.749   0.749   0.785   0.785   0.843   0.843
  0.852   0.853   0.889   0.889   0.957   1.063   1.063   2.534
  2.770
 --------------------------------------------------------------
 
          Ground-State Mulliken Net Atomic Charges

     Atom                 Charge (a.u.)
  ----------------------------------------
      1 Li                    0.000000
      2 Li                    0.000000
  ----------------------------------------
  Sum of atomic charges =     0.000000

 -----------------------------------------------------------------
                    Cartesian Multipole Moments
 -----------------------------------------------------------------
    Charge (ESU x 10^10)
                 0.0000
    Dipole Moment (Debye)
         X       0.0000      Y       0.0000      Z       0.0000
       Tot       0.0000
    Quadrupole Moments (Debye-Ang)
        XX     -15.7331     XY       0.0000     YY     -15.7331
        XZ      -0.0052     YZ       0.0000     ZZ      -1.5469
    Octapole Moments (Debye-Ang^2)
       XXX       0.0236    XXY       0.0000    XYY       0.0079
       YYY       0.0000    XXZ     -21.4210    XYZ       0.0000
       YYZ     -21.4210    XZZ      -0.0135    YZZ       0.0000
       ZZZ      -6.3185
    Hexadecapole Moments (Debye-Ang^3)
      XXXX     -75.8018   XXXY       0.0000   XXYY     -25.2673
      XYYY       0.0000   YYYY     -75.8017   XXXZ       0.0427
      XXYZ       0.0000   XYYZ       0.0142   YYYZ       0.0000
      XXZZ     -63.9487   XYZZ       0.0000   YYZZ     -63.9487
      XZZZ      -0.0285   YZZZ       0.0000   ZZZZ    -114.9003
 -----------------------------------------------------------------
 Calculating analytic gradient of the SCF energy
 Gradient of AOints
            1           2
    1  -0.0001585   0.0001585
    2  -0.0000000   0.0000000
    3   0.4285744  -0.4285744
 Gradient of XC Energy
            1           2
    1   0.0000003  -0.0000003
    2   0.0000000  -0.0000000
    3  -0.0011587   0.0011587
 Gradient of SCF Energy
            1           2
    1  -0.0000001   0.0000001
    2   0.0000000  -0.0000000
    3   0.0000092  -0.0000092
 Max gradient component =       9.247E-06
 RMS gradient           =       5.339E-06
 Gradient time:  CPU 2.61 s  wall 2.63 s
 Writing REM_CC_EA            2
 ----------------------------------------------------
       Standard Nuclear Orientation (Angstroms)
    I     Atom         X            Y            Z
 ----------------------------------------------------
    1      Li      0.000000     0.000000     0.009563
    2      Li      0.000000     0.001000     2.713489
 ----------------------------------------------------
 Nuclear Repulsion Energy =     1.7613624577 hartrees
 There are        3 alpha and        3 beta electrons

                       Distance Matrix (Angstroms)
             Li(  1)
   Li(  2)  2.703927
 
 Requested basis set is cc-pVTZ
 There are 20 shells and 60 basis functions
 A cutoff of  1.0D-11 yielded    210 shell pairs
 There are   1930 function pairs (  2653 Cartesian)
Evaluating contribution to one-electron hamiltonian from nuclear
 Smallest overlap matrix eigenvalue = 1.29E-03
 Multipole matrices computed through 2nd order
 Guess MOs from SCF MO coefficient file
Reading MOs from coefficient file
Reading MOs from coefficient file
 Long-range K will be added via erf
 Coulomb attenuation parameter = 0.21 bohr**(-1)
 A restricted Kohn-Sham SCF calculation will be
 performed using Pulay DIIS extrapolation
 Exchange:  wPBE + LR-HF      Correlation:  PBE
 Using SG-1 standard quadrature grid
 SCF converges when DIIS error is below 1.0E-08
 ---------------------------------------
  Cycle       Energy         DIIS Error
 ---------------------------------------
    1     -14.9600461773      5.13E-06
    2     -14.9600461718      5.05E-07
    3     -14.9600461718      1.04E-07
    4     -14.9600461718      1.76E-08
    5     -14.9600461717      3.77E-09 Convergence criterion met
 ---------------------------------------
 One-Electron    Energy =   -23.1127446912
 Total Coulomb   Energy =    10.0325574436
 Alpha Exchange  Energy =    -0.3171837184
 Beta  Exchange  Energy =    -0.3171837184
 DFT   Exchange  Energy =    -2.8822325422
 DFT Correlation Energy =    -0.1246214030
 Nuclear Repu.   Energy =     1.7613624577
 Nuclear Attr.   Energy =   -37.9021284584
 Kinetic         Energy =    14.7893837672
 SCF time:  CPU 3.74 s  wall 3.84 s
 Final Alpha MO Eigenvalues
            1           2           3           4           5           6
    1  -1.9829207  -1.9825915  -0.1928253  -0.0084456   0.0127165   0.0127165
            7           8
    1   0.0279379   0.0503817
 Analysis of SCF Wavefunction
 
 --------------------------------------------------------------
                    Orbital Energies (a.u.)
 --------------------------------------------------------------
 
 Alpha MOs
 -- Occupied --
 -1.983  -1.983  -0.193
 -- Virtual --
 -0.008   0.013   0.013   0.028   0.050   0.050   0.056   0.091
  0.093   0.093   0.125   0.132   0.132   0.146   0.186   0.186
[...]
 A restricted Kohn-Sham SCF calculation will be
 performed using Pulay DIIS extrapolation
 Exchange:  wPBE + LR-HF      Correlation:  PBE
 Using SG-1 standard quadrature grid
 SCF converges when DIIS error is below 1.0E-08
 ---------------------------------------
  Cycle       Energy         DIIS Error
 ---------------------------------------
    1     -14.9600461830      7.25E-06
    2     -14.9600461713      7.14E-07
    3     -14.9600461712      1.47E-07
    4     -14.9600461718      2.52E-08
    5     -14.9600461714      5.71E-09 Convergence criterion met
 ---------------------------------------
 One-Electron    Energy =   -23.1127446877
 Total Coulomb   Energy =    10.0325574397
 Alpha Exchange  Energy =    -0.3171837183
 Beta  Exchange  Energy =    -0.3171837183
 DFT   Exchange  Energy =    -2.8822325417
 DFT Correlation Energy =    -0.1246214029
 Nuclear Repu.   Energy =     1.7613624577
 Nuclear Attr.   Energy =   -37.9021284572
 Kinetic         Energy =    14.7893837695
 SCF time:  CPU 3.75 s  wall 4.08 s
 Final Alpha MO Eigenvalues
            1           2           3           4           5           6
    1  -1.9829207  -1.9825915  -0.1928253  -0.0084456   0.0127165   0.0127165
            7           8
    1   0.0279379   0.0503817
 Analysis of SCF Wavefunction
 
 --------------------------------------------------------------
                    Orbital Energies (a.u.)
 --------------------------------------------------------------
 
 Alpha MOs
 -- Occupied --
 -1.983  -1.983  -0.193
 -- Virtual --
 -0.008   0.013   0.013   0.028   0.050   0.050   0.056   0.091
  0.093   0.093   0.125   0.132   0.132   0.146   0.186   0.186
  0.213   0.223   0.223   0.250   0.250   0.276   0.331   0.331
  0.355   0.393   0.393   0.408   0.408   0.444   0.474   0.627
  0.627   0.638   0.638   0.672   0.672   0.689   0.689   0.704
  0.714   0.714   0.749   0.749   0.785   0.785   0.843   0.843
  0.852   0.853   0.889   0.889   0.957   1.063   1.063   2.534
  2.770
 --------------------------------------------------------------
 
          Ground-State Mulliken Net Atomic Charges

     Atom                 Charge (a.u.)
  ----------------------------------------
      1 Li                    0.000000
      2 Li                    0.000000
  ----------------------------------------
  Sum of atomic charges =     0.000000

 -----------------------------------------------------------------
                    Cartesian Multipole Moments
 -----------------------------------------------------------------
    Charge (ESU x 10^10)
                 0.0000
    Dipole Moment (Debye)
         X       0.0000      Y       0.0000      Z       0.0000
       Tot       0.0000
    Quadrupole Moments (Debye-Ang)
        XX     -15.7331     XY       0.0000     YY     -15.7331
        XZ       0.0000     YZ      -0.0052     ZZ      -1.5469
    Octapole Moments (Debye-Ang^2)
       XXX       0.0000    XXY       0.0079    XYY       0.0000
       YYY       0.0236    XXZ     -21.4210    XYZ       0.0000
       YYZ     -21.4210    XZZ       0.0000    YZZ      -0.0135
       ZZZ      -6.3185
    Hexadecapole Moments (Debye-Ang^3)
      XXXX     -75.8017   XXXY       0.0000   XXYY     -25.2673
      XYYY       0.0000   YYYY     -75.8018   XXXZ       0.0000
      XXYZ       0.0142   XYYZ       0.0000   YYYZ       0.0427
      XXZZ     -63.9487   XYZZ       0.0000   YYZZ     -63.9487
      XZZZ       0.0000   YZZZ      -0.0284   ZZZZ    -114.9003
 -----------------------------------------------------------------
 Calculating analytic gradient of the SCF energy
 Gradient of AOints
            1           2
    1   0.0000000  -0.0000000
    2  -0.0001587   0.0001587
    3   0.4285744  -0.4285744
 Gradient of XC Energy
            1           2
    1  -0.0000000   0.0000000
    2   0.0000003  -0.0000003
    3  -0.0011587   0.0011587
 Gradient of SCF Energy
            1           2
    1  -0.0000000   0.0000000
    2  -0.0000001   0.0000001
    3   0.0000092  -0.0000092
 Max gradient component =       9.247E-06
 RMS gradient           =       5.339E-06
 Gradient time:  CPU 2.62 s  wall 2.64 s
 Writing REM_CC_EA            2
 ----------------------------------------------------
       Standard Nuclear Orientation (Angstroms)
    I     Atom         X            Y            Z
 ----------------------------------------------------
    1      Li      0.000000     0.000000     0.009563
    2      Li      0.000000     0.000000     2.714489
 ----------------------------------------------------
 Nuclear Repulsion Energy =     1.7607114098 hartrees
 There are        3 alpha and        3 beta electrons

                       Distance Matrix (Angstroms)
             Li(  1)
   Li(  2)  2.704926
 
 Requested basis set is cc-pVTZ
 There are 20 shells and 60 basis functions
 A cutoff of  1.0D-11 yielded    210 shell pairs
 There are   1930 function pairs (  2653 Cartesian)
Evaluating contribution to one-electron hamiltonian from nuclear
 Smallest overlap matrix eigenvalue = 1.30E-03
 Multipole matrices computed through 2nd order
 Guess MOs from SCF MO coefficient file
Reading MOs from coefficient file
Reading MOs from coefficient file
 Long-range K will be added via erf
 Coulomb attenuation parameter = 0.21 bohr**(-1)
 A restricted Kohn-Sham SCF calculation will be
 performed using Pulay DIIS extrapolation
 Exchange:  wPBE + LR-HF      Correlation:  PBE
 Using SG-1 standard quadrature grid
 SCF converges when DIIS error is below 1.0E-08
 ---------------------------------------
  Cycle       Energy         DIIS Error
 ---------------------------------------
    1     -14.9601056921      7.78E-06
    2     -14.9600461597      1.06E-06
    3     -14.9600461606      2.27E-07
    4     -14.9600461609      6.72E-08
    5     -14.9600461609      1.34E-08
    6     -14.9600461610      4.38E-09 Convergence criterion met
 ---------------------------------------
 One-Electron    Energy =   -23.1114143566
 Total Coulomb   Energy =    10.0318321748
 Alpha Exchange  Energy =    -0.3171787254
 Beta  Exchange  Energy =    -0.3171787254
 DFT   Exchange  Energy =    -2.8821989192
 DFT Correlation Energy =    -0.1246190192
 Nuclear Repu.   Energy =     1.7607114098
 Nuclear Attr.   Energy =   -37.9006414209
 Kinetic         Energy =    14.7892270643
 SCF time:  CPU 4.47 s  wall 4.58 s
 Final Alpha MO Eigenvalues
            1           2           3           4           5           6
    1  -1.9829399  -1.9826124  -0.1928099  -0.0084596   0.0127203   0.0127203
            7           8
    1   0.0279309   0.0503744
 Analysis of SCF Wavefunction
 
 --------------------------------------------------------------
                    Orbital Energies (a.u.)
 --------------------------------------------------------------
 
 Alpha MOs
 -- Occupied --
 -1.983  -1.983  -0.193
 -- Virtual --
 -0.008   0.013   0.013   0.028   0.050   0.050   0.056   0.091
  0.093   0.093   0.125   0.132   0.132   0.146   0.186   0.186
  0.213   0.223   0.223   0.250   0.250   0.276   0.331   0.331
  0.355   0.393   0.393   0.408   0.408   0.444   0.474   0.627
  0.627   0.638   0.638   0.672   0.672   0.689   0.689   0.704
  0.714   0.714   0.749   0.749   0.785   0.785   0.843   0.843
  0.852   0.853   0.889   0.889   0.956   1.063   1.063   2.533
  2.770
 --------------------------------------------------------------
 
          Ground-State Mulliken Net Atomic Charges

     Atom                 Charge (a.u.)
  ----------------------------------------
      1 Li                    0.000000
      2 Li                    0.000000
  ----------------------------------------
  Sum of atomic charges =     0.000000

 -----------------------------------------------------------------
                    Cartesian Multipole Moments
 -----------------------------------------------------------------
    Charge (ESU x 10^10)
                 0.0000
    Dipole Moment (Debye)
         X       0.0000      Y       0.0000      Z       0.0000
       Tot       0.0000
    Quadrupole Moments (Debye-Ang)
        XX     -15.7345     XY       0.0000     YY     -15.7345
        XZ       0.0000     YZ       0.0000     ZZ      -1.5423
    Octapole Moments (Debye-Ang^2)
       XXX       0.0000    XXY       0.0000    XYY       0.0000
       YYY       0.0000    XXZ     -21.4308    XYZ       0.0000
       YYZ     -21.4308    XZZ       0.0000    YZZ       0.0000
       ZZZ      -6.3021
    Hexadecapole Moments (Debye-Ang^3)
      XXXX     -75.8177   XXXY       0.0000   XXYY     -25.2726
      XYYY       0.0000   YYYY     -75.8177   XXXZ       0.0000
      XXYZ       0.0000   XYYZ       0.0000   YYYZ       0.0000
      XXZZ     -63.9902   XYZZ       0.0000   YYZZ     -63.9902
      XZZZ       0.0000   YZZZ       0.0000   ZZZZ    -114.9106
 -----------------------------------------------------------------
 Calculating analytic gradient of the SCF energy
 Gradient of AOints
            1           2
    1  -0.0000000   0.0000000
    2   0.0000000  -0.0000000
    3   0.4284831  -0.4284831
 Gradient of XC Energy
            1           2
    1   0.0000000  -0.0000000
    2  -0.0000000   0.0000000
    3  -0.0011623   0.0011623
 Gradient of SCF Energy
            1           2
    1   0.0000000  -0.0000000
    2  -0.0000000   0.0000000
    3  -0.0000208   0.0000208
 Max gradient component =       2.082E-05
 RMS gradient           =       1.202E-05
 Gradient time:  CPU 2.67 s  wall 2.69 s
 Writing REM_CC_EA            2
 ----------------------------------------------------
       Standard Nuclear Orientation (Angstroms)
    I     Atom         X            Y            Z
 ----------------------------------------------------
    1      Li      0.000000     0.000000     0.009563
    2      Li      0.000000     0.000000     2.712489
 ----------------------------------------------------
 Nuclear Repulsion Energy =     1.7620142284 hartrees
 There are        3 alpha and        3 beta electrons

                       Distance Matrix (Angstroms)
             Li(  1)
   Li(  2)  2.702926
 
 Requested basis set is cc-pVTZ
 There are 20 shells and 60 basis functions
 A cutoff of  1.0D-11 yielded    210 shell pairs
 There are   1930 function pairs (  2653 Cartesian)
Evaluating contribution to one-electron hamiltonian from nuclear
 Smallest overlap matrix eigenvalue = 1.29E-03
 Multipole matrices computed through 2nd order
 Guess MOs from SCF MO coefficient file
Reading MOs from coefficient file
Reading MOs from coefficient file
 Long-range K will be added via erf
 Coulomb attenuation parameter = 0.21 bohr**(-1)
 A restricted Kohn-Sham SCF calculation will be
 performed using Pulay DIIS extrapolation
 Exchange:  wPBE + LR-HF      Correlation:  PBE
 Using SG-1 standard quadrature grid
 SCF converges when DIIS error is below 1.0E-08
 ---------------------------------------
  Cycle       Energy         DIIS Error
 ---------------------------------------
    1     -14.9599270269      1.38E-05
    2     -14.9600461222      2.00E-06
    3     -14.9600461254      4.06E-07
    4     -14.9600461255      1.09E-07
    5     -14.9600461256      1.78E-08
    6     -14.9600461247      6.12E-09 Convergence criterion met
 ---------------------------------------
 One-Electron    Energy =   -23.1140761396
 Total Coulomb   Energy =    10.0332831558
 Alpha Exchange  Energy =    -0.3171887030
 Beta  Exchange  Energy =    -0.3171887030
 DFT   Exchange  Energy =    -2.8822661807
 DFT Correlation Energy =    -0.1246237824
 Nuclear Repu.   Energy =     1.7620142284
 Nuclear Attr.   Energy =   -37.9036169202
 Kinetic         Energy =    14.7895407806
 SCF time:  CPU 4.62 s  wall 4.73 s
 Final Alpha MO Eigenvalues
            1           2           3           4           5           6
    1  -1.9829015  -1.9825706  -0.1928406  -0.0084316   0.0127127   0.0127127
            7           8
    1   0.0279448   0.0503891
 Analysis of SCF Wavefunction
 
 --------------------------------------------------------------
                    Orbital Energies (a.u.)
 --------------------------------------------------------------
 
 Alpha MOs
 -- Occupied --
 -1.983  -1.983  -0.193
 -- Virtual --
 -0.008   0.013   0.013   0.028   0.050   0.050   0.056   0.091
  0.093   0.093   0.125   0.132   0.132   0.146   0.186   0.186
  0.213   0.224   0.224   0.250   0.250   0.276   0.331   0.331
  0.355   0.393   0.393   0.408   0.408   0.444   0.474   0.627
  0.627   0.638   0.638   0.671   0.671   0.689   0.690   0.704
  0.714   0.714   0.749   0.749   0.785   0.785   0.844   0.844
  0.852   0.853   0.889   0.889   0.957   1.063   1.063   2.535
  2.770
 --------------------------------------------------------------
 
          Ground-State Mulliken Net Atomic Charges

     Atom                 Charge (a.u.)
  ----------------------------------------
      1 Li                    0.000000
      2 Li                    0.000000
  ----------------------------------------
  Sum of atomic charges =     0.000000

 -----------------------------------------------------------------
                    Cartesian Multipole Moments
 -----------------------------------------------------------------
    Charge (ESU x 10^10)
                 0.0000
    Dipole Moment (Debye)
         X       0.0000      Y       0.0000      Z       0.0000
       Tot       0.0000
    Quadrupole Moments (Debye-Ang)
        XX     -15.7316     XY       0.0000     YY     -15.7316
        XZ       0.0000     YZ       0.0000     ZZ      -1.5515
    Octapole Moments (Debye-Ang^2)
       XXX       0.0000    XXY       0.0000    XYY       0.0000
       YYY       0.0000    XXZ     -21.4112    XYZ       0.0000
       YYZ     -21.4112    XZZ       0.0000    YZZ       0.0000
       ZZZ      -6.3348
    Hexadecapole Moments (Debye-Ang^3)
      XXXX     -75.7858   XXXY       0.0000   XXYY     -25.2619
      XYYY       0.0000   YYYY     -75.7858   XXXZ       0.0000
      XXYZ       0.0000   XYYZ       0.0000   YYYZ       0.0000
      XXZZ     -63.9072   XYZZ       0.0000   YYZZ     -63.9072
      XZZZ       0.0000   YZZZ       0.0000   ZZZZ    -114.8901
 -----------------------------------------------------------------
 Calculating analytic gradient of the SCF energy
 Gradient of AOints
            1           2
    1   0.0000000  -0.0000000
    2   0.0000000  -0.0000000
    3   0.4286660  -0.4286660
 Gradient of XC Energy
            1           2
    1  -0.0000000   0.0000000
    2  -0.0000000   0.0000000
    3  -0.0011551   0.0011551
 Gradient of SCF Energy
            1           2
    1  -0.0000000   0.0000000
    2  -0.0000000   0.0000000
    3   0.0000394  -0.0000394
 Max gradient component =       3.939E-05
 RMS gradient           =       2.274E-05
 Gradient time:  CPU 2.71 s  wall 2.72 s
Dipole drv :
gprntSymmMtrx error report: 
 Final Hessian.
            1           2           3           4           5           6
    1  -0.0000625   0.0000000   0.0000000   0.0000624  -0.0000000   0.0000000
    2   0.0000000  -0.0000625   0.0000000   0.0000000   0.0000624  -0.0000000
    3   0.0000000   0.0000000   0.0159302  -0.0000001  -0.0000000  -0.0159302
    4   0.0000624   0.0000000  -0.0000001  -0.0000624   0.0000000   0.0000000
    5  -0.0000000   0.0000624  -0.0000000   0.0000000  -0.0000624   0.0000000
    6   0.0000000  -0.0000000  -0.0159302   0.0000000   0.0000000   0.0159302
 Writing REM_CC_EA            2
 ----------------------------------------------------
       Standard Nuclear Orientation (Angstroms)
    I     Atom         X            Y            Z
 ----------------------------------------------------
    1      Li      0.000000     0.000000     0.009563
    2      Li      0.000000     0.000000     2.713489
 ----------------------------------------------------
 Nuclear Repulsion Energy =     1.7613625782 hartrees
 There are        3 alpha and        3 beta electrons
 old dipole drv.
            1           2           3           4           5           6
    1   0.0000064   0.0000020   0.0000071  -0.0000027  -0.0000023  -0.0000071
    2  -0.0000033   0.0000020   0.0000035   0.0000020   0.0000173  -0.0000038
    3   0.0000091   0.0000017   0.0000022  -0.0000078  -0.0000022  -0.0000018
 New transposed dipole drv.
            1           2           3
    1   0.0000064  -0.0000033   0.0000091
    2   0.0000020   0.0000020   0.0000017
    3   0.0000071   0.0000035   0.0000022
    4  -0.0000027   0.0000020  -0.0000078
    5  -0.0000023   0.0000173  -0.0000022
    6  -0.0000071  -0.0000038  -0.0000018
FINAL TENSOR RESULT:
Order 2, Length 6
Order 1, Length 6
  -0.0000625   0.0000000   0.0000000   0.0000624  -0.0000000   0.0000000
Order 1, Length 6
   0.0000000  -0.0000625   0.0000000   0.0000000   0.0000624  -0.0000000
Order 1, Length 6
   0.0000000   0.0000000   0.0159302  -0.0000001  -0.0000000  -0.0159302
Order 1, Length 6
   0.0000624   0.0000000  -0.0000001  -0.0000624   0.0000000   0.0000000
Order 1, Length 6
  -0.0000000   0.0000624  -0.0000000   0.0000000  -0.0000624   0.0000000
Order 1, Length 6
   0.0000000  -0.0000000  -0.0159302   0.0000000   0.0000000   0.0159302


 # Finishing finite difference calculation for IDERIV #
 ######################################################
 ######################################################
 Requested basis set is cc-pVTZ
 There are 20 shells and 60 basis functions
 **********************************************************************
 **                                                                  **
 **                       VIBRATIONAL ANALYSIS                       **
 **                       --------------------                       **
 **                                                                  **
 **        VIBRATIONAL FREQUENCIES (CM**-1) AND NORMAL MODES         **
 **     FORCE CONSTANTS (mDYN/ANGSTROM) AND REDUCED MASSES (AMU)     **
 **                  INFRARED INTENSITIES (KM/MOL)                   **
 **                                                                  **
 **********************************************************************
 

 Mode:                 1
 Frequency:       346.41
 Force Cnst:      0.4960
 Red. Mass:       7.0160
 IR Active:          YES
 IR Intens:        0.000
 Raman Active:       YES
               X      Y      Z
 Li         0.000  0.000  0.707
 Li         0.000  0.000 -0.707
 TransDip   0.000  0.000  0.000

 STANDARD THERMODYNAMIC QUANTITIES AT   298.18 K  AND     1.00 ATM

   This Molecule has  0 Imaginary Frequencies
   Zero point vibrational energy:        0.495 kcal/mol

   Atom    1 Element Li Has Mass    7.01600
   Atom    2 Element Li Has Mass    7.01600
   Molecular Mass:    14.032000 amu
   Principal axes and moments of inertia in atomic units:
                             1           2           3
    Eigenvalues --        0.00000    91.58979    91.58979
          X               0.00000     0.00000     1.00000
          Y               0.00000     1.00000     0.00000
          Z               1.00000     0.00000     0.00000
   Rotational Symmetry Number is   1
   The Molecule is a Symmetric Top
   Translational Enthalpy:        0.889 kcal/mol
   Rotational Enthalpy:           0.889 kcal/mol
   Vibrational Enthalpy:          0.724 kcal/mol
   gas constant (RT):             0.593 kcal/mol
   Translational Entropy:        33.865  cal/mol.K
   Rotational Entropy:          -42.776  cal/mol.K
   Vibrational Entropy:           1.183  cal/mol.K

   Total Enthalpy:                3.095 kcal/mol
   Total Entropy:                -7.729  cal/mol.K
 Total job time:  96.88s(wall), 85.23s(cpu) 
 Wed May 22 19:06:41 2013

        *************************************************************
        *                                                           *
        *  Thank you very much for using Q-Chem.  Have a nice day.  *
        *                                                           *
        *************************************************************


0 sent ACK to 0 
now end server 0 ... 
