Process 0 of 1 is on cl206.stfx.acenet.ca - thread support 1
initial socket setup ...start
initial socket setup ...done 
now start server 0 ... 

cmd = /usr/bin/ssh clhead /usr/local/qchem/bin/get_hostid 1475539943 > /scratch/tmp/6028645.1.medium.q/qchem21967/lic.dat
                  Welcome to Q-Chem
     A Quantum Leap Into The Future Of Chemistry

 Y. Shao, L. Fusti-Molnar, Y. Jung, J. Kussmann, C. Ochsenfeld,
 S. T. Brown, A. T. B. Gilbert, L. V. Slipchenko,S. V. Levchenko,
 D. P. O'Neill, R. A. DiStasio Jr., R. C. Lochan, T. Wang,
 G. J. O. Beran, N. A. Besley, J. M. Herbert, C. Y. Lin,
 T. Van Voorhis, S. H. Chien, A. Sodt, R. P. Steele, 
 V. A. Rassolov, P. E. Maslen, P. P. Korambath, R. D. Adamson,
 B. Austin, J. Baker, E. F. C. Byrd, H. Dachsel, R. J. Doerksen,
 A. Dreuw, B. D. Dunietz, A. D. Dutoi, T. R. Furlani,
 S. R. Gwaltney, A. Heyden, S. Hirata, C.-P. Hsu, G. Kedziora,
 R. Z. Khaliullin, P. Klunzinger, A. M. Lee, M. S. Lee, W. Liang,
 I. Lotan, N. Nair, B. Peters, E. I. Proynov, P. A. Pieniazek, 
 Y. M. Rhee, J. Ritchie, E. Rosta, C. D. Sherrill, 
 A. C. Simmonett, J. E. Subotnik, H. L. Woodcock III,
 W. Zhang, A. T. Bell, A. K. Chakraborty, D. M. Chipman,
 F. J. Keil, A. Warshel, W. J. Hehre, H. F. Schaefer III,
 J. Kong, A. I. Krylov, P. M. W. Gill, M. Head-Gordon,
 Q-Chem, Version 3.1, Q-Chem, Inc., Pittsburgh, PA (2007).

 Additional authors for Version 3.1: 
 Z. Gan, Y. Zhao, N. E. Schultz, D. Truhlar, E. Epifanovsky and M. Oana.

 Additional authors for Version 3.2: 
 R. Baer, B. R. Brooks, D. Casanova, J.-D. Chai, C.-L. Cheng, 
 C. Cramer, D. Crittenden, A. Ghysels, G. Hawkins, E. G. Hohenstein, 
 C. Kelley, W. Kurlancheek, D. Liotard, E. Livshits, P. Manohar, 
 A. Marenich, D. Neuhauser, R. Olson, M. A. Rohrdanz, K. S. Thanthiriwatte, 
 A. J. W. Thom, V. Vanovschi, C. F. Williams, Q. Wu and Z.-Q. You. 


 Intel X86 Linux Version

 Q-chem begins on Tue Jun  4 15:55:51 2013  

 Parallel job on  1  processors
Processing $rem in /usr/local/qchem/config/preferences.

theFileMan(): MAXOPENFILES=974 MAX_SUB_FILE_NUM=16
Maximum size of a physical file is 2.0 GB, maximum size of a tmp-file is 32.0 GB


--------------------------------------------------------------
User input:
--------------------------------------------------------------

$molecule
-1,2
C          0.00012        0.00000        0.01772
Si        -0.00002       -0.00000        1.88416
H          1.04598        0.00000       -0.35160
H         -0.52304       -0.90592       -0.35164
H         -0.52304        0.90592       -0.35164
H         -1.38674       -0.00000        2.37295
H          0.69337       -1.20095        2.37296
H          0.69337        1.20095        2.37296
$end

$comment
negative
$end

$xc_functional
C PBE   1.00
X wPBE  1.00
$end

$rem
SYMMETRY_DECOMPOSITION	0
exchange 		general
LRC_DFT                 true
BASIS                   g3large
omega			650
mem_static              760
max_scf_cycles          200
scf_final_print         1
sym_ignore              true
$end

--------------------------------------------------------------
 Writing REM_CC_EA            8
 ----------------------------------------------------
       Standard Nuclear Orientation (Angstroms)
    I     Atom         X            Y            Z
 ----------------------------------------------------
    1      C       0.000120     0.000000     0.017720
    2      Si     -0.000020     0.000000     1.884160
    3      H       1.045980     0.000000    -0.351600
    4      H      -0.523040    -0.905920    -0.351640
    5      H      -0.523040     0.905920    -0.351640
    6      H      -1.386740     0.000000     2.372950
    7      H       0.693370    -1.200950     2.372960
    8      H       0.693370     1.200950     2.372960
 ----------------------------------------------------
 Nuclear Repulsion Energy =    63.0377166733 hartrees
 There are       14 alpha and       13 beta electrons
 Requested basis set is G3large
 There are 65 shells and 168 basis functions

Total QAlloc Memory Limit   2000 MB
Mega-Array Size       743 MB
MEM_STATIC part       760 MB

                       Distance Matrix (Angstroms)
             C (  1)   Si(  2)   H (  3)   H (  4)   H (  5)   H (  6)
   Si(  2)  1.866440
   H (  3)  1.109153  2.468347
   H (  4)  1.109421  2.468409  1.811771
   H (  5)  1.109421  2.468409  1.811771  1.811840
   H (  6)  2.733220  1.470343  3.652574  2.998343  2.998343
   H (  7)  2.733136  1.470373  2.998307  2.998356  3.652670  2.401903
   H (  8)  2.733136  1.470373  2.998307  3.652670  2.998356  2.401903
             H (  7)
   H (  8)  2.401900
 
 A cutoff of  1.0D-08 yielded   2047 shell pairs
 There are  13856 function pairs ( 17267 Cartesian)
Evaluating contribution to one-electron hamiltonian from nuclear
 Smallest overlap matrix eigenvalue = 1.34E-04
 Multipole matrices computed through 2nd order

  Scale SEOQF with 1.000000e-01/1.000000e-01/1.000000e-01

 Standard Electronic Orientation quadrupole field applied
 Nucleus-field energy     =    -0.0000000067 hartrees
 Guess from superposition of atomic densities
 Warning:  Energy on first SCF cycle will be non-variational
 Long-range K will be added via erf
 Coulomb attenuation parameter = 0.65 bohr**(-1)
 An unrestricted Kohn-Sham SCF calculation will be
 performed using Pulay DIIS extrapolation
 Exchange:  wPBE + LR-HF      Correlation:  PBE
 Using SG-1 standard quadrature grid
 SCF converges when DIIS error is below 1.0E-05
 Requested basis set is G3large
 There are 65 shells and 168 basis functions
 A cutoff of  1.0D-08 yielded   2047 shell pairs
 There are  13856 function pairs ( 17267 Cartesian)
 Warning!  Inaccurate integrated density:
   Number of electrons =    27
   Numerical integral  =    25.999996505265
   Relative error      =    -3.7037166472 %
 ---------------------------------------
  Cycle       Energy         DIIS Error
 ---------------------------------------
    1    -331.3109267359      2.78E-02
    2    -331.0383427582      2.88E-03
    3    -331.0891981732      1.67E-03
    4    -331.1035207127      3.84E-04
    5    -331.1087247155      1.55E-04
    6    -331.1105909859      8.39E-05
    7    -331.1114168683      3.56E-05
    8    -331.1116543262      1.54E-05
    9    -331.1117093987      7.31E-06 Convergence criterion met
 ---------------------------------------
 One-Electron    Energy =  -584.7587289910
 Total Coulomb   Energy =   219.1917145313
 Alpha Exchange  Energy =    -3.8684610422
 Beta  Exchange  Energy =    -3.7986572237
 DFT   Exchange  Energy =   -20.0281719002
 DFT Correlation Energy =    -0.8871214395
 Nuclear Repu.   Energy =    63.0377166666
 Nuclear Attr.   Energy =  -915.0561379787
 Kinetic         Energy =   330.2974089876
 <S^2> = 0.7502
 SCF time:  CPU 91.86 s  wall 92.79 s
 Final Alpha MO Eigenvalues
            1           2           3           4           5           6
    1 -65.6149714 -10.0793457  -5.2790382  -3.6609229  -3.6609031  -3.6597544
            7           8           9          10          11          12
    1  -0.7777306  -0.5777807  -0.4303245  -0.4302239  -0.3542482  -0.3541861
           13          14          15          16          17          18
    1  -0.3293224   0.0295583   0.1485264   0.1508216   0.1509207   0.1768614
           19
    1   0.1892893
 Final Beta MO Eigenvalues
            1           2           3           4           5           6
    1 -65.6148783 -10.0787531  -5.2789283  -3.6608532  -3.6608332  -3.6594905
            7           8           9          10          11          12
    1  -0.7753523  -0.5755651  -0.4296769  -0.4295789  -0.3543814  -0.3543127
           13          14          15          16          17          18
    1  -0.3277791   0.1395420   0.1556066   0.1657332   0.1660141   0.1834025
 Analysis of SCF Wavefunction
 
 --------------------------------------------------------------
                    Orbital Energies (a.u.)
 --------------------------------------------------------------
 
 Alpha MOs
 -- Occupied --
-65.615 -10.079  -5.279  -3.661  -3.661  -3.660  -0.778  -0.578
 -0.430  -0.430  -0.354  -0.354  -0.329   0.030
 -- Virtual --
  0.149   0.151   0.151   0.177   0.189   0.189   0.200   0.200
  0.258   0.271   0.271   0.274   0.302   0.314   0.314   0.320
  0.364   0.376   0.376   0.437   0.437   0.488   0.488   0.488
  0.496   0.538   0.538   0.633   0.647   0.647   0.658   0.682
  0.733   0.733   0.743   0.793   0.793   0.793   0.839   0.839
  0.899   0.942   0.944   0.944   0.993   0.993   1.058   1.086
  1.086   1.113   1.114   1.184   1.246   1.246   1.307   1.307
  1.353   1.374   1.374   1.446   1.447   1.498   1.543   1.574
  1.574   1.586   1.604   1.604   1.686   1.686   1.754   1.754
  1.775   1.829   1.829   1.859   1.909   2.422   2.457   2.462
  2.462   2.522   2.522   2.642   2.846   2.846   2.960   3.145
  3.146   3.258   3.292   3.425   3.425   3.435   3.544   3.544
  3.631   3.631   3.695   3.871   3.871   3.989   3.995   3.996
  4.117   4.119   4.188   4.249   4.249   4.379   4.379   4.399
  4.427   4.443   4.443   4.522   4.522   4.557   4.678   4.678
  4.679   4.777   4.867   4.952   4.953   5.388   5.909   5.909
  6.588  11.729  11.729  12.050  17.860  17.933  18.040  18.107
 18.166  22.464  22.479  22.484  22.485  22.493  22.494  22.522
 24.339  28.087  28.345  28.345  41.255  41.264  41.475  41.505
 41.544 141.421
 
 Beta MOs
 -- Occupied --
-65.615 -10.079  -5.279  -3.661  -3.661  -3.659  -0.775  -0.576
 -0.430  -0.430  -0.354  -0.354  -0.328
 -- Virtual --
  0.140   0.156   0.166   0.166   0.183   0.191   0.191   0.202
  0.202   0.257   0.267   0.267   0.278   0.299   0.314   0.314
  0.322   0.365   0.377   0.377   0.438   0.438   0.482   0.488
  0.488   0.497   0.537   0.537   0.633   0.644   0.644   0.656
  0.683   0.732   0.732   0.743   0.792   0.793   0.793   0.837
  0.837   0.895   0.942   0.945   0.945   0.993   0.993   1.058
  1.085   1.085   1.113   1.114   1.183   1.246   1.246   1.307
  1.307   1.353   1.374   1.374   1.446   1.446   1.498   1.543
  1.573   1.574   1.586   1.603   1.604   1.686   1.686   1.753
  1.753   1.774   1.829   1.829   1.859   1.908   2.422   2.458
  2.462   2.463   2.522   2.522   2.643   2.846   2.846   2.960
  3.145   3.145   3.259   3.292   3.426   3.426   3.434   3.545
  3.545   3.631   3.631   3.696   3.871   3.872   3.991   3.995
  3.996   4.117   4.119   4.188   4.249   4.249   4.379   4.379
  4.398   4.426   4.443   4.443   4.522   4.522   4.557   4.678
  4.678   4.679   4.777   4.867   4.952   4.953   5.389   5.909
  5.910   6.588  11.729  11.729  12.051  17.860  17.934  18.040
 18.107  18.166  22.464  22.479  22.484  22.485  22.494  22.494
 22.522  24.339  28.088  28.346  28.346  41.255  41.264  41.475
 41.505  41.544 141.421
 --------------------------------------------------------------
 
          Ground-State Mulliken Net Atomic Charges

     Atom                 Charge (a.u.)    Spin (a.u.)
  --------------------------------------------------------
      1 C                     2.551895      -2.793023
      2 Si                    0.875645      -0.642683
      3 H                    -1.165667       1.258483
      4 H                    -1.183074       1.276540
      5 H                    -1.147764       1.239945
      6 H                    -0.310697       0.220688
      7 H                    -0.310892       0.221302
      8 H                    -0.309447       0.218747
  --------------------------------------------------------
  Sum of atomic charges =    -1.000000
  Sum of spin   charges =     1.000000

 -----------------------------------------------------------------
                    Cartesian Multipole Moments
 -----------------------------------------------------------------
    Charge (ESU x 10^10)
                -4.8032
    Dipole Moment (Debye)
         X       0.0001      Y       0.1514      Z       1.7831
       Tot       1.7895
    Quadrupole Moments (Debye-Ang)
        XX     -49.8308     XY      -0.1015     YY     -49.8213
        XZ      -0.0045     YZ      -0.0435     ZZ     -47.3168
    Octapole Moments (Debye-Ang^2)
       XXX      -1.1282    XXY       0.6026    XYY       1.1205
       YYY       1.8076    XXZ     -22.1039    XYZ       0.0479
       YYZ     -22.0921    XZZ      -0.0034    YZZ       0.5651
       ZZZ     -74.7650
    Hexadecapole Moments (Debye-Ang^3)
      XXXX    -383.1719   XXXY      -0.8027   XXYY    -127.6919
      XYYY      -0.8930   YYYY    -382.9848   XXXZ       8.0010
      XXYZ      -0.0242   XYYZ      -8.0463   YYYZ      -0.0727
      XXZZ    -181.9913   XYZZ      -0.2530   YYZZ    -181.9469
      XZZZ      -0.0372   YZZZ      -0.0544   ZZZZ    -661.1368
 -----------------------------------------------------------------
 Total job time:  93.00s(wall), 92.05s(cpu) 
 Tue Jun  4 15:57:24 2013

        *************************************************************
        *                                                           *
        *  Thank you very much for using Q-Chem.  Have a nice day.  *
        *                                                           *
        *************************************************************


0 sent ACK to 0 
now end server 0 ... 
 
**********************************************************************
Job 2 of 3 
**********************************************************************
 
Process 0 of 1 is on cl206.stfx.acenet.ca - thread support 1
initial socket setup ...start
initial socket setup ...done 
now start server 0 ... 

cmd = /usr/bin/ssh clhead /usr/local/qchem/bin/get_hostid 203097310 > /scratch/tmp/6028645.1.medium.q/qchem21967/lic.dat
                  Welcome to Q-Chem
     A Quantum Leap Into The Future Of Chemistry

 Y. Shao, L. Fusti-Molnar, Y. Jung, J. Kussmann, C. Ochsenfeld,
 S. T. Brown, A. T. B. Gilbert, L. V. Slipchenko,S. V. Levchenko,
 D. P. O'Neill, R. A. DiStasio Jr., R. C. Lochan, T. Wang,
 G. J. O. Beran, N. A. Besley, J. M. Herbert, C. Y. Lin,
 T. Van Voorhis, S. H. Chien, A. Sodt, R. P. Steele, 
 V. A. Rassolov, P. E. Maslen, P. P. Korambath, R. D. Adamson,
 B. Austin, J. Baker, E. F. C. Byrd, H. Dachsel, R. J. Doerksen,
 A. Dreuw, B. D. Dunietz, A. D. Dutoi, T. R. Furlani,
 S. R. Gwaltney, A. Heyden, S. Hirata, C.-P. Hsu, G. Kedziora,
 R. Z. Khaliullin, P. Klunzinger, A. M. Lee, M. S. Lee, W. Liang,
 I. Lotan, N. Nair, B. Peters, E. I. Proynov, P. A. Pieniazek, 
 Y. M. Rhee, J. Ritchie, E. Rosta, C. D. Sherrill, 
 A. C. Simmonett, J. E. Subotnik, H. L. Woodcock III,
 W. Zhang, A. T. Bell, A. K. Chakraborty, D. M. Chipman,
 F. J. Keil, A. Warshel, W. J. Hehre, H. F. Schaefer III,
 J. Kong, A. I. Krylov, P. M. W. Gill, M. Head-Gordon,
 Q-Chem, Version 3.1, Q-Chem, Inc., Pittsburgh, PA (2007).

 Additional authors for Version 3.1: 
 Z. Gan, Y. Zhao, N. E. Schultz, D. Truhlar, E. Epifanovsky and M. Oana.

 Additional authors for Version 3.2: 
 R. Baer, B. R. Brooks, D. Casanova, J.-D. Chai, C.-L. Cheng, 
 C. Cramer, D. Crittenden, A. Ghysels, G. Hawkins, E. G. Hohenstein, 
 C. Kelley, W. Kurlancheek, D. Liotard, E. Livshits, P. Manohar, 
 A. Marenich, D. Neuhauser, R. Olson, M. A. Rohrdanz, K. S. Thanthiriwatte, 
 A. J. W. Thom, V. Vanovschi, C. F. Williams, Q. Wu and Z.-Q. You. 


 Intel X86 Linux Version

 Q-chem begins on Tue Jun  4 15:57:27 2013  

 Parallel job on  1  processors
Processing $rem in /usr/local/qchem/config/preferences.

theFileMan(): MAXOPENFILES=974 MAX_SUB_FILE_NUM=16
Maximum size of a physical file is 2.0 GB, maximum size of a tmp-file is 32.0 GB


--------------------------------------------------------------
User input:
--------------------------------------------------------------

$molecule
0,1
C          0.00012        0.00000        0.01772
Si        -0.00002       -0.00000        1.88416
H          1.04598        0.00000       -0.35160
H         -0.52304       -0.90592       -0.35164
H         -0.52304        0.90592       -0.35164
H         -1.38674       -0.00000        2.37295
H          0.69337       -1.20095        2.37296
H          0.69337        1.20095        2.37296
$end

$comment
neutral
$end

$xc_functional
C PBE   1.00
X wPBE  1.00
$end


$rem
SYMMETRY_DECOMPOSITION	0
LRC_DFT                 true
exchange 		general
BASIS                   g3large
omega			650
mem_static              760
max_scf_cycles          200
scf_final_print         1
sym_ignore              true
$end

--------------------------------------------------------------
 Writing REM_CC_EA            8
 ----------------------------------------------------
       Standard Nuclear Orientation (Angstroms)
    I     Atom         X            Y            Z
 ----------------------------------------------------
    1      C       0.000120     0.000000     0.017720
    2      Si     -0.000020     0.000000     1.884160
    3      H       1.045980     0.000000    -0.351600
    4      H      -0.523040    -0.905920    -0.351640
    5      H      -0.523040     0.905920    -0.351640
    6      H      -1.386740     0.000000     2.372950
    7      H       0.693370    -1.200950     2.372960
    8      H       0.693370     1.200950     2.372960
 ----------------------------------------------------
 Nuclear Repulsion Energy =    63.0377166733 hartrees
 There are       13 alpha and       13 beta electrons
 Requested basis set is G3large
 There are 65 shells and 168 basis functions

Total QAlloc Memory Limit   2000 MB
Mega-Array Size       743 MB
MEM_STATIC part       760 MB

                       Distance Matrix (Angstroms)
             C (  1)   Si(  2)   H (  3)   H (  4)   H (  5)   H (  6)
   Si(  2)  1.866440
   H (  3)  1.109153  2.468347
   H (  4)  1.109421  2.468409  1.811771
   H (  5)  1.109421  2.468409  1.811771  1.811840
   H (  6)  2.733220  1.470343  3.652574  2.998343  2.998343
   H (  7)  2.733136  1.470373  2.998307  2.998356  3.652670  2.401903
   H (  8)  2.733136  1.470373  2.998307  3.652670  2.998356  2.401903
             H (  7)
   H (  8)  2.401900
 
 A cutoff of  1.0D-08 yielded   2047 shell pairs
 There are  13856 function pairs ( 17267 Cartesian)
Evaluating contribution to one-electron hamiltonian from nuclear
 Smallest overlap matrix eigenvalue = 1.34E-04
 Multipole matrices computed through 2nd order

  Scale SEOQF with 1.000000e-01/1.000000e-01/1.000000e-01

 Standard Electronic Orientation quadrupole field applied
 Nucleus-field energy     =    -0.0000000067 hartrees
 Guess from superposition of atomic densities
 Warning:  Energy on first SCF cycle will be non-variational
 Long-range K will be added via erf
 Coulomb attenuation parameter = 0.65 bohr**(-1)
 A restricted Kohn-Sham SCF calculation will be
 performed using Pulay DIIS extrapolation
 Exchange:  wPBE + LR-HF      Correlation:  PBE
 Using SG-1 standard quadrature grid
 SCF converges when DIIS error is below 1.0E-05
 Requested basis set is G3large
 There are 65 shells and 168 basis functions
 A cutoff of  1.0D-08 yielded   2047 shell pairs
 There are  13856 function pairs ( 17267 Cartesian)
 ---------------------------------------
  Cycle       Energy         DIIS Error
 ---------------------------------------
    1    -331.3109267359      2.78E-02
    2    -331.1102207711      2.52E-03
    3    -331.1412148682      9.76E-04
    4    -331.1450171998      3.22E-04
    5    -331.1455557396      5.48E-05
    6    -331.1455779331      1.44E-05
    7    -331.1455802154      2.92E-06 Convergence criterion met
 ---------------------------------------
 One-Electron    Energy =  -581.3122020979
 Total Coulomb   Energy =   215.6377919280
 Alpha Exchange  Energy =    -3.8015418648
 Beta  Exchange  Energy =    -3.8015418648
 DFT   Exchange  Energy =   -20.0264846378
 DFT Correlation Energy =    -0.8793183446
 Nuclear Repu.   Energy =    63.0377166666
 Nuclear Attr.   Energy =  -911.5496473804
 Kinetic         Energy =   330.2374452825
 SCF time:  CPU 57.95 s  wall 58.27 s
 Final Alpha MO Eigenvalues
            1           2           3           4           5           6
    1 -65.7438330 -10.2246443  -5.4079181  -3.7895564  -3.7895400  -3.7890879
            7           8           9          10          11          12
    1  -0.9194055  -0.7055817  -0.5728751  -0.5728086  -0.4822729  -0.4822468
           13          14          15          16          17          18
    1  -0.4661817   0.0402136   0.0622710   0.0684947   0.0684972   0.0874142
 Analysis of SCF Wavefunction
 
 --------------------------------------------------------------
                    Orbital Energies (a.u.)
 --------------------------------------------------------------
 
 Alpha MOs
 -- Occupied --
-65.744 -10.225  -5.408  -3.790  -3.790  -3.789  -0.919  -0.706
 -0.573  -0.573  -0.482  -0.482  -0.466
 -- Virtual --
  0.040   0.062   0.068   0.068   0.087   0.096   0.096   0.104
  0.104   0.160   0.160   0.160   0.165   0.192   0.197   0.197
  0.210   0.247   0.247   0.250   0.311   0.311   0.362   0.371
  0.371   0.378   0.421   0.421   0.514   0.517   0.517   0.531
  0.556   0.605   0.605   0.620   0.662   0.662   0.666   0.704
  0.704   0.763   0.814   0.817   0.817   0.867   0.867   0.932
  0.962   0.962   0.971   0.979   1.054   1.112   1.112   1.176
  1.176   1.224   1.231   1.231   1.323   1.323   1.355   1.413
  1.437   1.437   1.461   1.475   1.475   1.546   1.546   1.614
  1.614   1.640   1.704   1.704   1.724   1.773   2.294   2.328
  2.329   2.329   2.393   2.393   2.515   2.703   2.703   2.817
  3.020   3.020   3.113   3.149   3.284   3.284   3.308   3.401
  3.401   3.489   3.489   3.558   3.729   3.729   3.846   3.860
  3.861   3.990   3.991   4.044   4.110   4.110   4.254   4.254
  4.273   4.301   4.309   4.309   4.385   4.385   4.429   4.533
  4.534   4.534   4.632   4.738   4.824   4.825   5.243   5.763
  5.764   6.459  11.601  11.601  11.921  17.731  17.805  17.911
 17.978  18.037  22.336  22.350  22.355  22.356  22.364  22.365
 22.393  24.193  27.943  28.200  28.200  41.110  41.118  41.329
 41.360  41.398 141.292
 --------------------------------------------------------------
 
          Ground-State Mulliken Net Atomic Charges

     Atom                 Charge (a.u.)
  ----------------------------------------
      1 C                    -0.290649
      2 Si                    0.226527
      3 H                     0.091898
      4 H                     0.091859
      5 H                     0.091796
      6 H                    -0.070402
      7 H                    -0.070509
      8 H                    -0.070520
  ----------------------------------------
  Sum of atomic charges =     0.000000

 -----------------------------------------------------------------
                    Cartesian Multipole Moments
 -----------------------------------------------------------------
    Charge (ESU x 10^10)
                 0.0000
    Dipole Moment (Debye)
         X      -0.0005      Y       0.0000      Z      -0.5997
       Tot       0.5997
    Quadrupole Moments (Debye-Ang)
        XX     -22.5966     XY       0.0001     YY     -22.5977
        XZ      -0.0014     YZ       0.0000     ZZ     -24.5966
    Octapole Moments (Debye-Ang^2)
       XXX       1.7568    XXY      -0.0001    XYY      -1.7597
       YYY      -0.0002    XXZ     -31.2306    XYZ      -0.0001
       YYZ     -31.2325    XZZ      -0.0034    YZZ       0.0001
       ZZZ     -90.6514
    Hexadecapole Moments (Debye-Ang^3)
      XXXX     -54.5434   XXXY       0.0001   XXYY     -18.1822
      XYYY       0.0001   YYYY     -54.5499   XXXZ       1.2197
      XXYZ       0.0000   XYYZ      -1.2235   YYYZ       0.0000
      XXZZ     -79.5123   XYZZ      -0.0003   YYZZ     -79.5176
      XZZZ      -0.0084   YZZZ       0.0001   ZZZZ    -397.9746
 -----------------------------------------------------------------
 Total job time:  58.46s(wall), 58.13s(cpu) 
 Tue Jun  4 15:58:26 2013

        *************************************************************
        *                                                           *
        *  Thank you very much for using Q-Chem.  Have a nice day.  *
        *                                                           *
        *************************************************************


0 sent ACK to 0 
now end server 0 ... 
 
**********************************************************************
Job 3 of 3 
**********************************************************************
 
Process 0 of 1 is on cl206.stfx.acenet.ca - thread support 1
initial socket setup ...start
initial socket setup ...done 
now start server 0 ... 

cmd = /usr/bin/ssh clhead /usr/local/qchem/bin/get_hostid 2052872283 > /scratch/tmp/6028645.1.medium.q/qchem21967/lic.dat
                  Welcome to Q-Chem
     A Quantum Leap Into The Future Of Chemistry

 Y. Shao, L. Fusti-Molnar, Y. Jung, J. Kussmann, C. Ochsenfeld,
 S. T. Brown, A. T. B. Gilbert, L. V. Slipchenko,S. V. Levchenko,
 D. P. O'Neill, R. A. DiStasio Jr., R. C. Lochan, T. Wang,
 G. J. O. Beran, N. A. Besley, J. M. Herbert, C. Y. Lin,
 T. Van Voorhis, S. H. Chien, A. Sodt, R. P. Steele, 
 V. A. Rassolov, P. E. Maslen, P. P. Korambath, R. D. Adamson,
 B. Austin, J. Baker, E. F. C. Byrd, H. Dachsel, R. J. Doerksen,
 A. Dreuw, B. D. Dunietz, A. D. Dutoi, T. R. Furlani,
 S. R. Gwaltney, A. Heyden, S. Hirata, C.-P. Hsu, G. Kedziora,
 R. Z. Khaliullin, P. Klunzinger, A. M. Lee, M. S. Lee, W. Liang,
 I. Lotan, N. Nair, B. Peters, E. I. Proynov, P. A. Pieniazek, 
 Y. M. Rhee, J. Ritchie, E. Rosta, C. D. Sherrill, 
 A. C. Simmonett, J. E. Subotnik, H. L. Woodcock III,
 W. Zhang, A. T. Bell, A. K. Chakraborty, D. M. Chipman,
 F. J. Keil, A. Warshel, W. J. Hehre, H. F. Schaefer III,
 J. Kong, A. I. Krylov, P. M. W. Gill, M. Head-Gordon,
 Q-Chem, Version 3.1, Q-Chem, Inc., Pittsburgh, PA (2007).

 Additional authors for Version 3.1: 
 Z. Gan, Y. Zhao, N. E. Schultz, D. Truhlar, E. Epifanovsky and M. Oana.

 Additional authors for Version 3.2: 
 R. Baer, B. R. Brooks, D. Casanova, J.-D. Chai, C.-L. Cheng, 
 C. Cramer, D. Crittenden, A. Ghysels, G. Hawkins, E. G. Hohenstein, 
 C. Kelley, W. Kurlancheek, D. Liotard, E. Livshits, P. Manohar, 
 A. Marenich, D. Neuhauser, R. Olson, M. A. Rohrdanz, K. S. Thanthiriwatte, 
 A. J. W. Thom, V. Vanovschi, C. F. Williams, Q. Wu and Z.-Q. You. 


 Intel X86 Linux Version

 Q-chem begins on Tue Jun  4 15:58:28 2013  

 Parallel job on  1  processors
Processing $rem in /usr/local/qchem/config/preferences.

theFileMan(): MAXOPENFILES=974 MAX_SUB_FILE_NUM=16
Maximum size of a physical file is 2.0 GB, maximum size of a tmp-file is 32.0 GB


--------------------------------------------------------------
User input:
--------------------------------------------------------------

$molecule
1,2
C          0.00012        0.00000        0.01772
Si        -0.00002       -0.00000        1.88416
H          1.04598        0.00000       -0.35160
H         -0.52304       -0.90592       -0.35164
H         -0.52304        0.90592       -0.35164
H         -1.38674       -0.00000        2.37295
H          0.69337       -1.20095        2.37296
H          0.69337        1.20095        2.37296
$end

$comment
positive
$end

$xc_functional
C PBE   1.00
X wPBE  1.00
$end

$rem
SYMMETRY_DECOMPOSITION	0
LRC_DFT                 true
exchange 		general
BASIS                   g3large
omega			650
mem_static              760
max_scf_cycles          200
scf_final_print         1
sym_ignore              true
$end

--------------------------------------------------------------
 Writing REM_CC_EA            8
 ----------------------------------------------------
       Standard Nuclear Orientation (Angstroms)
    I     Atom         X            Y            Z
 ----------------------------------------------------
    1      C       0.000120     0.000000     0.017720
    2      Si     -0.000020     0.000000     1.884160
    3      H       1.045980     0.000000    -0.351600
    4      H      -0.523040    -0.905920    -0.351640
    5      H      -0.523040     0.905920    -0.351640
    6      H      -1.386740     0.000000     2.372950
    7      H       0.693370    -1.200950     2.372960
    8      H       0.693370     1.200950     2.372960
 ----------------------------------------------------
 Nuclear Repulsion Energy =    63.0377166733 hartrees
 There are       13 alpha and       12 beta electrons
 Requested basis set is G3large
 There are 65 shells and 168 basis functions

Total QAlloc Memory Limit   2000 MB
Mega-Array Size       743 MB
MEM_STATIC part       760 MB

                       Distance Matrix (Angstroms)
             C (  1)   Si(  2)   H (  3)   H (  4)   H (  5)   H (  6)
   Si(  2)  1.866440
   H (  3)  1.109153  2.468347
   H (  4)  1.109421  2.468409  1.811771
   H (  5)  1.109421  2.468409  1.811771  1.811840
   H (  6)  2.733220  1.470343  3.652574  2.998343  2.998343
   H (  7)  2.733136  1.470373  2.998307  2.998356  3.652670  2.401903
   H (  8)  2.733136  1.470373  2.998307  3.652670  2.998356  2.401903
             H (  7)
   H (  8)  2.401900
 
 A cutoff of  1.0D-08 yielded   2047 shell pairs
 There are  13856 function pairs ( 17267 Cartesian)
Evaluating contribution to one-electron hamiltonian from nuclear
 Smallest overlap matrix eigenvalue = 1.34E-04
 Multipole matrices computed through 2nd order

  Scale SEOQF with 1.000000e-01/1.000000e-01/1.000000e-01

 Standard Electronic Orientation quadrupole field applied
 Nucleus-field energy     =    -0.0000000067 hartrees
 Guess from superposition of atomic densities
 Warning:  Energy on first SCF cycle will be non-variational
 Long-range K will be added via erf
 Coulomb attenuation parameter = 0.65 bohr**(-1)
 An unrestricted Kohn-Sham SCF calculation will be
 performed using Pulay DIIS extrapolation
 Exchange:  wPBE + LR-HF      Correlation:  PBE
 Using SG-1 standard quadrature grid
 SCF converges when DIIS error is below 1.0E-05
 Requested basis set is G3large
 There are 65 shells and 168 basis functions
 A cutoff of  1.0D-08 yielded   2047 shell pairs
 There are  13856 function pairs ( 17267 Cartesian)
 Warning!  Inaccurate integrated density:
   Number of electrons =    25
   Numerical integral  =    25.999996505265
   Relative error      =     3.9999860211 %
 ---------------------------------------
  Cycle       Energy         DIIS Error
 ---------------------------------------
    1    -331.3109267359      2.78E-02
    2    -330.6185135414      3.01E-03
    3    -330.6782367765      1.21E-03
    4    -330.6851083132      4.32E-04
    5    -330.6865541355      1.00E-04
    6    -330.6869358676      6.07E-05
    7    -330.6872138448      5.44E-05
    8    -330.6875241664      5.17E-05
    9    -330.6878057951      5.36E-05
   10    -330.6869797612      5.15E-05
   11    -330.6857273172      9.58E-05
   12    -330.6858175343      1.33E-04
   13    -330.6852177525      1.05E-04
   14    -330.6850343081      1.28E-04
   15    -330.6849951111      1.40E-04
   16    -330.6852669855      1.50E-05
   17    -330.6852604615      2.77E-05
   18    -330.6853087196      9.47E-06 Convergence criterion met
 ---------------------------------------
 One-Electron    Energy =  -574.4419250777
 Total Coulomb   Energy =   208.8807757741
 Alpha Exchange  Energy =    -3.8310460289
 Beta  Exchange  Energy =    -3.5313180927
 DFT   Exchange  Energy =   -19.9546370302
 DFT Correlation Energy =    -0.8448749308
 Nuclear Repu.   Energy =    63.0377166666
 Nuclear Attr.   Energy =  -904.4024999010
 Kinetic         Energy =   329.9605748233
 <S^2> = 0.7828
 SCF time:  CPU 182.93 s  wall 183.93 s
 Final Alpha MO Eigenvalues
            1           2           3           4           5           6
    1 -66.0380801 -10.4386554  -5.7019694  -4.0908927  -4.0808474  -4.0792162
            7           8           9          10          11          12
    1  -1.1420551  -1.0104740  -0.8672435  -0.7937140  -0.7663123  -0.7417401
           13          14          15          16          17          18
    1  -0.6982341  -0.1211268  -0.0999415  -0.0993979  -0.0942794  -0.0706630
 Final Beta MO Eigenvalues
            1           2           3           4           5           6
    1 -66.0374378 -10.4382299  -5.7011972  -4.0867322  -4.0812265  -4.0790092
            7           8           9          10          11          12
    1  -1.1320742  -0.9330995  -0.7826624  -0.7641895  -0.7098431  -0.6891984
           13          14          15          16          17
    1  -0.4362025  -0.1166187  -0.0967967  -0.0876568  -0.0768193
 Analysis of SCF Wavefunction
 
 --------------------------------------------------------------
                    Orbital Energies (a.u.)
 --------------------------------------------------------------
 
 Alpha MOs
 -- Occupied --
-66.038 -10.439  -5.702  -4.091  -4.081  -4.079  -1.142  -1.010
 -0.867  -0.794  -0.766  -0.742  -0.698
 -- Virtual --
 -0.121  -0.100  -0.099  -0.094  -0.071  -0.061  -0.056  -0.028
 -0.025  -0.024  -0.012  -0.007   0.014   0.021   0.022   0.037
  0.051   0.063   0.065   0.070   0.115   0.118   0.161   0.179
  0.185   0.199   0.231   0.236   0.287   0.315   0.321   0.325
  0.334   0.378   0.389   0.406   0.435   0.446   0.465   0.513
  0.514   0.569   0.582   0.593   0.607   0.620   0.628   0.690
  0.703   0.715   0.758   0.764   0.816   0.893   0.896   0.922
  0.953   0.980   1.030   1.035   1.053   1.083   1.150   1.177
  1.205   1.208   1.213   1.232   1.244   1.325   1.335   1.386
  1.402   1.418   1.434   1.465   1.493   1.565   1.996   2.049
  2.055   2.075   2.110   2.116   2.231   2.490   2.495   2.600
  2.664   2.737   2.907   2.935   3.008   3.052   3.064   3.187
  3.192   3.267   3.271   3.314   3.502   3.505   3.604   3.607
  3.633   3.669   3.711   3.831   3.847   3.861   3.887   3.908
  3.949   3.968   4.060   4.068   4.126   4.153   4.161   4.313
  4.320   4.328   4.423   4.439   4.502   4.559   5.036   5.555
  5.560   6.170  11.299  11.312  11.634  17.436  17.510  17.620
 17.683  17.743  22.039  22.055  22.060  22.065  22.071  22.073
 22.100  23.980  27.728  27.986  27.987  40.895  40.905  41.115
 41.145  41.185 140.998
 
 Beta MOs
 -- Occupied --
-66.037 -10.438  -5.701  -4.087  -4.081  -4.079  -1.132  -0.933
 -0.783  -0.764  -0.710  -0.689
 -- Virtual --
 -0.436  -0.117  -0.097  -0.088  -0.077  -0.066  -0.060  -0.053
 -0.024  -0.023  -0.012  -0.009  -0.004   0.014   0.024   0.028
  0.050   0.056   0.068   0.069   0.070   0.118   0.122   0.179
  0.180   0.187   0.200   0.235   0.239   0.309   0.327   0.329
  0.332   0.336   0.389   0.393   0.409   0.450   0.451   0.469
  0.515   0.516   0.571   0.591   0.595   0.611   0.630   0.633
  0.709   0.717   0.728   0.760   0.772   0.827   0.899   0.899
  0.942   0.958   0.996   1.034   1.037   1.072   1.091   1.158
  1.184   1.214   1.217   1.225   1.239   1.244   1.331   1.336
  1.400   1.407   1.420   1.449   1.470   1.494   1.567   2.011
  2.056   2.067   2.074   2.121   2.124   2.243   2.494   2.496
  2.609   2.736   2.769   2.910   2.937   3.044   3.058   3.065
  3.191   3.194   3.270   3.272   3.318   3.505   3.506   3.609
  3.611   3.634   3.703   3.724   3.835   3.880   3.881   3.959
  3.966   3.998   4.020   4.068   4.074   4.155   4.161   4.167
  4.321   4.325   4.330   4.427   4.465   4.538   4.567   5.039
  5.559   5.562   6.175  11.305  11.313  11.634  17.438  17.511
 17.620  17.685  17.744  22.040  22.056  22.061  22.066  22.072
 22.073  22.100  23.980  27.728  27.987  27.988  40.896  40.906
 41.116  41.146  41.185 140.999
 --------------------------------------------------------------
 
          Ground-State Mulliken Net Atomic Charges

     Atom                 Charge (a.u.)    Spin (a.u.)
  --------------------------------------------------------
      1 C                    -0.205751       0.022293
      2 Si                    0.404102       0.078835
      3 H                     0.146929       0.021740
      4 H                     0.147247       0.019519
      5 H                     0.137952       0.001442
      6 H                     0.149134       0.390205
      7 H                     0.051193       0.001182
      8 H                     0.169195       0.464783
  --------------------------------------------------------
  Sum of atomic charges =     1.000000
  Sum of spin   charges =     1.000000

 -----------------------------------------------------------------
                    Cartesian Multipole Moments
 -----------------------------------------------------------------
    Charge (ESU x 10^10)
                 4.8032
    Dipole Moment (Debye)
         X      -0.3915      Y       1.0982      Z       8.1015
       Tot       8.1850
    Quadrupole Moments (Debye-Ang)
        XX     -15.3385     XY       1.6747     YY     -16.4707
        XZ      -1.1527     YZ       2.8820     ZZ      -0.5603
    Octapole Moments (Debye-Ang^2)
       XXX      -1.6324    XXY       0.7767    XYY       0.4712
       YYY       2.3157    XXZ     -16.9685    XYZ       3.6887
       YYZ     -19.4613    XZZ      -2.8196    YZZ       6.8307
       ZZZ     -30.3683
    Hexadecapole Moments (Debye-Ang^3)
      XXXX     -32.7796   XXXY       2.2009   XXYY     -11.5950
      XYYY       2.6348   YYYY     -36.1168   XXXZ      -7.7479
      XXYZ       1.9584   XYYZ       4.6476   YYYZ       5.8447
      XXZZ     -41.7405   XYZZ       9.0376   YYZZ     -47.9353
      XZZZ      -7.5043   YZZZ      17.3759   ZZZZ    -227.2045
 -----------------------------------------------------------------
 Total job time:  184.12s(wall), 183.12s(cpu) 
 Tue Jun  4 16:01:33 2013

        *************************************************************
        *                                                           *
        *  Thank you very much for using Q-Chem.  Have a nice day.  *
        *                                                           *
        *************************************************************


0 sent ACK to 0 
now end server 0 ... 
