Process 0 of 1 is on cl210.stfx.acenet.ca - thread support 1
initial socket setup ...start
initial socket setup ...done 
now start server 0 ... 

cmd = /usr/bin/ssh clhead /usr/local/qchem/bin/get_hostid 1933481522 > /scratch/tmp/6064901.1.medium.q/qchem27916/lic.dat
                  Welcome to Q-Chem
     A Quantum Leap Into The Future Of Chemistry

 Y. Shao, L. Fusti-Molnar, Y. Jung, J. Kussmann, C. Ochsenfeld,
 S. T. Brown, A. T. B. Gilbert, L. V. Slipchenko,S. V. Levchenko,
 D. P. O'Neill, R. A. DiStasio Jr., R. C. Lochan, T. Wang,
 G. J. O. Beran, N. A. Besley, J. M. Herbert, C. Y. Lin,
 T. Van Voorhis, S. H. Chien, A. Sodt, R. P. Steele, 
 V. A. Rassolov, P. E. Maslen, P. P. Korambath, R. D. Adamson,
 B. Austin, J. Baker, E. F. C. Byrd, H. Dachsel, R. J. Doerksen,
 A. Dreuw, B. D. Dunietz, A. D. Dutoi, T. R. Furlani,
 S. R. Gwaltney, A. Heyden, S. Hirata, C.-P. Hsu, G. Kedziora,
 R. Z. Khaliullin, P. Klunzinger, A. M. Lee, M. S. Lee, W. Liang,
 I. Lotan, N. Nair, B. Peters, E. I. Proynov, P. A. Pieniazek, 
 Y. M. Rhee, J. Ritchie, E. Rosta, C. D. Sherrill, 
 A. C. Simmonett, J. E. Subotnik, H. L. Woodcock III,
 W. Zhang, A. T. Bell, A. K. Chakraborty, D. M. Chipman,
 F. J. Keil, A. Warshel, W. J. Hehre, H. F. Schaefer III,
 J. Kong, A. I. Krylov, P. M. W. Gill, M. Head-Gordon,
 Q-Chem, Version 3.1, Q-Chem, Inc., Pittsburgh, PA (2007).

 Additional authors for Version 3.1: 
 Z. Gan, Y. Zhao, N. E. Schultz, D. Truhlar, E. Epifanovsky and M. Oana.

 Additional authors for Version 3.2: 
 R. Baer, B. R. Brooks, D. Casanova, J.-D. Chai, C.-L. Cheng, 
 C. Cramer, D. Crittenden, A. Ghysels, G. Hawkins, E. G. Hohenstein, 
 C. Kelley, W. Kurlancheek, D. Liotard, E. Livshits, P. Manohar, 
 A. Marenich, D. Neuhauser, R. Olson, M. A. Rohrdanz, K. S. Thanthiriwatte, 
 A. J. W. Thom, V. Vanovschi, C. F. Williams, Q. Wu and Z.-Q. You. 


 Intel X86 Linux Version

 Q-chem begins on Mon Jul  8 12:27:34 2013  

 Parallel job on  1  processors
Processing $rem in /usr/local/qchem/config/preferences.

theFileMan(): MAXOPENFILES=974 MAX_SUB_FILE_NUM=16
Maximum size of a physical file is 2.0 GB, maximum size of a tmp-file is 32.0 GB


--------------------------------------------------------------
User input:
--------------------------------------------------------------

$molecule
-1,2
O         -0.00679        0.00000        0.01924
C         -0.00704        0.00000        1.21921
H          0.95367        0.00000        1.77265
C         -1.23948        0.00000        2.06376
H         -2.13110        0.00000        1.44172
H         -1.23454       -0.87707        2.71383
H         -1.23454        0.87707        2.71383
$end

$comment
negative
$end

$xc_functional
C PBE   1.00
X wPBE  1.00
$end

$rem
SYMMETRY_DECOMPOSITION	0
exchange 		general
LRC_DFT                 true
BASIS                   g3large
omega			500
mem_static              760
max_scf_cycles          200
scf_final_print         1
sym_ignore              true
$end

--------------------------------------------------------------
 Writing REM_CC_EA            7
 ----------------------------------------------------
       Standard Nuclear Orientation (Angstroms)
    I     Atom         X            Y            Z
 ----------------------------------------------------
    1      O      -0.006790     0.000000     0.019240
    2      C      -0.007040     0.000000     1.219210
    3      H       0.953670     0.000000     1.772650
    4      C      -1.239480     0.000000     2.063760
    5      H      -2.131100     0.000000     1.441720
    6      H      -1.234540    -0.877070     2.713830
    7      H      -1.234540     0.877070     2.713830
 ----------------------------------------------------
 Nuclear Repulsion Energy =    70.0674222101 hartrees
 There are       13 alpha and       12 beta electrons
 Requested basis set is G3large
 There are 54 shells and 166 basis functions

Total QAlloc Memory Limit   2000 MB
Mega-Array Size       743 MB
MEM_STATIC part       760 MB

                       Distance Matrix (Angstroms)
             O (  1)   C (  2)   H (  3)   C (  4)   H (  5)   H (  6)
   C (  2)  1.199970
   H (  3)  1.999232  1.108720
   C (  4)  2.387381  1.494046  2.212386
   H (  5)  2.556588  2.135683  3.102470  1.087161
   H (  6)  3.088274  2.123652  2.538372  1.091727  1.786431
   H (  7)  3.088274  2.123652  2.538372  1.091727  1.786431  1.754140

 
 A cutoff of  1.0D-08 yielded   1418 shell pairs
 There are  13429 function pairs ( 16544 Cartesian)
Evaluating contribution to one-electron hamiltonian from nuclear
 Smallest overlap matrix eigenvalue = 1.31E-04
 Multipole matrices computed through 2nd order

  Scale SEOQF with 1.000000e-01/1.000000e-01/1.000000e-01

 Standard Electronic Orientation quadrupole field applied
 Nucleus-field energy     =    -0.0000000051 hartrees
 Guess from superposition of atomic densities
 Warning:  Energy on first SCF cycle will be non-variational
 Long-range K will be added via erf
 Coulomb attenuation parameter = 0.5 bohr**(-1)
 An unrestricted Kohn-Sham SCF calculation will be
 performed using Pulay DIIS extrapolation
 Exchange:  wPBE + LR-HF      Correlation:  PBE
 Using SG-1 standard quadrature grid
 SCF converges when DIIS error is below 1.0E-05
 Requested basis set is G3large
 There are 54 shells and 166 basis functions
 A cutoff of  1.0D-08 yielded   1418 shell pairs
 There are  13429 function pairs ( 16544 Cartesian)
 Warning!  Inaccurate integrated density:
   Number of electrons =    25
   Numerical integral  =    23.999992059399
   Relative error      =    -4.0000317624 %
 ---------------------------------------
  Cycle       Energy         DIIS Error
 ---------------------------------------
    1    -154.4325675592      3.56E-02
    2    -153.5700697500      6.72E-03
    3    -153.3522563245      1.13E-02
    4    -153.7206918351      1.44E-03
    5    -153.7304799920      3.33E-04
    6    -153.7315699041      1.06E-04
    7    -153.7319594627      6.40E-05
    8    -153.7322031862      4.27E-05
    9    -153.7324081860      4.46E-05
   10    -153.7324567841      4.64E-05
   11    -153.7325121968      4.93E-05
   12    -153.7321517830      4.75E-05
   13    -153.7320210950      4.87E-05
   14    -153.7319593904      4.01E-05
   15    -153.7319432590      1.90E-05
   16    -153.7319546958      2.43E-05
   17    -153.7319514460      4.39E-05
   18    -153.7319493241      4.77E-05
   19    -153.7319574485      4.01E-05
   20    -153.7319759635      5.14E-05
   21    -153.7319747491      4.94E-05
   22    -153.7319710223      4.56E-05
   23    -153.7319551373      4.04E-05
   24    -153.7319523408      3.86E-05
   25    -153.7319517664      3.83E-05
   26    -153.7319510669      4.21E-05
   27    -153.7319516953      4.03E-05
   28    -153.7319511018      4.18E-05
   29    -153.7319531693      3.35E-05
   30    -153.7319538549      5.68E-06 Convergence criterion met
 ---------------------------------------
 One-Electron    Energy =  -353.3575999318
 Total Coulomb   Energy =   150.6871336361
 Alpha Exchange  Energy =    -3.0674590075
 Beta  Exchange  Energy =    -2.8449956356
 DFT   Exchange  Energy =   -14.4082626212
 DFT Correlation Energy =    -0.8081924998
 Nuclear Repu.   Energy =    70.0674222050
 Nuclear Attr.   Energy =  -506.9146447030
 Kinetic         Energy =   153.5570447712
 <S^2> = 0.7551
 SCF time:  CPU 239.32 s  wall 241.67 s
 Final Alpha MO Eigenvalues
            1           2           3           4           5           6
    1 -18.6966345  -9.9436121  -9.9273479  -0.9407179  -0.7046518  -0.4911589
            7           8           9          10          11          12
    1  -0.3838272  -0.3712514  -0.3270495  -0.2941267  -0.2679935  -0.1211698
           13          14          15          16          17          18
    1   0.0332213   0.1621017   0.1813477   0.1871629   0.2034575   0.2601665
 Final Beta MO Eigenvalues
            1           2           3           4           5           6
    1 -18.6885435  -9.9445005  -9.9193106  -0.9247178  -0.6983007  -0.4655052
            7           8           9          10          11          12
    1  -0.3775763  -0.3542833  -0.3217158  -0.2853164  -0.2050392  -0.1140813
           13          14          15          16          17
    1   0.1628814   0.1820425   0.1880807   0.2038449   0.2609697
 Analysis of SCF Wavefunction
 
 --------------------------------------------------------------
                    Orbital Energies (a.u.)
 --------------------------------------------------------------
 
 Alpha MOs
 -- Occupied --
-18.697  -9.944  -9.927  -0.941  -0.705  -0.491  -0.384  -0.371
 -0.327  -0.294  -0.268  -0.121   0.033
 -- Virtual --
  0.162   0.181   0.187   0.203   0.260   0.276   0.292   0.293
  0.313   0.318   0.337   0.352   0.427   0.435   0.466   0.495
  0.510   0.524   0.570   0.576   0.626   0.703   0.713   0.750
  0.808   0.816   0.836   0.876   0.884   0.908   0.908   0.935
  0.977   1.063   1.082   1.112   1.139   1.174   1.297   1.303
  1.351   1.358   1.402   1.434   1.443   1.487   1.515   1.522
  1.551   1.595   1.611   1.692   1.718   1.749   1.760   1.763
  1.848   1.887   1.948   2.075   2.148   2.290   2.376   2.621
  2.786   2.801   2.856   2.906   3.067   3.088   3.145   3.155
  3.265   3.291   3.371   3.408   3.452   3.455   3.497   3.509
  3.519   3.574   3.715   3.743   3.751   3.792   3.829   3.973
  3.988   3.988   4.070   4.184   4.219   4.219   4.337   4.365
  4.437   4.526   4.535   4.593   4.608   4.742   4.788   4.865
  4.895   4.954   5.067   5.394   5.420   5.501   5.512   5.617
  5.830   5.868   5.904   5.996   6.020   6.228   6.723   7.056
  7.259   7.303   7.391   7.638   7.829   8.038  24.507  24.896
 27.655  28.017  28.366  28.392  28.504  28.736  41.203  41.224
 41.302  41.431  41.441  41.456  41.516  41.528  41.542  41.640
 44.082  44.135  44.239  44.321  44.335  46.087  46.198  46.913
 50.429
 
 Beta MOs
 -- Occupied --
-18.689  -9.945  -9.919  -0.925  -0.698  -0.466  -0.378  -0.354
 -0.322  -0.285  -0.205  -0.114
 -- Virtual --
  0.163   0.182   0.188   0.204   0.261   0.277   0.281   0.293
  0.314   0.318   0.339   0.357   0.393   0.434   0.436   0.473
  0.497   0.512   0.541   0.571   0.579   0.633   0.706   0.717
  0.754   0.811   0.834   0.852   0.887   0.904   0.912   0.927
  0.948   0.985   1.083   1.086   1.118   1.148   1.178   1.306
  1.309   1.362   1.363   1.409   1.438   1.458   1.492   1.519
  1.538   1.564   1.598   1.616   1.697   1.725   1.750   1.763
  1.769   1.852   1.895   1.951   2.095   2.169   2.299   2.397
  2.625   2.795   2.812   2.860   2.914   3.072   3.112   3.157
  3.188   3.267   3.303   3.385   3.411   3.462   3.470   3.505
  3.521   3.530   3.586   3.725   3.753   3.770   3.818   3.843
  3.974   3.997   4.004   4.076   4.189   4.223   4.226   4.339
  4.369   4.444   4.531   4.542   4.598   4.621   4.746   4.792
  4.872   4.898   4.959   5.071   5.399   5.457   5.519   5.534
  5.626   5.839   5.886   5.918   5.997   6.026   6.233   6.749
  7.062   7.294   7.336   7.399   7.670   7.835   8.052  24.507
 24.905  27.678  28.019  28.365  28.392  28.509  28.739  41.207
 41.233  41.306  41.436  41.452  41.460  41.528  41.531  41.542
 41.642  44.104  44.156  44.259  44.323  44.343  46.111  46.203
 46.918  50.436
 --------------------------------------------------------------
 
          Ground-State Mulliken Net Atomic Charges

     Atom                 Charge (a.u.)    Spin (a.u.)
  --------------------------------------------------------
      1 O                    -0.545379       0.248888
      2 C                    -0.489642       0.879965
      3 H                    -0.052218      -0.074269
      4 C                     0.025189      -0.122472
      5 H                     0.027368      -0.000277
      6 H                     0.017273       0.034222
      7 H                     0.017409       0.033942
  --------------------------------------------------------
  Sum of atomic charges =    -1.000000
  Sum of spin   charges =     1.000000

 -----------------------------------------------------------------
                    Cartesian Multipole Moments
 -----------------------------------------------------------------
    Charge (ESU x 10^10)
                -4.8032
    Dipole Moment (Debye)
         X       0.2569      Y      -0.0090      Z      -2.9892
       Tot       3.0002
    Quadrupole Moments (Debye-Ang)
        XX     -24.9006     XY      -0.0192     YY     -24.5504
        XZ       1.6643     YZ      -0.0119     ZZ     -30.3060
    Octapole Moments (Debye-Ang^2)
       XXX      32.9773    XXY      -0.0159    XYY       8.6708
       YYY      -0.0740    XXZ     -35.0589    XYZ      -0.0475
       YYZ     -31.0359    XZZ      16.2175    YZZ      -0.0149
       ZZZ    -102.4691
    Hexadecapole Moments (Debye-Ang^3)
      XXXX    -140.9618   XXXY      -0.1190   XXYY     -33.2912
      XYYY      -0.1191   YYYY     -53.4181   XXXZ      75.4768
      XXYZ      -0.0066   XYYZ      19.9912   YYYZ      -0.0911
      XXZZ    -101.2475   XYZZ      -0.1504   YYZZ     -71.1887
      XZZZ      83.9704   YZZZ       0.0106   ZZZZ    -396.6917
 -----------------------------------------------------------------
 Total job time:  241.86s(wall), 239.50s(cpu) 
 Mon Jul  8 12:31:35 2013

        *************************************************************
        *                                                           *
        *  Thank you very much for using Q-Chem.  Have a nice day.  *
        *                                                           *
        *************************************************************


0 sent ACK to 0 
now end server 0 ... 
 
**********************************************************************
Job 2 of 3 
**********************************************************************
 
Process 0 of 1 is on cl210.stfx.acenet.ca - thread support 1
initial socket setup ...start
initial socket setup ...done 
now start server 0 ... 

cmd = /usr/bin/ssh clhead /usr/local/qchem/bin/get_hostid 1501291728 > /scratch/tmp/6064901.1.medium.q/qchem27916/lic.dat
                  Welcome to Q-Chem
     A Quantum Leap Into The Future Of Chemistry

 Y. Shao, L. Fusti-Molnar, Y. Jung, J. Kussmann, C. Ochsenfeld,
 S. T. Brown, A. T. B. Gilbert, L. V. Slipchenko,S. V. Levchenko,
 D. P. O'Neill, R. A. DiStasio Jr., R. C. Lochan, T. Wang,
 G. J. O. Beran, N. A. Besley, J. M. Herbert, C. Y. Lin,
 T. Van Voorhis, S. H. Chien, A. Sodt, R. P. Steele, 
 V. A. Rassolov, P. E. Maslen, P. P. Korambath, R. D. Adamson,
 B. Austin, J. Baker, E. F. C. Byrd, H. Dachsel, R. J. Doerksen,
 A. Dreuw, B. D. Dunietz, A. D. Dutoi, T. R. Furlani,
 S. R. Gwaltney, A. Heyden, S. Hirata, C.-P. Hsu, G. Kedziora,
 R. Z. Khaliullin, P. Klunzinger, A. M. Lee, M. S. Lee, W. Liang,
 I. Lotan, N. Nair, B. Peters, E. I. Proynov, P. A. Pieniazek, 
 Y. M. Rhee, J. Ritchie, E. Rosta, C. D. Sherrill, 
 A. C. Simmonett, J. E. Subotnik, H. L. Woodcock III,
 W. Zhang, A. T. Bell, A. K. Chakraborty, D. M. Chipman,
 F. J. Keil, A. Warshel, W. J. Hehre, H. F. Schaefer III,
 J. Kong, A. I. Krylov, P. M. W. Gill, M. Head-Gordon,
 Q-Chem, Version 3.1, Q-Chem, Inc., Pittsburgh, PA (2007).

 Additional authors for Version 3.1: 
 Z. Gan, Y. Zhao, N. E. Schultz, D. Truhlar, E. Epifanovsky and M. Oana.

 Additional authors for Version 3.2: 
 R. Baer, B. R. Brooks, D. Casanova, J.-D. Chai, C.-L. Cheng, 
 C. Cramer, D. Crittenden, A. Ghysels, G. Hawkins, E. G. Hohenstein, 
 C. Kelley, W. Kurlancheek, D. Liotard, E. Livshits, P. Manohar, 
 A. Marenich, D. Neuhauser, R. Olson, M. A. Rohrdanz, K. S. Thanthiriwatte, 
 A. J. W. Thom, V. Vanovschi, C. F. Williams, Q. Wu and Z.-Q. You. 


 Intel X86 Linux Version

 Q-chem begins on Mon Jul  8 12:31:38 2013  

 Parallel job on  1  processors
Processing $rem in /usr/local/qchem/config/preferences.

theFileMan(): MAXOPENFILES=974 MAX_SUB_FILE_NUM=16
Maximum size of a physical file is 2.0 GB, maximum size of a tmp-file is 32.0 GB


--------------------------------------------------------------
User input:
--------------------------------------------------------------

$molecule
0,1
O         -0.00679        0.00000        0.01924
C         -0.00704        0.00000        1.21921
H          0.95367        0.00000        1.77265
C         -1.23948        0.00000        2.06376
H         -2.13110        0.00000        1.44172
H         -1.23454       -0.87707        2.71383
H         -1.23454        0.87707        2.71383
$end

$comment
neutral
$end

$xc_functional
C PBE   1.00
X wPBE  1.00
$end


$rem
SYMMETRY_DECOMPOSITION	0
LRC_DFT                 true
exchange 		general
BASIS                   g3large
omega			500
mem_static              760
max_scf_cycles          200
scf_final_print         1
sym_ignore              true
$end

--------------------------------------------------------------
 Writing REM_CC_EA            7
 ----------------------------------------------------
       Standard Nuclear Orientation (Angstroms)
    I     Atom         X            Y            Z
 ----------------------------------------------------
    1      O      -0.006790     0.000000     0.019240
    2      C      -0.007040     0.000000     1.219210
    3      H       0.953670     0.000000     1.772650
    4      C      -1.239480     0.000000     2.063760
    5      H      -2.131100     0.000000     1.441720
    6      H      -1.234540    -0.877070     2.713830
    7      H      -1.234540     0.877070     2.713830
 ----------------------------------------------------
 Nuclear Repulsion Energy =    70.0674222101 hartrees
 There are       12 alpha and       12 beta electrons
 Requested basis set is G3large
 There are 54 shells and 166 basis functions

Total QAlloc Memory Limit   2000 MB
Mega-Array Size       743 MB
MEM_STATIC part       760 MB

                       Distance Matrix (Angstroms)
             O (  1)   C (  2)   H (  3)   C (  4)   H (  5)   H (  6)
   C (  2)  1.199970
   H (  3)  1.999232  1.108720
   C (  4)  2.387381  1.494046  2.212386
   H (  5)  2.556588  2.135683  3.102470  1.087161
   H (  6)  3.088274  2.123652  2.538372  1.091727  1.786431
   H (  7)  3.088274  2.123652  2.538372  1.091727  1.786431  1.754140

 
 A cutoff of  1.0D-08 yielded   1418 shell pairs
 There are  13429 function pairs ( 16544 Cartesian)
Evaluating contribution to one-electron hamiltonian from nuclear
 Smallest overlap matrix eigenvalue = 1.31E-04
 Multipole matrices computed through 2nd order

  Scale SEOQF with 1.000000e-01/1.000000e-01/1.000000e-01

 Standard Electronic Orientation quadrupole field applied
 Nucleus-field energy     =    -0.0000000051 hartrees
 Guess from superposition of atomic densities
 Warning:  Energy on first SCF cycle will be non-variational
 Long-range K will be added via erf
 Coulomb attenuation parameter = 0.5 bohr**(-1)
 A restricted Kohn-Sham SCF calculation will be
 performed using Pulay DIIS extrapolation
 Exchange:  wPBE + LR-HF      Correlation:  PBE
 Using SG-1 standard quadrature grid
 SCF converges when DIIS error is below 1.0E-05
 Requested basis set is G3large
 There are 54 shells and 166 basis functions
 A cutoff of  1.0D-08 yielded   1418 shell pairs
 There are  13429 function pairs ( 16544 Cartesian)
 ---------------------------------------
  Cycle       Energy         DIIS Error
 ---------------------------------------
    1    -154.4325675592      3.56E-02
    2    -153.6761156044      5.81E-03
    3    -153.6662227433      7.16E-03
    4    -153.7830092581      4.95E-04
    5    -153.7848833093      2.34E-04
    6    -153.7853127391      8.17E-05
    7    -153.7854024390      3.07E-05
    8    -153.7854237721      1.34E-05
    9    -153.7854303662      5.56E-06 Convergence criterion met
 ---------------------------------------
 One-Electron    Energy =  -346.9204412214
 Total Coulomb   Energy =   143.8995393724
 Alpha Exchange  Energy =    -2.8696341347
 Beta  Exchange  Energy =    -2.8696341347
 DFT   Exchange  Energy =   -14.3131767037
 DFT Correlation Energy =    -0.7795057491
 Nuclear Repu.   Energy =    70.0674222050
 Nuclear Attr.   Energy =  -500.1179494188
 Kinetic         Energy =   153.1975081974
 SCF time:  CPU 58.64 s  wall 59.08 s
 Final Alpha MO Eigenvalues
            1           2           3           4           5           6
    1 -19.0117591 -10.2570712 -10.1683053  -1.2361642  -0.9466146  -0.7510528
            7           8           9          10          11          12
    1  -0.6417504  -0.6015845  -0.5925262  -0.5449628  -0.5108327  -0.3994287
           13          14          15          16          17
    1   0.0367376   0.0557594   0.0641170   0.0721810   0.0793800
 Analysis of SCF Wavefunction
 
 --------------------------------------------------------------
                    Orbital Energies (a.u.)
 --------------------------------------------------------------
 
 Alpha MOs
 -- Occupied --
-19.012 -10.257 -10.168  -1.236  -0.947  -0.751  -0.642  -0.602
 -0.593  -0.545  -0.511  -0.399
 -- Virtual --
  0.037   0.056   0.064   0.072   0.079   0.112   0.130   0.142
  0.145   0.157   0.169   0.179   0.196   0.251   0.257   0.270
  0.310   0.335   0.341   0.376   0.392   0.415   0.492   0.519
  0.547   0.583   0.606   0.619   0.656   0.673   0.685   0.691
  0.707   0.771   0.826   0.870   0.879   0.894   0.971   1.060
  1.072   1.119   1.124   1.171   1.214   1.225   1.251   1.285
  1.292   1.316   1.372   1.388   1.452   1.499   1.522   1.539
  1.550   1.618   1.650   1.724   1.812   1.884   2.029   2.111
  2.364   2.528   2.565   2.609   2.667   2.813   2.814   2.884
  2.894   3.020   3.036   3.109   3.153   3.194   3.203   3.249
  3.258   3.260   3.328   3.459   3.490   3.490   3.518   3.579
  3.713   3.725   3.742   3.803   3.935   3.961   3.984   4.091
  4.127   4.183   4.278   4.283   4.350   4.358   4.505   4.560
  4.631   4.644   4.712   4.794   5.130   5.132   5.222   5.225
  5.334   5.547   5.592   5.624   5.775   5.787   5.946   6.427
  6.765   6.970   7.015   7.096   7.348   7.538   7.746  24.270
 24.583  27.331  27.747  28.140  28.156  28.192  28.450  40.897
 40.988  41.068  41.102  41.113  41.185  41.232  41.252  41.318
 41.361  43.773  43.826  43.928  44.009  44.022  45.777  45.885
 46.599  50.115
 --------------------------------------------------------------
 
          Ground-State Mulliken Net Atomic Charges

     Atom                 Charge (a.u.)
  ----------------------------------------
      1 O                    -0.290567
      2 C                     0.111446
      3 H                     0.074452
      4 C                    -0.164595
      5 H                     0.103187
      6 H                     0.083029
      7 H                     0.083047
  ----------------------------------------
  Sum of atomic charges =     0.000000

 -----------------------------------------------------------------
                    Cartesian Multipole Moments
 -----------------------------------------------------------------
    Charge (ESU x 10^10)
                 0.0000
    Dipole Moment (Debye)
         X      -0.4930      Y       0.0000      Z       3.0035
       Tot       3.0437
    Quadrupole Moments (Debye-Ang)
        XX     -17.2357     XY      -0.0007     YY     -17.7617
        XZ      -0.8546     YZ      -0.0001     ZZ     -13.8846
    Octapole Moments (Debye-Ang^2)
       XXX      25.2589    XXY       0.0001    XYY       8.5668
       YYY       0.0000    XXZ     -20.7394    XYZ      -0.0008
       YYZ     -21.0303    XZZ       7.0331    YZZ       0.0004
       ZZZ     -60.1505
    Hexadecapole Moments (Debye-Ang^3)
      XXXX     -97.4896   XXXY      -0.0009   XXYY     -21.2572
      XYYY      -0.0007   YYYY     -23.1225   XXXZ      56.8714
      XXYZ       0.0004   XYYZ      17.0321   YYYZ       0.0003
      XXZZ     -61.2499   XYZZ      -0.0024   YYZZ     -44.9120
      XZZZ      51.3801   YZZZ       0.0021   ZZZZ    -262.8614
 -----------------------------------------------------------------
 Total job time:  59.25s(wall), 58.81s(cpu) 
 Mon Jul  8 12:32:37 2013

        *************************************************************
        *                                                           *
        *  Thank you very much for using Q-Chem.  Have a nice day.  *
        *                                                           *
        *************************************************************


0 sent ACK to 0 
now end server 0 ... 
 
**********************************************************************
Job 3 of 3 
**********************************************************************
 
Process 0 of 1 is on cl210.stfx.acenet.ca - thread support 1
initial socket setup ...start
initial socket setup ...done 
now start server 0 ... 

cmd = /usr/bin/ssh clhead /usr/local/qchem/bin/get_hostid 1985974020 > /scratch/tmp/6064901.1.medium.q/qchem27916/lic.dat
                  Welcome to Q-Chem
     A Quantum Leap Into The Future Of Chemistry

 Y. Shao, L. Fusti-Molnar, Y. Jung, J. Kussmann, C. Ochsenfeld,
 S. T. Brown, A. T. B. Gilbert, L. V. Slipchenko,S. V. Levchenko,
 D. P. O'Neill, R. A. DiStasio Jr., R. C. Lochan, T. Wang,
 G. J. O. Beran, N. A. Besley, J. M. Herbert, C. Y. Lin,
 T. Van Voorhis, S. H. Chien, A. Sodt, R. P. Steele, 
 V. A. Rassolov, P. E. Maslen, P. P. Korambath, R. D. Adamson,
 B. Austin, J. Baker, E. F. C. Byrd, H. Dachsel, R. J. Doerksen,
 A. Dreuw, B. D. Dunietz, A. D. Dutoi, T. R. Furlani,
 S. R. Gwaltney, A. Heyden, S. Hirata, C.-P. Hsu, G. Kedziora,
 R. Z. Khaliullin, P. Klunzinger, A. M. Lee, M. S. Lee, W. Liang,
 I. Lotan, N. Nair, B. Peters, E. I. Proynov, P. A. Pieniazek, 
 Y. M. Rhee, J. Ritchie, E. Rosta, C. D. Sherrill, 
 A. C. Simmonett, J. E. Subotnik, H. L. Woodcock III,
 W. Zhang, A. T. Bell, A. K. Chakraborty, D. M. Chipman,
 F. J. Keil, A. Warshel, W. J. Hehre, H. F. Schaefer III,
 J. Kong, A. I. Krylov, P. M. W. Gill, M. Head-Gordon,
 Q-Chem, Version 3.1, Q-Chem, Inc., Pittsburgh, PA (2007).

 Additional authors for Version 3.1: 
 Z. Gan, Y. Zhao, N. E. Schultz, D. Truhlar, E. Epifanovsky and M. Oana.

 Additional authors for Version 3.2: 
 R. Baer, B. R. Brooks, D. Casanova, J.-D. Chai, C.-L. Cheng, 
 C. Cramer, D. Crittenden, A. Ghysels, G. Hawkins, E. G. Hohenstein, 
 C. Kelley, W. Kurlancheek, D. Liotard, E. Livshits, P. Manohar, 
 A. Marenich, D. Neuhauser, R. Olson, M. A. Rohrdanz, K. S. Thanthiriwatte, 
 A. J. W. Thom, V. Vanovschi, C. F. Williams, Q. Wu and Z.-Q. You. 


 Intel X86 Linux Version

 Q-chem begins on Mon Jul  8 12:32:40 2013  

 Parallel job on  1  processors
Processing $rem in /usr/local/qchem/config/preferences.

theFileMan(): MAXOPENFILES=974 MAX_SUB_FILE_NUM=16
Maximum size of a physical file is 2.0 GB, maximum size of a tmp-file is 32.0 GB


--------------------------------------------------------------
User input:
--------------------------------------------------------------

$molecule
1,2
O         -0.00679        0.00000        0.01924
C         -0.00704        0.00000        1.21921
H          0.95367        0.00000        1.77265
C         -1.23948        0.00000        2.06376
H         -2.13110        0.00000        1.44172
H         -1.23454       -0.87707        2.71383
H         -1.23454        0.87707        2.71383
$end

$comment
positive
$end

$xc_functional
C PBE   1.00
X wPBE  1.00
$end

$rem
SYMMETRY_DECOMPOSITION	0
LRC_DFT                 true
exchange 		general
BASIS                   g3large
omega			500
mem_static              760
max_scf_cycles          200
scf_final_print         1
sym_ignore              true
$end

--------------------------------------------------------------
 Writing REM_CC_EA            7
 ----------------------------------------------------
       Standard Nuclear Orientation (Angstroms)
    I     Atom         X            Y            Z
 ----------------------------------------------------
    1      O      -0.006790     0.000000     0.019240
    2      C      -0.007040     0.000000     1.219210
    3      H       0.953670     0.000000     1.772650
    4      C      -1.239480     0.000000     2.063760
    5      H      -2.131100     0.000000     1.441720
    6      H      -1.234540    -0.877070     2.713830
    7      H      -1.234540     0.877070     2.713830
 ----------------------------------------------------
 Nuclear Repulsion Energy =    70.0674222101 hartrees
 There are       12 alpha and       11 beta electrons
 Requested basis set is G3large
 There are 54 shells and 166 basis functions

Total QAlloc Memory Limit   2000 MB
Mega-Array Size       743 MB
MEM_STATIC part       760 MB

                       Distance Matrix (Angstroms)
             O (  1)   C (  2)   H (  3)   C (  4)   H (  5)   H (  6)
   C (  2)  1.199970
   H (  3)  1.999232  1.108720
   C (  4)  2.387381  1.494046  2.212386
   H (  5)  2.556588  2.135683  3.102470  1.087161
   H (  6)  3.088274  2.123652  2.538372  1.091727  1.786431
   H (  7)  3.088274  2.123652  2.538372  1.091727  1.786431  1.754140

 
 A cutoff of  1.0D-08 yielded   1418 shell pairs
 There are  13429 function pairs ( 16544 Cartesian)
Evaluating contribution to one-electron hamiltonian from nuclear
 Smallest overlap matrix eigenvalue = 1.31E-04
 Multipole matrices computed through 2nd order

  Scale SEOQF with 1.000000e-01/1.000000e-01/1.000000e-01

 Standard Electronic Orientation quadrupole field applied
 Nucleus-field energy     =    -0.0000000051 hartrees
 Guess from superposition of atomic densities
 Warning:  Energy on first SCF cycle will be non-variational
 Long-range K will be added via erf
 Coulomb attenuation parameter = 0.5 bohr**(-1)
 An unrestricted Kohn-Sham SCF calculation will be
 performed using Pulay DIIS extrapolation
 Exchange:  wPBE + LR-HF      Correlation:  PBE
 Using SG-1 standard quadrature grid
 SCF converges when DIIS error is below 1.0E-05
 Requested basis set is G3large
 There are 54 shells and 166 basis functions
 A cutoff of  1.0D-08 yielded   1418 shell pairs
 There are  13429 function pairs ( 16544 Cartesian)
 Warning!  Inaccurate integrated density:
   Number of electrons =    23
   Numerical integral  =    23.999992059399
   Relative error      =     4.3477915626 %
 ---------------------------------------
  Cycle       Energy         DIIS Error
 ---------------------------------------
    1    -154.4325675592      3.56E-02
    2    -153.2965592384      4.42E-03
    3    -153.3423728752      4.55E-03
    4    -153.3957322143      8.72E-04
    5    -153.4009983820      4.29E-04
    6    -153.4034340732      1.61E-04
    7    -153.4046476244      9.04E-05
    8    -153.4049732323      3.67E-05
    9    -153.4050497464      1.47E-05
   10    -153.4050649739      7.86E-06 Convergence criterion met
 ---------------------------------------
 One-Electron    Energy =  -339.3711916936
 Total Coulomb   Energy =   136.3661865066
 Alpha Exchange  Energy =    -2.9013668105
 Beta  Exchange  Energy =    -2.6343320782
 DFT   Exchange  Energy =   -14.1909423478
 DFT Correlation Energy =    -0.7408407555
 Nuclear Repu.   Energy =    70.0674222050
 Nuclear Attr.   Energy =  -492.2209245320
 Kinetic         Energy =   152.8497328384
 <S^2> = 0.7597
 SCF time:  CPU 80.36 s  wall 80.88 s
 Final Alpha MO Eigenvalues
            1           2           3           4           5           6
    1 -19.4436502 -10.5836364 -10.4310890  -1.6294614  -1.2275849  -1.0689986
            7           8           9          10          11          12
    1  -0.9924000  -0.9302686  -0.9183967  -0.8038964  -0.8013599  -0.7778483
           13          14          15          16          17
    1  -0.2286066  -0.1131523  -0.0877988  -0.0739344  -0.0702628
 Final Beta MO Eigenvalues
            1           2           3           4           5           6
    1 -19.4223302 -10.5853175 -10.4285776  -1.5849602  -1.2094913  -1.0355987
            7           8           9          10          11          12
    1  -0.9461723  -0.9027859  -0.8719161  -0.7940444  -0.7934433  -0.3593376
           13          14          15          16
    1  -0.2253513  -0.1111342  -0.0860508  -0.0736283
 Analysis of SCF Wavefunction
 
 --------------------------------------------------------------
                    Orbital Energies (a.u.)
 --------------------------------------------------------------
 
 Alpha MOs
 -- Occupied --
-19.444 -10.584 -10.431  -1.629  -1.228  -1.069  -0.992  -0.930
 -0.918  -0.804  -0.801  -0.778
 -- Virtual --
 -0.229  -0.113  -0.088  -0.074  -0.070  -0.049  -0.032  -0.018
 -0.012  -0.010   0.011   0.027   0.037   0.054   0.072   0.075
  0.102   0.136   0.140   0.153   0.181   0.203   0.256   0.318
  0.330   0.345   0.368   0.376   0.411   0.451   0.457   0.464
  0.471   0.564   0.565   0.601   0.636   0.665   0.756   0.800
  0.813   0.847   0.875   0.912   0.936   0.943   1.007   1.029
  1.052   1.056   1.118   1.149   1.186   1.255   1.266   1.311
  1.327   1.343   1.393   1.486   1.495   1.548   1.715   1.798
  2.037   2.228   2.310   2.315   2.423   2.517   2.527   2.597
  2.618   2.722   2.773   2.835   2.857   2.915   2.915   2.964
  2.981   3.001   3.069   3.167   3.191   3.213   3.234   3.299
  3.405   3.445   3.482   3.499   3.647   3.681   3.726   3.821
  3.868   3.888   3.986   3.997   4.099   4.100   4.239   4.316
  4.361   4.381   4.447   4.466   4.748   4.750   4.821   4.859
  4.943   5.195   5.246   5.290   5.520   5.539   5.582   6.064
  6.372   6.527   6.574   6.727   6.969   7.107   7.354  23.998
 24.267  27.006  27.452  27.848  27.879  27.915  28.152  40.573
 40.725  40.775  40.787  40.802  40.858  40.938  40.969  41.056
 41.084  43.321  43.375  43.514  43.556  43.596  45.356  45.428
 46.177  49.687
 
 Beta MOs
 -- Occupied --
-19.422 -10.585 -10.429  -1.585  -1.209  -1.036  -0.946  -0.903
 -0.872  -0.794  -0.793
 -- Virtual --
 -0.359  -0.225  -0.111  -0.086  -0.074  -0.068  -0.047  -0.031
 -0.018  -0.012  -0.009   0.013   0.030   0.040   0.061   0.074
  0.078   0.105   0.139   0.145   0.158   0.198   0.206   0.263
  0.318   0.342   0.352   0.366   0.386   0.415   0.454   0.462
  0.465   0.475   0.566   0.566   0.603   0.641   0.667   0.757
  0.805   0.823   0.854   0.879   0.919   0.946   0.977   1.011
  1.038   1.054   1.064   1.133   1.154   1.199   1.262   1.268
  1.316   1.330   1.352   1.406   1.496   1.517   1.583   1.740
  1.804   2.065   2.237   2.314   2.328   2.424   2.514   2.540
  2.601   2.624   2.726   2.777   2.837   2.868   2.913   2.920
  2.969   2.985   3.004   3.071   3.176   3.187   3.219   3.233
  3.300   3.409   3.448   3.491   3.510   3.651   3.693   3.729
  3.829   3.873   3.905   3.995   4.009   4.101   4.104   4.246
  4.318   4.374   4.384   4.454   4.493   4.778   4.818   4.880
  4.898   5.004   5.209   5.283   5.303   5.531   5.542   5.619
  6.074   6.417   6.620   6.672   6.743   6.986   7.186   7.386
 24.000  24.267  27.003  27.455  27.847  27.881  27.917  28.154
 40.571  40.728  40.773  40.785  40.804  40.856  40.938  40.972
 41.058  41.088  43.378  43.430  43.521  43.608  43.617  45.372
 45.490  46.191  49.709
 --------------------------------------------------------------
 
          Ground-State Mulliken Net Atomic Charges

     Atom                 Charge (a.u.)    Spin (a.u.)
  --------------------------------------------------------
      1 O                     0.211197       0.841107
      2 C                     0.211589      -0.077961
      3 H                     0.236717       0.126334
      4 C                    -0.108193       0.122588
      5 H                     0.142037      -0.004740
      6 H                     0.153278      -0.003855
      7 H                     0.153375      -0.003474
  --------------------------------------------------------
  Sum of atomic charges =     1.000000
  Sum of spin   charges =     1.000000

 -----------------------------------------------------------------
                    Cartesian Multipole Moments
 -----------------------------------------------------------------
    Charge (ESU x 10^10)
                 4.8032
    Dipole Moment (Debye)
         X      -1.5397      Y       0.0002      Z       7.8566
       Tot       8.0060
    Quadrupole Moments (Debye-Ang)
        XX     -10.2850     XY       0.0005     YY     -15.0898
        XZ      -3.7581     YZ       0.0014     ZZ      -0.4596
    Octapole Moments (Debye-Ang^2)
       XXX      17.8911    XXY       0.0019    XYY       7.1566
       YYY       0.0005    XXZ      -9.3567    XYZ      -0.0062
       YYZ     -16.8270    XZZ      -2.0890    YZZ       0.0056
       ZZZ     -25.8955
    Hexadecapole Moments (Debye-Ang^3)
      XXXX     -69.1992   XXXY      -0.0050   XXYY     -16.7949
      XYYY      -0.0009   YYYY     -17.6583   XXXZ      40.8042
      XXYZ       0.0064   XYYZ      13.1100   YYYZ       0.0022
      XXZZ     -31.5184   XYZZ      -0.0147   YYZZ     -33.1134
      XZZZ      21.9989   YZZZ       0.0196   ZZZZ    -160.2604
 -----------------------------------------------------------------
 Total job time:  81.05s(wall), 80.53s(cpu) 
 Mon Jul  8 12:34:01 2013

        *************************************************************
        *                                                           *
        *  Thank you very much for using Q-Chem.  Have a nice day.  *
        *                                                           *
        *************************************************************


0 sent ACK to 0 
now end server 0 ... 
