Process 0 of 1 is on cl192.stfx.acenet.ca - thread support 1
initial socket setup ...start
initial socket setup ...done 
now start server 0 ... 

cmd = /usr/bin/ssh clhead /usr/local/qchem/bin/get_hostid 1589048773 > /scratch/tmp/4825293.1.medium.q/qchem17357/lic.dat
                  Welcome to Q-Chem
     A Quantum Leap Into The Future Of Chemistry

 Y. Shao, L. Fusti-Molnar, Y. Jung, J. Kussmann, C. Ochsenfeld,
 S. T. Brown, A. T. B. Gilbert, L. V. Slipchenko,S. V. Levchenko,
 D. P. O'Neill, R. A. DiStasio Jr., R. C. Lochan, T. Wang,
 G. J. O. Beran, N. A. Besley, J. M. Herbert, C. Y. Lin,
 T. Van Voorhis, S. H. Chien, A. Sodt, R. P. Steele, 
 V. A. Rassolov, P. E. Maslen, P. P. Korambath, R. D. Adamson,
 B. Austin, J. Baker, E. F. C. Byrd, H. Dachsel, R. J. Doerksen,
 A. Dreuw, B. D. Dunietz, A. D. Dutoi, T. R. Furlani,
 S. R. Gwaltney, A. Heyden, S. Hirata, C.-P. Hsu, G. Kedziora,
 R. Z. Khaliullin, P. Klunzinger, A. M. Lee, M. S. Lee, W. Liang,
 I. Lotan, N. Nair, B. Peters, E. I. Proynov, P. A. Pieniazek, 
 Y. M. Rhee, J. Ritchie, E. Rosta, C. D. Sherrill, 
 A. C. Simmonett, J. E. Subotnik, H. L. Woodcock III,
 W. Zhang, A. T. Bell, A. K. Chakraborty, D. M. Chipman,
 F. J. Keil, A. Warshel, W. J. Hehre, H. F. Schaefer III,
 J. Kong, A. I. Krylov, P. M. W. Gill, M. Head-Gordon,
 Q-Chem, Version 3.1, Q-Chem, Inc., Pittsburgh, PA (2007).

 Additional authors for Version 3.1: 
 Z. Gan, Y. Zhao, N. E. Schultz, D. Truhlar, E. Epifanovsky and M. Oana.

 Additional authors for Version 3.2: 
 R. Baer, B. R. Brooks, D. Casanova, J.-D. Chai, C.-L. Cheng, 
 C. Cramer, D. Crittenden, A. Ghysels, G. Hawkins, E. G. Hohenstein, 
 C. Kelley, W. Kurlancheek, D. Liotard, E. Livshits, P. Manohar, 
 A. Marenich, D. Neuhauser, R. Olson, M. A. Rohrdanz, K. S. Thanthiriwatte, 
 A. J. W. Thom, V. Vanovschi, C. F. Williams, Q. Wu and Z.-Q. You. 


 Intel X86 Linux Version

 Q-chem begins on Mon Nov 14 15:01:41 2011  

 Parallel job on  1  processors
Processing $rem in /usr/local/qchem/config/preferences.

theFileMan(): MAXOPENFILES=974 MAX_SUB_FILE_NUM=16
Maximum size of a physical file is 2.0 GB, maximum size of a tmp-file is 32.0 GB


--------------------------------------------------------------
User input:
--------------------------------------------------------------

$molecule
-1,1
Cl
O,1,R

R=1.61959205

$end

$comment
negative
$end

$xc_functional
   X HF 1.0
   X BNL 1.0
   C LYP 1.0
$end

$rem
SYMMETRY_DECOMPOSITION	0
exchange 		general
BASIS                   g3large
omega			1000
separate_jk		true
mem_static              760
max_scf_cycles          200
scf_final_print         1
sym_ignore              true
$end

--------------------------------------------------------------
 Writing REM_CC_EA            2
 ----------------------------------------------------
       Standard Nuclear Orientation (Angstroms)
    I     Atom         X            Y            Z
 ----------------------------------------------------
    1      Cl      0.000000     0.000000     0.000000
    2      O       0.000000     0.000000     1.619592
 ----------------------------------------------------
 Nuclear Repulsion Energy =    44.4359434024 hartrees
 There are       13 alpha and       13 beta electrons
 Requested basis set is G3large
 There are 29 shells and 108 basis functions

Total QAlloc Memory Limit   2000 MB
Mega-Array Size       743 MB
MEM_STATIC part       760 MB

                       Distance Matrix (Angstroms)
             Cl(  1)
   O (  2)  1.619592
 
 A cutoff of  1.0D-08 yielded    413 shell pairs
 There are   5908 function pairs (  8221 Cartesian)
Evaluating contribution to one-electron hamiltonian from nuclear
 Smallest overlap matrix eigenvalue = 3.44E-03
 Multipole matrices computed through 2nd order

  Scale SEOQF with 1.000000e-01/1.000000e-01/1.000000e-01

 Standard Electronic Orientation quadrupole field applied
 Nucleus-field energy     =    -0.0000000022 hartrees
 Guess from superposition of atomic densities
 Warning:  Energy on first SCF cycle will be non-variational
 A restricted hybrid HF-DFT SCF calculation will be
 performed using Pulay DIIS extrapolation
 Exchange:     1.0000 Hartree-Fock + 1.0000 BNL
 Correlation:  1.0000 LYP
 Using SG-1 standard quadrature grid
 SCF converges when DIIS error is below 1.0E-05
 Warning!  Inaccurate integrated density:
   Number of electrons =    26
   Numerical integral  =    25.000136978023
   Relative error      =    -3.8456270076 %
 ---------------------------------------
  Cycle       Energy         DIIS Error
 ---------------------------------------
    1    -533.2588449043      3.32E-02
    2    -533.2601340358      7.62E-03
    3    -533.2933990958      6.66E-03
    4    -533.3386161304      9.03E-04
    5    -533.3408753036      3.95E-04
    6    -533.3418763537      2.05E-04
    7    -533.3422575278      8.63E-05
    8    -533.3423359857      2.81E-05
    9    -533.3423424208      9.75E-06 Convergence criterion met
 ---------------------------------------
 One-Electron    Energy =  -834.6559768331
 Total Coulomb   Energy =   291.8071959189
 Alpha Exchange  Energy =    -5.5062019353
 Beta  Exchange  Energy =    -5.5062019353
 DFT   Exchange  Energy =   -22.8901614577
 DFT Correlation Energy =    -1.0269395785
 Nuclear Repu.   Energy =    44.4359434002
 Nuclear Attr.   Energy = -1366.8054353288
 Kinetic         Energy =   532.1494584957
 SCF time:  CPU 21.99 s  wall 57.31 s
 Final Alpha MO Eigenvalues
            1           2           3           4           5           6
    1-100.5974861 -18.7960520  -9.4475014  -7.2591155  -7.2473999  -7.2473986
            7           8           9          10          11          12
    1  -1.0151302  -0.7175657  -0.3205065  -0.3205049  -0.3165828  -0.1445140
           13          14          15          16          17          18
    1  -0.1445121   0.2424324   0.2605045   0.2760592   0.2760600   0.4124540
 Analysis of SCF Wavefunction
 
 --------------------------------------------------------------
                    Orbital Energies (a.u.)
 --------------------------------------------------------------
 
 Alpha MOs
 -- Occupied --
******* -18.796  -9.448  -7.259  -7.247  -7.247  -1.015  -0.718
 -0.321  -0.321  -0.317  -0.145  -0.145
 -- Virtual --
  0.242   0.261   0.276   0.276   0.412   0.444   0.475   0.475
  0.591   0.625   0.625   0.709   0.709   0.779   0.824   0.824
  0.860   1.410   1.483   1.484   1.484   1.491   1.491   1.532
  1.532   1.542   1.542   1.542   1.542   1.560   1.684   1.684
  1.992   2.047   2.153   2.153   2.466   2.466   2.722   2.722
  2.735   3.150   4.796   4.835   4.835   4.873   4.873   4.876
  4.876   5.349   5.372   5.372   5.493   5.493   5.517   5.519
  5.672   5.672   5.700   5.701   5.791   6.038   6.038   6.709
  7.412   7.412   7.679   7.679   8.187  10.268  21.070  21.070
 21.327  27.651  27.749  27.783  27.783  27.936  37.415  37.415
 37.417  37.418  37.422  37.422  37.442  44.278  44.356  44.435
 44.435  44.473  46.315  46.315  46.531  50.648 216.736
 --------------------------------------------------------------
 
          Ground-State Mulliken Net Atomic Charges

     Atom                 Charge (a.u.)
  ----------------------------------------
      1 Cl                   -0.244901
      2 O                    -0.755099
  ----------------------------------------
  Sum of atomic charges =    -1.000000

 -----------------------------------------------------------------
                    Cartesian Multipole Moments
 -----------------------------------------------------------------
    Charge (ESU x 10^10)
                -4.8032
    Dipole Moment (Debye)
         X       0.0001      Y       0.0001      Z      -5.0011
       Tot       5.0011
    Quadrupole Moments (Debye-Ang)
        XX     -21.2599     XY       0.0000     YY     -21.2600
        XZ       0.0004     YZ       0.0002     ZZ     -29.9488
    Octapole Moments (Debye-Ang^2)
       XXX      -0.0005    XXY       0.0001    XYY      -0.0002
       YYY       0.0002    XXZ     -10.5405    XYZ       0.0001
       YYZ     -10.5406    XZZ       0.0028    YZZ       0.0010
       ZZZ     -48.9273
    Hexadecapole Moments (Debye-Ang^3)
      XXXX     -26.1024   XXXY       0.0000   XXYY      -8.7006
      XYYY       0.0000   YYYY     -26.1026   XXXZ       0.0015
      XXYZ       0.0001   XYYZ       0.0005   YYYZ       0.0004
      XXZZ     -27.6116   XYZZ       0.0001   YYZZ     -27.6118
      XZZZ       0.0049   YZZZ       0.0018   ZZZZ    -153.5816
 -----------------------------------------------------------------
 Total job time:  57.91s(wall), 22.11s(cpu) 
 Mon Nov 14 15:02:38 2011

        *************************************************************
        *                                                           *
        *  Thank you very much for using Q-Chem.  Have a nice day.  *
        *                                                           *
        *************************************************************


0 sent ACK to 0 
now end server 0 ... 
 
**********************************************************************
Job 2 of 3 
**********************************************************************
 
Process 0 of 1 is on cl192.stfx.acenet.ca - thread support 1
initial socket setup ...start
initial socket setup ...done 
now start server 0 ... 

cmd = /usr/bin/ssh clhead /usr/local/qchem/bin/get_hostid 989639594 > /scratch/tmp/4825293.1.medium.q/qchem17357/lic.dat
                  Welcome to Q-Chem
     A Quantum Leap Into The Future Of Chemistry

 Y. Shao, L. Fusti-Molnar, Y. Jung, J. Kussmann, C. Ochsenfeld,
 S. T. Brown, A. T. B. Gilbert, L. V. Slipchenko,S. V. Levchenko,
 D. P. O'Neill, R. A. DiStasio Jr., R. C. Lochan, T. Wang,
 G. J. O. Beran, N. A. Besley, J. M. Herbert, C. Y. Lin,
 T. Van Voorhis, S. H. Chien, A. Sodt, R. P. Steele, 
 V. A. Rassolov, P. E. Maslen, P. P. Korambath, R. D. Adamson,
 B. Austin, J. Baker, E. F. C. Byrd, H. Dachsel, R. J. Doerksen,
 A. Dreuw, B. D. Dunietz, A. D. Dutoi, T. R. Furlani,
 S. R. Gwaltney, A. Heyden, S. Hirata, C.-P. Hsu, G. Kedziora,
 R. Z. Khaliullin, P. Klunzinger, A. M. Lee, M. S. Lee, W. Liang,
 I. Lotan, N. Nair, B. Peters, E. I. Proynov, P. A. Pieniazek, 
 Y. M. Rhee, J. Ritchie, E. Rosta, C. D. Sherrill, 
 A. C. Simmonett, J. E. Subotnik, H. L. Woodcock III,
 W. Zhang, A. T. Bell, A. K. Chakraborty, D. M. Chipman,
 F. J. Keil, A. Warshel, W. J. Hehre, H. F. Schaefer III,
 J. Kong, A. I. Krylov, P. M. W. Gill, M. Head-Gordon,
 Q-Chem, Version 3.1, Q-Chem, Inc., Pittsburgh, PA (2007).

 Additional authors for Version 3.1: 
 Z. Gan, Y. Zhao, N. E. Schultz, D. Truhlar, E. Epifanovsky and M. Oana.

 Additional authors for Version 3.2: 
 R. Baer, B. R. Brooks, D. Casanova, J.-D. Chai, C.-L. Cheng, 
 C. Cramer, D. Crittenden, A. Ghysels, G. Hawkins, E. G. Hohenstein, 
 C. Kelley, W. Kurlancheek, D. Liotard, E. Livshits, P. Manohar, 
 A. Marenich, D. Neuhauser, R. Olson, M. A. Rohrdanz, K. S. Thanthiriwatte, 
 A. J. W. Thom, V. Vanovschi, C. F. Williams, Q. Wu and Z.-Q. You. 


 Intel X86 Linux Version

 Q-chem begins on Mon Nov 14 15:02:42 2011  

 Parallel job on  1  processors
Processing $rem in /usr/local/qchem/config/preferences.

theFileMan(): MAXOPENFILES=974 MAX_SUB_FILE_NUM=16
Maximum size of a physical file is 2.0 GB, maximum size of a tmp-file is 32.0 GB


--------------------------------------------------------------
User input:
--------------------------------------------------------------

$molecule
0,2
Cl
O,1,R

R=1.61959205

$end

$comment
neutral
$end

$xc_functional
   X HF 1.0
   X BNL 1.0
   C LYP 1.0
$end

$rem
SYMMETRY_DECOMPOSITION	0
exchange 		general
BASIS                   g3large
omega			1000
separate_jk		true
mem_static              760
max_scf_cycles          200
scf_final_print         1
sym_ignore              true
$end

--------------------------------------------------------------
 Writing REM_CC_EA            2
 ----------------------------------------------------
       Standard Nuclear Orientation (Angstroms)
    I     Atom         X            Y            Z
 ----------------------------------------------------
    1      Cl      0.000000     0.000000     0.000000
    2      O       0.000000     0.000000     1.619592
 ----------------------------------------------------
 Nuclear Repulsion Energy =    44.4359434024 hartrees
 There are       13 alpha and       12 beta electrons
 Requested basis set is G3large
 There are 29 shells and 108 basis functions

Total QAlloc Memory Limit   2000 MB
Mega-Array Size       743 MB
MEM_STATIC part       760 MB

                       Distance Matrix (Angstroms)
             Cl(  1)
   O (  2)  1.619592
 
 A cutoff of  1.0D-08 yielded    413 shell pairs
 There are   5908 function pairs (  8221 Cartesian)
Evaluating contribution to one-electron hamiltonian from nuclear
 Smallest overlap matrix eigenvalue = 3.44E-03
 Multipole matrices computed through 2nd order

  Scale SEOQF with 1.000000e-01/1.000000e-01/1.000000e-01

 Standard Electronic Orientation quadrupole field applied
 Nucleus-field energy     =    -0.0000000022 hartrees
 Guess from superposition of atomic densities
 Warning:  Energy on first SCF cycle will be non-variational
 An unrestricted hybrid HF-DFT SCF calculation will be
 performed using Pulay DIIS extrapolation
 Exchange:     1.0000 Hartree-Fock + 1.0000 BNL
 Correlation:  1.0000 LYP
 Using SG-1 standard quadrature grid
 SCF converges when DIIS error is below 1.0E-05
 ---------------------------------------
  Cycle       Energy         DIIS Error
 ---------------------------------------
    1    -533.2588449043      3.32E-02
    2    -533.1846589204      5.16E-03
    3    -533.2177050318      4.40E-03
    4    -533.2403713286      9.96E-04
    5    -533.2462401132      7.44E-04
    6    -533.2520385218      4.32E-04
    7    -533.2557612258      2.40E-04
    8    -533.2570890369      8.92E-05
    9    -533.2573233280      3.52E-05
   10    -533.2573498889      1.32E-05
   11    -533.2573531877      6.75E-06 Convergence criterion met
 ---------------------------------------
 One-Electron    Energy =  -826.2935243314
 Total Coulomb   Energy =   283.2103231088
 Alpha Exchange  Energy =    -5.6057341749
 Beta  Exchange  Energy =    -5.1653717335
 DFT   Exchange  Energy =   -22.8487613385
 DFT Correlation Energy =    -0.9902281183
 Nuclear Repu.   Energy =    44.4359434002
 Nuclear Attr.   Energy = -1358.2328450470
 Kinetic         Energy =   531.9393207156
 <S^2> = 0.7623
 SCF time:  CPU 30.47 s  wall 69.72 s
 Final Alpha MO Eigenvalues
            1           2           3           4           5           6
    1-100.9109874 -19.2312455  -9.7602700  -7.5741214  -7.5616442  -7.5569392
            7           8           9          10          11          12
    1  -1.4051742  -1.0586977  -0.7235508  -0.6787979  -0.6676887  -0.5184198
           13          14          15          16          17          18
    1  -0.4871208   0.0397059   0.0741003   0.1092451   0.1118113   0.1522489
 Final Beta MO Eigenvalues
            1           2           3           4           5           6
    1-100.9100805 -19.2042156  -9.7593200  -7.5744121  -7.5585240  -7.5561632
            7           8           9          10          11          12
    1  -1.3389675  -1.0128725  -0.6504641  -0.6480506  -0.5556465  -0.4716443
           13          14          15          16          17
    1  -0.0271836   0.0483879   0.0743729   0.1102780   0.1121192
 Analysis of SCF Wavefunction
 
 --------------------------------------------------------------
                    Orbital Energies (a.u.)
 --------------------------------------------------------------
 
 Alpha MOs
 -- Occupied --
******* -19.231  -9.760  -7.574  -7.562  -7.557  -1.405  -1.059
 -0.724  -0.679  -0.668  -0.518  -0.487
 -- Virtual --
  0.040   0.074   0.109   0.112   0.152   0.225   0.247   0.256
  0.357   0.363   0.363   0.436   0.446   0.544   0.574   0.582
  0.585   1.105   1.147   1.178   1.183   1.188   1.188   1.228
  1.241   1.241   1.243   1.271   1.271   1.275   1.371   1.387
  1.665   1.737   1.782   1.784   2.132   2.155   2.397   2.398
  2.416   2.837   4.469   4.512   4.524   4.565   4.565   4.573
  4.573   4.998   4.999   5.034   5.065   5.108   5.199   5.200
  5.248   5.249   5.305   5.310   5.411   5.659   5.689   6.348
  6.956   6.957   7.232   7.286   7.797   9.956  20.757  20.762
 21.014  27.340  27.438  27.467  27.471  27.621  37.103  37.103
 37.104  37.105  37.109  37.112  37.128  43.819  43.894  43.977
 44.013  44.042  45.857  45.892  46.109  50.215 216.423
 
 Beta MOs
 -- Occupied --
******* -19.204  -9.759  -7.574  -7.559  -7.556  -1.339  -1.013
 -0.650  -0.648  -0.556  -0.472
 -- Virtual --
 -0.027   0.048   0.074   0.110   0.112   0.160   0.226   0.259
  0.277   0.358   0.368   0.370   0.444   0.457   0.545   0.583
  0.585   0.593   1.115   1.188   1.190   1.199   1.199   1.204
  1.246   1.248   1.248   1.250   1.274   1.274   1.277   1.388
  1.392   1.688   1.746   1.828   1.830   2.161   2.164   2.411
  2.418   2.420   2.845   4.476   4.520   4.524   4.568   4.568
  4.581   4.581   5.013   5.041   5.044   5.126   5.132   5.208
  5.210   5.297   5.298   5.341   5.342   5.434   5.690   5.699
  6.369   7.040   7.041   7.314   7.314   7.832   9.958  20.761
 20.763  21.013  27.342  27.440  27.469  27.471  27.622  37.103
 37.104  37.105  37.106  37.110  37.112  37.128  43.880  43.959
 44.039  44.040  44.078  45.903  45.910  46.128  50.245 216.424
 --------------------------------------------------------------
 
          Ground-State Mulliken Net Atomic Charges

     Atom                 Charge (a.u.)    Spin (a.u.)
  --------------------------------------------------------
      1 Cl                    0.131804       0.083548
      2 O                    -0.131804       0.916452
  --------------------------------------------------------
  Sum of atomic charges =     0.000000
  Sum of spin   charges =     1.000000

 -----------------------------------------------------------------
                    Cartesian Multipole Moments
 -----------------------------------------------------------------
    Charge (ESU x 10^10)
                 0.0000
    Dipole Moment (Debye)
         X       0.0008      Y      -0.0007      Z      -1.0980
       Tot       1.0980
    Quadrupole Moments (Debye-Ang)
        XX     -17.4819     XY      -0.5663     YY     -17.6740
        XZ       0.0032     YZ      -0.0027     ZZ     -18.3617
    Octapole Moments (Debye-Ang^2)
       XXX       0.0006    XXY      -0.0002    XYY       0.0002
       YYY      -0.0005    XXZ      -8.1550    XYZ      -0.6001
       YYZ      -8.3585    XZZ       0.0054    YZZ      -0.0047
       ZZZ     -29.9672
    Hexadecapole Moments (Debye-Ang^3)
      XXXX     -17.3113   XXXY      -0.3734   XXYY      -5.8128
      XYYY      -0.3735   YYYY     -17.5644   XXXZ       0.0026
      XXYZ      -0.0007   XYYZ       0.0009   YYYZ      -0.0022
      XXZZ     -19.0902   XYZZ      -1.3850   YYZZ     -19.5600
      XZZZ       0.0140   YZZZ      -0.0120   ZZZZ    -103.3878
 -----------------------------------------------------------------
 Total job time:  70.72s(wall), 30.59s(cpu) 
 Mon Nov 14 15:03:53 2011

        *************************************************************
        *                                                           *
        *  Thank you very much for using Q-Chem.  Have a nice day.  *
        *                                                           *
        *************************************************************


0 sent ACK to 0 
now end server 0 ... 
 
**********************************************************************
Job 3 of 3 
**********************************************************************
 
Process 0 of 1 is on cl192.stfx.acenet.ca - thread support 1
initial socket setup ...start
initial socket setup ...done 
now start server 0 ... 

cmd = /usr/bin/ssh clhead /usr/local/qchem/bin/get_hostid 723283025 > /scratch/tmp/4825293.1.medium.q/qchem17357/lic.dat
                  Welcome to Q-Chem
     A Quantum Leap Into The Future Of Chemistry

 Y. Shao, L. Fusti-Molnar, Y. Jung, J. Kussmann, C. Ochsenfeld,
 S. T. Brown, A. T. B. Gilbert, L. V. Slipchenko,S. V. Levchenko,
 D. P. O'Neill, R. A. DiStasio Jr., R. C. Lochan, T. Wang,
 G. J. O. Beran, N. A. Besley, J. M. Herbert, C. Y. Lin,
 T. Van Voorhis, S. H. Chien, A. Sodt, R. P. Steele, 
 V. A. Rassolov, P. E. Maslen, P. P. Korambath, R. D. Adamson,
 B. Austin, J. Baker, E. F. C. Byrd, H. Dachsel, R. J. Doerksen,
 A. Dreuw, B. D. Dunietz, A. D. Dutoi, T. R. Furlani,
 S. R. Gwaltney, A. Heyden, S. Hirata, C.-P. Hsu, G. Kedziora,
 R. Z. Khaliullin, P. Klunzinger, A. M. Lee, M. S. Lee, W. Liang,
 I. Lotan, N. Nair, B. Peters, E. I. Proynov, P. A. Pieniazek, 
 Y. M. Rhee, J. Ritchie, E. Rosta, C. D. Sherrill, 
 A. C. Simmonett, J. E. Subotnik, H. L. Woodcock III,
 W. Zhang, A. T. Bell, A. K. Chakraborty, D. M. Chipman,
 F. J. Keil, A. Warshel, W. J. Hehre, H. F. Schaefer III,
 J. Kong, A. I. Krylov, P. M. W. Gill, M. Head-Gordon,
 Q-Chem, Version 3.1, Q-Chem, Inc., Pittsburgh, PA (2007).

 Additional authors for Version 3.1: 
 Z. Gan, Y. Zhao, N. E. Schultz, D. Truhlar, E. Epifanovsky and M. Oana.

 Additional authors for Version 3.2: 
 R. Baer, B. R. Brooks, D. Casanova, J.-D. Chai, C.-L. Cheng, 
 C. Cramer, D. Crittenden, A. Ghysels, G. Hawkins, E. G. Hohenstein, 
 C. Kelley, W. Kurlancheek, D. Liotard, E. Livshits, P. Manohar, 
 A. Marenich, D. Neuhauser, R. Olson, M. A. Rohrdanz, K. S. Thanthiriwatte, 
 A. J. W. Thom, V. Vanovschi, C. F. Williams, Q. Wu and Z.-Q. You. 


 Intel X86 Linux Version

 Q-chem begins on Mon Nov 14 15:03:57 2011  

 Parallel job on  1  processors
Processing $rem in /usr/local/qchem/config/preferences.

theFileMan(): MAXOPENFILES=974 MAX_SUB_FILE_NUM=16
Maximum size of a physical file is 2.0 GB, maximum size of a tmp-file is 32.0 GB


--------------------------------------------------------------
User input:
--------------------------------------------------------------

$molecule
1,3
Cl
O,1,R

R=1.61959205

$end

$comment
positive
$end

$xc_functional
   X HF 1.0
   X BNL 1.0
   C LYP 1.0
$end

$rem
SYMMETRY_DECOMPOSITION	0
exchange 		general
BASIS                   g3large
omega			1000
separate_jk		true
mem_static              760
max_scf_cycles          200
scf_final_print         1
sym_ignore              true
$end

--------------------------------------------------------------
 Writing REM_CC_EA            2
 ----------------------------------------------------
       Standard Nuclear Orientation (Angstroms)
    I     Atom         X            Y            Z
 ----------------------------------------------------
    1      Cl      0.000000     0.000000     0.000000
    2      O       0.000000     0.000000     1.619592
 ----------------------------------------------------
 Nuclear Repulsion Energy =    44.4359434024 hartrees
 There are       13 alpha and       11 beta electrons
 Requested basis set is G3large
 There are 29 shells and 108 basis functions

Total QAlloc Memory Limit   2000 MB
Mega-Array Size       743 MB
MEM_STATIC part       760 MB

                       Distance Matrix (Angstroms)
             Cl(  1)
   O (  2)  1.619592
 
 A cutoff of  1.0D-08 yielded    413 shell pairs
 There are   5908 function pairs (  8221 Cartesian)
Evaluating contribution to one-electron hamiltonian from nuclear
 Smallest overlap matrix eigenvalue = 3.44E-03
 Multipole matrices computed through 2nd order

  Scale SEOQF with 1.000000e-01/1.000000e-01/1.000000e-01

 Standard Electronic Orientation quadrupole field applied
 Nucleus-field energy     =    -0.0000000022 hartrees
 Guess from superposition of atomic densities
 Warning:  Energy on first SCF cycle will be non-variational
 An unrestricted hybrid HF-DFT SCF calculation will be
 performed using Pulay DIIS extrapolation
 Exchange:     1.0000 Hartree-Fock + 1.0000 BNL
 Correlation:  1.0000 LYP
 Using SG-1 standard quadrature grid
 SCF converges when DIIS error is below 1.0E-05
 Warning!  Inaccurate integrated density:
   Number of electrons =    24
   Numerical integral  =    25.000136978023
   Relative error      =     4.1672374084 %
 ---------------------------------------
  Cycle       Energy         DIIS Error
 ---------------------------------------
    1    -533.2588449043      3.32E-02
    2    -532.6940617647      7.31E-03
    3    -532.7912967002      3.11E-03
    4    -532.8037578780      9.17E-04
    5    -532.8084214847      5.85E-04
    6    -532.8113255839      5.55E-04
    7    -532.8144831655      3.16E-04
    8    -532.8161779462      1.21E-04
    9    -532.8166362715      6.03E-05
   10    -532.8167577946      3.48E-05
   11    -532.8168080163      2.90E-05
   12    -532.8168660243      2.40E-05
   13    -532.8169353218      1.76E-05
   14    -532.8169784182      1.29E-05
   15    -532.8169959726      1.01E-05
   16    -532.8170075046      5.03E-06 Convergence criterion met
 ---------------------------------------
 One-Electron    Energy =  -816.7505635817
 Total Coulomb   Energy =   273.6695440823
 Alpha Exchange  Energy =    -5.6849335384
 Beta  Exchange  Energy =    -4.7655531368
 DFT   Exchange  Energy =   -22.7703101884
 DFT Correlation Energy =    -0.9511345418
 Nuclear Repu.   Energy =    44.4359434002
 Nuclear Attr.   Energy = -1348.0414949034
 Kinetic         Energy =   531.2909313218
 <S^2> = 2.0384
 SCF time:  CPU 44.12 s  wall 104.60 s
 Final Alpha MO Eigenvalues
            1           2           3           4           5           6
    1-101.3059924 -19.6987507 -10.1478649  -7.9613369  -7.9491515  -7.9491073
            7           8           9          10          11          12
    1  -1.8187398  -1.4406585  -1.1148607  -1.1147632  -1.0711858  -0.8810614
           13          14          15          16          17          18
    1  -0.8809751  -0.2842649  -0.1222231  -0.0690619  -0.0690517  -0.0548905
 Final Beta MO Eigenvalues
            1           2           3           4           5           6
    1-101.3014630 -19.6472478 -10.1431972  -7.9600893  -7.9408837  -7.9408629
            7           8           9          10          11          12
    1  -1.6977856  -1.3363775  -1.0111839  -0.8868624  -0.8868080  -0.3950487
           13          14          15          16
    1  -0.3948211  -0.2548878  -0.1211712  -0.0666993
 Analysis of SCF Wavefunction
 
 --------------------------------------------------------------
                    Orbital Energies (a.u.)
 --------------------------------------------------------------
 
 Alpha MOs
 -- Occupied --
******* -19.699 -10.148  -7.961  -7.949  -7.949  -1.819  -1.441
 -1.115  -1.115  -1.071  -0.881  -0.881
 -- Virtual --
 -0.284  -0.122  -0.069  -0.069  -0.055   0.016   0.028   0.028
  0.063   0.064   0.129   0.146   0.146   0.287   0.301   0.318
  0.318   0.799   0.829   0.829   0.846   0.858   0.858   0.901
  0.901   0.912   0.912   0.963   0.963   0.971   1.042   1.042
  1.320   1.415   1.415   1.416   1.796   1.796   2.030   2.060
  2.060   2.497   4.098   4.149   4.149   4.195   4.195   4.199
  4.199   4.605   4.605   4.609   4.686   4.686   4.815   4.816
  4.825   4.825   4.913   4.914   5.006   5.283   5.283   5.951
  6.495   6.495   6.826   6.826   7.386   9.577  20.372  20.372
 20.629  26.950  27.049  27.082  27.082  27.234  36.716  36.716
 36.717  36.718  36.723  36.723  36.741  43.335  43.413  43.527
 43.527  43.576  45.404  45.404  45.655  49.751 216.030
 
 Beta MOs
 -- Occupied --
******* -19.647 -10.143  -7.960  -7.941  -7.941  -1.698  -1.336
 -1.011  -0.887  -0.887
 -- Virtual --
 -0.395  -0.395  -0.255  -0.121  -0.067  -0.067  -0.051   0.019
  0.055   0.056   0.086   0.086   0.132   0.164   0.164   0.295
  0.311   0.331   0.331   0.814   0.864   0.881   0.882   0.884
  0.884   0.922   0.923   0.937   0.937   0.974   0.974   0.977
  1.066   1.066   1.362   1.431   1.495   1.495   1.834   1.834
  2.058   2.087   2.087   2.512   4.115   4.163   4.163   4.211
  4.211   4.228   4.228   4.638   4.670   4.670   4.746   4.746
  4.840   4.842   4.915   4.915   4.967   4.967   5.056   5.321
  5.321   5.991   6.651   6.652   6.927   6.927   7.452   9.586
 20.382  20.382  20.630  26.960  27.058  27.087  27.087  27.238
 36.719  36.719  36.720  36.721  36.727  36.727  36.743  43.451
 43.529  43.611  43.611  43.650  45.466  45.466  45.690  49.808
216.035
 --------------------------------------------------------------
 
          Ground-State Mulliken Net Atomic Charges

     Atom                 Charge (a.u.)    Spin (a.u.)
  --------------------------------------------------------
      1 Cl                    0.630479       0.432915
      2 O                     0.369521       1.567085
  --------------------------------------------------------
  Sum of atomic charges =     1.000000
  Sum of spin   charges =     2.000000

 -----------------------------------------------------------------
                    Cartesian Multipole Moments
 -----------------------------------------------------------------
    Charge (ESU x 10^10)
                 4.8032
    Dipole Moment (Debye)
         X      -0.0001      Y       0.0001      Z       1.9296
       Tot       1.9296
    Quadrupole Moments (Debye-Ang)
        XX     -14.7590     XY      -0.0004     YY     -14.7589
        XZ      -0.0008     YZ       0.0008     ZZ      -9.5063
    Octapole Moments (Debye-Ang^2)
       XXX       0.0000    XXY       0.0000    XYY       0.0000
       YYY       0.0001    XXZ      -7.1411    XYZ       0.0016
       YYZ      -7.1414    XZZ      -0.0013    YZZ       0.0009
       ZZZ     -15.5252
    Hexadecapole Moments (Debye-Ang^3)
      XXXX     -12.5720   XXXY      -0.0004   XXYY      -4.1905
      XYYY      -0.0004   YYYY     -12.5718   XXXZ      -0.0005
      XXYZ       0.0002   XYYZ      -0.0002   YYYZ       0.0005
      XXZZ     -15.0351   XYZZ       0.0020   YYZZ     -15.0355
      XZZZ      -0.0032   YZZZ       0.0027   ZZZZ     -68.5496
 -----------------------------------------------------------------
 Total job time:  106.14s(wall), 44.24s(cpu) 
 Mon Nov 14 15:05:43 2011

        *************************************************************
        *                                                           *
        *  Thank you very much for using Q-Chem.  Have a nice day.  *
        *                                                           *
        *************************************************************


0 sent ACK to 0 
now end server 0 ... 
