Process 0 of 1 is on cl167.stfx.acenet.ca - thread support 1
initial socket setup ...start
initial socket setup ...done 
now start server 0 ... 

cmd = /usr/bin/ssh clhead /usr/local/qchem/bin/get_hostid 1706312239 > /globalscratch/itamblyn/bnl/g297_b3lyp_neut_g03Large_worked/g2g71017/omega170/qchem16760/lic.dat
                  Welcome to Q-Chem
     A Quantum Leap Into The Future Of Chemistry

 Y. Shao, L. Fusti-Molnar, Y. Jung, J. Kussmann, C. Ochsenfeld,
 S. T. Brown, A. T. B. Gilbert, L. V. Slipchenko,S. V. Levchenko,
 D. P. O'Neill, R. A. DiStasio Jr., R. C. Lochan, T. Wang,
 G. J. O. Beran, N. A. Besley, J. M. Herbert, C. Y. Lin,
 T. Van Voorhis, S. H. Chien, A. Sodt, R. P. Steele, 
 V. A. Rassolov, P. E. Maslen, P. P. Korambath, R. D. Adamson,
 B. Austin, J. Baker, E. F. C. Byrd, H. Dachsel, R. J. Doerksen,
 A. Dreuw, B. D. Dunietz, A. D. Dutoi, T. R. Furlani,
 S. R. Gwaltney, A. Heyden, S. Hirata, C.-P. Hsu, G. Kedziora,
 R. Z. Khaliullin, P. Klunzinger, A. M. Lee, M. S. Lee, W. Liang,
 I. Lotan, N. Nair, B. Peters, E. I. Proynov, P. A. Pieniazek, 
 Y. M. Rhee, J. Ritchie, E. Rosta, C. D. Sherrill, 
 A. C. Simmonett, J. E. Subotnik, H. L. Woodcock III,
 W. Zhang, A. T. Bell, A. K. Chakraborty, D. M. Chipman,
 F. J. Keil, A. Warshel, W. J. Hehre, H. F. Schaefer III,
 J. Kong, A. I. Krylov, P. M. W. Gill, M. Head-Gordon,
 Q-Chem, Version 3.1, Q-Chem, Inc., Pittsburgh, PA (2007).

 Additional authors for Version 3.1: 
 Z. Gan, Y. Zhao, N. E. Schultz, D. Truhlar, E. Epifanovsky and M. Oana.

 Additional authors for Version 3.2: 
 R. Baer, B. R. Brooks, D. Casanova, J.-D. Chai, C.-L. Cheng, 
 C. Cramer, D. Crittenden, A. Ghysels, G. Hawkins, E. G. Hohenstein, 
 C. Kelley, W. Kurlancheek, D. Liotard, E. Livshits, P. Manohar, 
 A. Marenich, D. Neuhauser, R. Olson, M. A. Rohrdanz, K. S. Thanthiriwatte, 
 A. J. W. Thom, V. Vanovschi, C. F. Williams, Q. Wu and Z.-Q. You. 


 Intel X86 Linux Version

 Q-chem begins on Fri Apr 15 15:24:02 2011  

 Parallel job on  1  processors
Processing $rem in /usr/local/qchem/config/preferences.

theFileMan(): MAXOPENFILES=974 MAX_SUB_FILE_NUM=16
Maximum size of a physical file is 2.0 GB, maximum size of a tmp-file is 32.0 GB


--------------------------------------------------------------
User input:
--------------------------------------------------------------

$molecule
-1,1
P
X,1,1.
H,1,R,2,A
H,1,R,2,A,3,180.,0

 R=1.43044019
 A=45.80225056

$end

$comment
negative
$end

$xc_functional
   X HF 1.0
   X BNL 1.0
   C LYP 1.0
$end

$rem
SYMMETRY_DECOMPOSITION	0
exchange 		general
BASIS                   g3large
omega			170
separate_jk		true
mem_static              760
max_scf_cycles          200
scf_final_print         1
sym_ignore              true
$end

--------------------------------------------------------------
 Writing REM_CC_EA            3
 ----------------------------------------------------
       Standard Nuclear Orientation (Angstroms)
    I     Atom         X            Y            Z
 ----------------------------------------------------
    1      P       0.000000     0.000000     0.000000
    2      H       1.025537     0.000000     0.997213
    3      H      -1.025537     0.000000     0.997213
 ----------------------------------------------------
 Nuclear Repulsion Energy =    11.3562035794 hartrees
 There are        9 alpha and        9 beta electrons
 Requested basis set is G3large
 There are 31 shells and 86 basis functions

Total QAlloc Memory Limit   2000 MB
Mega-Array Size       743 MB
MEM_STATIC part       760 MB

                       Distance Matrix (Angstroms)
             P (  1)   H (  2)
   H (  2)  1.430440
   H (  3)  1.430440  2.051074
 
 A cutoff of  1.0D-08 yielded    496 shell pairs
 There are   3877 function pairs (  5178 Cartesian)
Evaluating contribution to one-electron hamiltonian from nuclear
 Smallest overlap matrix eigenvalue = 2.76E-03
 Multipole matrices computed through 2nd order

  Scale SEOQF with 1.000000e-01/1.000000e-01/1.000000e-01

 Standard Electronic Orientation quadrupole field applied
 Nucleus-field energy     =    -0.0000000001 hartrees
 Guess from superposition of atomic densities
 Warning:  Energy on first SCF cycle will be non-variational
 A restricted hybrid HF-DFT SCF calculation will be
 performed using Pulay DIIS extrapolation
 Exchange:     1.0000 Hartree-Fock + 1.0000 BNL
 Correlation:  1.0000 LYP
 Using SG-1 standard quadrature grid
 SCF converges when DIIS error is below 1.0E-05
 Warning!  Inaccurate integrated density:
   Number of electrons =    18
   Numerical integral  =    16.999992922830
   Relative error      =    -5.5555948732 %
 ---------------------------------------
  Cycle       Energy         DIIS Error
 ---------------------------------------
    1    -340.5668601471      3.06E-02
    2    -340.6957271372      5.48E-03
    3    -340.7212111419      5.91E-03
    4    -340.7564340614      6.21E-04
    5    -340.7568895594      1.73E-04
    6    -340.7569603067      4.71E-05
    7    -340.7569668595      1.41E-05
    8    -340.7569677083      3.17E-06 Convergence criterion met
 ---------------------------------------
 One-Electron    Energy =  -499.8054574838
 Total Coulomb   Energy =   169.9281789567
 Alpha Exchange  Energy =    -0.8311649575
 Beta  Exchange  Energy =    -0.8311649575
 DFT   Exchange  Energy =   -19.9023636073
 DFT Correlation Energy =    -0.6711992381
 Nuclear Repu.   Energy =    11.3562035793
 Nuclear Attr.   Energy =  -840.0505394997
 Kinetic         Energy =   340.2450820160
 SCF time:  CPU 11.55 s  wall 15.97 s
 Final Alpha MO Eigenvalues
            1           2           3           4           5           6
    1 -75.7805821  -6.0812505  -4.3303263  -4.3278297  -4.3246347  -0.3992771
            7           8           9          10          11          12
    1  -0.1807984  -0.1054380  -0.0172644   0.1727069   0.2068983   0.2188129
           13          14
    1   0.2202160   0.2334061
 Analysis of SCF Wavefunction
 
 --------------------------------------------------------------
                    Orbital Energies (a.u.)
 --------------------------------------------------------------
 
 Alpha MOs
 -- Occupied --
-75.781  -6.081  -4.330  -4.328  -4.325  -0.399  -0.181  -0.105
 -0.017
 -- Virtual --
  0.173   0.207   0.219   0.220   0.233   0.273   0.325   0.349
  0.430   0.451   0.457   0.507   0.509   0.564   0.582   0.596
  0.724   0.767   0.902   0.922   0.937   0.951   0.957   0.973
  1.058   1.069   1.093   1.113   1.119   1.211   1.212   1.315
  1.370   1.404   1.517   1.652   1.692   1.705   1.774   1.847
  2.967   3.076   3.115   3.124   3.132   3.138   3.156   3.174
  3.190   4.174   4.180   4.181   4.193   4.308   4.309   4.309
  4.312   4.386   4.660   5.217   7.096  13.102  13.169  13.173
 21.499  21.615  21.654  21.655  21.944  28.421  28.424  28.424
 28.434  28.437  28.454  28.456 163.973
 --------------------------------------------------------------
 
          Ground-State Mulliken Net Atomic Charges

     Atom                 Charge (a.u.)
  ----------------------------------------
      1 P                    -0.921931
      2 H                    -0.039036
      3 H                    -0.039033
  ----------------------------------------
  Sum of atomic charges =    -1.000000

 -----------------------------------------------------------------
                    Cartesian Multipole Moments
 -----------------------------------------------------------------
    Charge (ESU x 10^10)
                -4.8032
    Dipole Moment (Debye)
         X       0.0000      Y       0.0000      Z       0.0199
       Tot       0.0199
    Quadrupole Moments (Debye-Ang)
        XX     -21.0194     XY       0.0000     YY     -28.8257
        XZ       0.0000     YZ       0.0000     ZZ     -22.9368
    Octapole Moments (Debye-Ang^2)
       XXX       0.0000    XXY       0.0000    XYY       0.0000
       YYY       0.0001    XXZ      -3.0253    XYZ       0.0000
       YYZ      -2.0340    XZZ       0.0000    YZZ       0.0000
       ZZZ      -7.0220
    Hexadecapole Moments (Debye-Ang^3)
      XXXX     -62.8712   XXXY       0.0000   XXYY     -29.0836
      XYYY       0.0000   YYYY    -110.9832   XXXZ       0.0000
      XXYZ       0.0000   XYYZ       0.0000   YYYZ       0.0000
      XXZZ     -23.0393   XYZZ       0.0000   YYZZ     -30.7251
      XZZZ       0.0000   YZZZ       0.0000   ZZZZ     -73.7459
 -----------------------------------------------------------------
 Total job time:  17.22s(wall), 11.65s(cpu) 
 Fri Apr 15 15:24:19 2011

        *************************************************************
        *                                                           *
        *  Thank you very much for using Q-Chem.  Have a nice day.  *
        *                                                           *
        *************************************************************


0 sent ACK to 0 
now end server 0 ... 
 
**********************************************************************
Job 2 of 3 
**********************************************************************
 
Process 0 of 1 is on cl167.stfx.acenet.ca - thread support 1
initial socket setup ...start
initial socket setup ...done 
now start server 0 ... 

cmd = /usr/bin/ssh clhead /usr/local/qchem/bin/get_hostid 1761360657 > /globalscratch/itamblyn/bnl/g297_b3lyp_neut_g03Large_worked/g2g71017/omega170/qchem16760/lic.dat
                  Welcome to Q-Chem
     A Quantum Leap Into The Future Of Chemistry

 Y. Shao, L. Fusti-Molnar, Y. Jung, J. Kussmann, C. Ochsenfeld,
 S. T. Brown, A. T. B. Gilbert, L. V. Slipchenko,S. V. Levchenko,
 D. P. O'Neill, R. A. DiStasio Jr., R. C. Lochan, T. Wang,
 G. J. O. Beran, N. A. Besley, J. M. Herbert, C. Y. Lin,
 T. Van Voorhis, S. H. Chien, A. Sodt, R. P. Steele, 
 V. A. Rassolov, P. E. Maslen, P. P. Korambath, R. D. Adamson,
 B. Austin, J. Baker, E. F. C. Byrd, H. Dachsel, R. J. Doerksen,
 A. Dreuw, B. D. Dunietz, A. D. Dutoi, T. R. Furlani,
 S. R. Gwaltney, A. Heyden, S. Hirata, C.-P. Hsu, G. Kedziora,
 R. Z. Khaliullin, P. Klunzinger, A. M. Lee, M. S. Lee, W. Liang,
 I. Lotan, N. Nair, B. Peters, E. I. Proynov, P. A. Pieniazek, 
 Y. M. Rhee, J. Ritchie, E. Rosta, C. D. Sherrill, 
 A. C. Simmonett, J. E. Subotnik, H. L. Woodcock III,
 W. Zhang, A. T. Bell, A. K. Chakraborty, D. M. Chipman,
 F. J. Keil, A. Warshel, W. J. Hehre, H. F. Schaefer III,
 J. Kong, A. I. Krylov, P. M. W. Gill, M. Head-Gordon,
 Q-Chem, Version 3.1, Q-Chem, Inc., Pittsburgh, PA (2007).

 Additional authors for Version 3.1: 
 Z. Gan, Y. Zhao, N. E. Schultz, D. Truhlar, E. Epifanovsky and M. Oana.

 Additional authors for Version 3.2: 
 R. Baer, B. R. Brooks, D. Casanova, J.-D. Chai, C.-L. Cheng, 
 C. Cramer, D. Crittenden, A. Ghysels, G. Hawkins, E. G. Hohenstein, 
 C. Kelley, W. Kurlancheek, D. Liotard, E. Livshits, P. Manohar, 
 A. Marenich, D. Neuhauser, R. Olson, M. A. Rohrdanz, K. S. Thanthiriwatte, 
 A. J. W. Thom, V. Vanovschi, C. F. Williams, Q. Wu and Z.-Q. You. 


 Intel X86 Linux Version

 Q-chem begins on Fri Apr 15 15:24:22 2011  

 Parallel job on  1  processors
Processing $rem in /usr/local/qchem/config/preferences.

theFileMan(): MAXOPENFILES=974 MAX_SUB_FILE_NUM=16
Maximum size of a physical file is 2.0 GB, maximum size of a tmp-file is 32.0 GB


--------------------------------------------------------------
User input:
--------------------------------------------------------------

$molecule
0,2
P
X,1,1.
H,1,R,2,A
H,1,R,2,A,3,180.,0

 R=1.43044019
 A=45.80225056

$end

$comment
neutral
$end

$xc_functional
   X HF 1.0
   X BNL 1.0
   C LYP 1.0
$end

$rem
SYMMETRY_DECOMPOSITION	0
exchange 		general
BASIS                   g3large
omega			170
separate_jk		true
mem_static              760
max_scf_cycles          200
scf_final_print         1
sym_ignore              true
$end

--------------------------------------------------------------
 Writing REM_CC_EA            3
 ----------------------------------------------------
       Standard Nuclear Orientation (Angstroms)
    I     Atom         X            Y            Z
 ----------------------------------------------------
    1      P       0.000000     0.000000     0.000000
    2      H       1.025537     0.000000     0.997213
    3      H      -1.025537     0.000000     0.997213
 ----------------------------------------------------
 Nuclear Repulsion Energy =    11.3562035794 hartrees
 There are        9 alpha and        8 beta electrons
 Requested basis set is G3large
 There are 31 shells and 86 basis functions

Total QAlloc Memory Limit   2000 MB
Mega-Array Size       743 MB
MEM_STATIC part       760 MB

                       Distance Matrix (Angstroms)
             P (  1)   H (  2)
   H (  2)  1.430440
   H (  3)  1.430440  2.051074
 
 A cutoff of  1.0D-08 yielded    496 shell pairs
 There are   3877 function pairs (  5178 Cartesian)
Evaluating contribution to one-electron hamiltonian from nuclear
 Smallest overlap matrix eigenvalue = 2.76E-03
 Multipole matrices computed through 2nd order

  Scale SEOQF with 1.000000e-01/1.000000e-01/1.000000e-01

 Standard Electronic Orientation quadrupole field applied
 Nucleus-field energy     =    -0.0000000001 hartrees
 Guess from superposition of atomic densities
 Warning:  Energy on first SCF cycle will be non-variational
 An unrestricted hybrid HF-DFT SCF calculation will be
 performed using Pulay DIIS extrapolation
 Exchange:     1.0000 Hartree-Fock + 1.0000 BNL
 Correlation:  1.0000 LYP
 Using SG-1 standard quadrature grid
 SCF converges when DIIS error is below 1.0E-05
 ---------------------------------------
  Cycle       Energy         DIIS Error
 ---------------------------------------
    1    -340.5668601471      3.06E-02
    2    -340.7068388473      1.52E-03
    3    -340.7091114719      6.04E-04
    4    -340.7093837975      1.19E-04
    5    -340.7094120934      4.80E-05
    6    -340.7094170326      6.96E-06 Convergence criterion met
 ---------------------------------------
 One-Electron    Energy =  -495.2754287921
 Total Coulomb   Energy =   165.2631424691
 Alpha Exchange  Energy =    -0.8377208257
 Beta  Exchange  Energy =    -0.7482673876
 DFT   Exchange  Energy =   -19.8245918416
 DFT Correlation Energy =    -0.6427542339
 Nuclear Repu.   Energy =    11.3562035793
 Nuclear Attr.   Energy =  -835.4727801386
 Kinetic         Energy =   340.1973513465
 <S^2> = 0.7524
 SCF time:  CPU 9.61 s  wall 14.55 s
 Final Alpha MO Eigenvalues
            1           2           3           4           5           6
    1 -76.0586104  -6.3584620  -4.6100840  -4.6047055  -4.6017749  -0.6659745
            7           8           9          10          11          12
    1  -0.4264876  -0.3557360  -0.2952179   0.0268720   0.0537430   0.0702893
           13          14
    1   0.0783279   0.0829190
 Final Beta MO Eigenvalues
            1           2           3           4           5           6
    1 -76.0543174  -6.3538719  -4.6014755  -4.5991831  -4.5986333  -0.6430963
            7           8           9          10          11          12
    1  -0.4188945  -0.3421325  -0.0854069   0.0281784   0.0571316   0.0693874
           13
    1   0.0782218
 Analysis of SCF Wavefunction
 
 --------------------------------------------------------------
                    Orbital Energies (a.u.)
 --------------------------------------------------------------
 
 Alpha MOs
 -- Occupied --
-76.059  -6.358  -4.610  -4.605  -4.602  -0.666  -0.426  -0.356
 -0.295
 -- Virtual --
  0.027   0.054   0.070   0.078   0.083   0.106   0.137   0.150
  0.205   0.209   0.215   0.292   0.319   0.364   0.364   0.401
  0.504   0.549   0.674   0.683   0.697   0.701   0.716   0.732
  0.824   0.833   0.842   0.847   0.854   0.975   0.979   1.092
  1.132   1.168   1.291   1.417   1.422   1.464   1.534   1.610
  2.723   2.823   2.837   2.844   2.850   2.859   2.875   2.919
  2.929   3.919   3.923   3.945   3.949   4.044   4.049   4.051
  4.064   4.131   4.392   4.959   6.823  12.816  12.896  12.900
 21.226  21.332  21.373  21.374  21.672  28.143  28.145  28.148
 28.157  28.160  28.179  28.181 163.696
 
 Beta MOs
 -- Occupied --
-76.054  -6.354  -4.601  -4.599  -4.599  -0.643  -0.419  -0.342
 -- Virtual --
 -0.085   0.028   0.057   0.069   0.078   0.083   0.112   0.139
  0.158   0.211   0.232   0.238   0.310   0.321   0.369   0.381
  0.405   0.509   0.555   0.686   0.697   0.711   0.724   0.732
  0.748   0.833   0.838   0.865   0.873   0.879   0.989   0.991
  1.097   1.146   1.180   1.295   1.424   1.452   1.472   1.542
  1.615   2.729   2.833   2.863   2.873   2.883   2.886   2.904
  2.931   2.945   3.926   3.931   3.944   3.950   4.053   4.055
  4.058   4.065   4.138   4.406   4.965   6.832  12.833  12.900
 12.904  21.229  21.343  21.382  21.383  21.675  28.148  28.148
 28.151  28.161  28.164  28.182  28.184 163.700
 --------------------------------------------------------------
 
          Ground-State Mulliken Net Atomic Charges

     Atom                 Charge (a.u.)    Spin (a.u.)
  --------------------------------------------------------
      1 P                    -0.106187       1.030677
      2 H                     0.053094      -0.015339
      3 H                     0.053093      -0.015338
  --------------------------------------------------------
  Sum of atomic charges =     0.000000
  Sum of spin   charges =     1.000000

 -----------------------------------------------------------------
                    Cartesian Multipole Moments
 -----------------------------------------------------------------
    Charge (ESU x 10^10)
                 0.0000
    Dipole Moment (Debye)
         X       0.0000      Y       0.0000      Z       0.6311
       Tot       0.6311
    Quadrupole Moments (Debye-Ang)
        XX     -14.3560     XY       0.0000     YY     -15.7542
        XZ       0.0000     YZ       0.0000     ZZ     -15.7106
    Octapole Moments (Debye-Ang^2)
       XXX       0.0000    XXY       0.0000    XYY       0.0000
       YYY       0.0000    XXZ      -1.2512    XYZ       0.0000
       YYZ      -1.6653    XZZ       0.0000    YZZ       0.0000
       ZZZ      -4.9334
    Hexadecapole Moments (Debye-Ang^3)
      XXXX     -33.3587   XXXY       0.0000   XXYY     -10.2804
      XYYY       0.0000   YYYY     -26.5421   XXXZ       0.0000
      XXYZ       0.0000   XYYZ       0.0000   YYYZ       0.0000
      XXZZ     -10.9213   XYZZ       0.0000   YYZZ     -10.9745
      XZZZ       0.0000   YZZZ       0.0000   ZZZZ     -38.2578
 -----------------------------------------------------------------
 Total job time:  16.51s(wall), 9.71s(cpu) 
 Fri Apr 15 15:24:39 2011

        *************************************************************
        *                                                           *
        *  Thank you very much for using Q-Chem.  Have a nice day.  *
        *                                                           *
        *************************************************************


0 sent ACK to 0 
now end server 0 ... 
 
**********************************************************************
Job 3 of 3 
**********************************************************************
 
Process 0 of 1 is on cl167.stfx.acenet.ca - thread support 1
initial socket setup ...start
initial socket setup ...done 
now start server 0 ... 

cmd = /usr/bin/ssh clhead /usr/local/qchem/bin/get_hostid 1056147430 > /globalscratch/itamblyn/bnl/g297_b3lyp_neut_g03Large_worked/g2g71017/omega170/qchem16760/lic.dat
                  Welcome to Q-Chem
     A Quantum Leap Into The Future Of Chemistry

 Y. Shao, L. Fusti-Molnar, Y. Jung, J. Kussmann, C. Ochsenfeld,
 S. T. Brown, A. T. B. Gilbert, L. V. Slipchenko,S. V. Levchenko,
 D. P. O'Neill, R. A. DiStasio Jr., R. C. Lochan, T. Wang,
 G. J. O. Beran, N. A. Besley, J. M. Herbert, C. Y. Lin,
 T. Van Voorhis, S. H. Chien, A. Sodt, R. P. Steele, 
 V. A. Rassolov, P. E. Maslen, P. P. Korambath, R. D. Adamson,
 B. Austin, J. Baker, E. F. C. Byrd, H. Dachsel, R. J. Doerksen,
 A. Dreuw, B. D. Dunietz, A. D. Dutoi, T. R. Furlani,
 S. R. Gwaltney, A. Heyden, S. Hirata, C.-P. Hsu, G. Kedziora,
 R. Z. Khaliullin, P. Klunzinger, A. M. Lee, M. S. Lee, W. Liang,
 I. Lotan, N. Nair, B. Peters, E. I. Proynov, P. A. Pieniazek, 
 Y. M. Rhee, J. Ritchie, E. Rosta, C. D. Sherrill, 
 A. C. Simmonett, J. E. Subotnik, H. L. Woodcock III,
 W. Zhang, A. T. Bell, A. K. Chakraborty, D. M. Chipman,
 F. J. Keil, A. Warshel, W. J. Hehre, H. F. Schaefer III,
 J. Kong, A. I. Krylov, P. M. W. Gill, M. Head-Gordon,
 Q-Chem, Version 3.1, Q-Chem, Inc., Pittsburgh, PA (2007).

 Additional authors for Version 3.1: 
 Z. Gan, Y. Zhao, N. E. Schultz, D. Truhlar, E. Epifanovsky and M. Oana.

 Additional authors for Version 3.2: 
 R. Baer, B. R. Brooks, D. Casanova, J.-D. Chai, C.-L. Cheng, 
 C. Cramer, D. Crittenden, A. Ghysels, G. Hawkins, E. G. Hohenstein, 
 C. Kelley, W. Kurlancheek, D. Liotard, E. Livshits, P. Manohar, 
 A. Marenich, D. Neuhauser, R. Olson, M. A. Rohrdanz, K. S. Thanthiriwatte, 
 A. J. W. Thom, V. Vanovschi, C. F. Williams, Q. Wu and Z.-Q. You. 


 Intel X86 Linux Version

 Q-chem begins on Fri Apr 15 15:24:42 2011  

 Parallel job on  1  processors
Processing $rem in /usr/local/qchem/config/preferences.

theFileMan(): MAXOPENFILES=974 MAX_SUB_FILE_NUM=16
Maximum size of a physical file is 2.0 GB, maximum size of a tmp-file is 32.0 GB


--------------------------------------------------------------
User input:
--------------------------------------------------------------

$molecule
1,1
P
X,1,1.
H,1,R,2,A
H,1,R,2,A,3,180.,0

 R=1.43044019
 A=45.80225056

$end

$comment
positive
$end

$xc_functional
   X HF 1.0
   X BNL 1.0
   C LYP 1.0
$end

$rem
SYMMETRY_DECOMPOSITION	0
exchange 		general
BASIS                   g3large
omega			170
separate_jk		true
mem_static              760
max_scf_cycles          200
scf_final_print         1
sym_ignore              true
$end

--------------------------------------------------------------
 Writing REM_CC_EA            3
 ----------------------------------------------------
       Standard Nuclear Orientation (Angstroms)
    I     Atom         X            Y            Z
 ----------------------------------------------------
    1      P       0.000000     0.000000     0.000000
    2      H       1.025537     0.000000     0.997213
    3      H      -1.025537     0.000000     0.997213
 ----------------------------------------------------
 Nuclear Repulsion Energy =    11.3562035794 hartrees
 There are        8 alpha and        8 beta electrons
 Requested basis set is G3large
 There are 31 shells and 86 basis functions

Total QAlloc Memory Limit   2000 MB
Mega-Array Size       743 MB
MEM_STATIC part       760 MB

                       Distance Matrix (Angstroms)
             P (  1)   H (  2)
   H (  2)  1.430440
   H (  3)  1.430440  2.051074
 
 A cutoff of  1.0D-08 yielded    496 shell pairs
 There are   3877 function pairs (  5178 Cartesian)
Evaluating contribution to one-electron hamiltonian from nuclear
 Smallest overlap matrix eigenvalue = 2.76E-03
 Multipole matrices computed through 2nd order

  Scale SEOQF with 1.000000e-01/1.000000e-01/1.000000e-01

 Standard Electronic Orientation quadrupole field applied
 Nucleus-field energy     =    -0.0000000001 hartrees
 Guess from superposition of atomic densities
 Warning:  Energy on first SCF cycle will be non-variational
 A restricted hybrid HF-DFT SCF calculation will be
 performed using Pulay DIIS extrapolation
 Exchange:     1.0000 Hartree-Fock + 1.0000 BNL
 Correlation:  1.0000 LYP
 Using SG-1 standard quadrature grid
 SCF converges when DIIS error is below 1.0E-05
 Warning!  Inaccurate integrated density:
   Number of electrons =    16
   Numerical integral  =    16.999992922830
   Relative error      =     6.2499557677 %
 ---------------------------------------
  Cycle       Energy         DIIS Error
 ---------------------------------------
    1    -340.5668601471      3.06E-02
    2    -340.3228022168      4.76E-03
    3    -340.3460590122      2.99E-03
    4    -340.3506228113      3.00E-04
    5    -340.3506844051      6.38E-05
    6    -340.3506884011      1.22E-05
    7    -340.3506885178      2.26E-06 Convergence criterion met
 ---------------------------------------
 One-Electron    Energy =  -489.4187880731
 Total Coulomb   Energy =   159.4891754362
 Alpha Exchange  Energy =    -0.7498803646
 Beta  Exchange  Energy =    -0.7498803646
 DFT   Exchange  Energy =   -19.6560127381
 DFT Correlation Energy =    -0.6215059929
 Nuclear Repu.   Energy =    11.3562035793
 Nuclear Attr.   Energy =  -829.3000481956
 Kinetic         Energy =   339.8812601225
 SCF time:  CPU 9.91 s  wall 17.35 s
 Final Alpha MO Eigenvalues
            1           2           3           4           5           6
    1 -76.4316669  -6.7244365  -4.9828652  -4.9675601  -4.9644065  -0.9747936
            7           8           9          10          11          12
    1  -0.7212077  -0.6514202  -0.4241398  -0.1972516  -0.1720495  -0.1126399
           13
    1  -0.0881853
 Analysis of SCF Wavefunction
 
 --------------------------------------------------------------
                    Orbital Energies (a.u.)
 --------------------------------------------------------------
 
 Alpha MOs
 -- Occupied --
-76.432  -6.724  -4.983  -4.968  -4.964  -0.975  -0.721  -0.651
 -- Virtual --
 -0.424  -0.197  -0.172  -0.113  -0.088  -0.080  -0.079  -0.056
 -0.054  -0.047  -0.020  -0.018   0.076   0.111   0.144   0.151
  0.191   0.259   0.308   0.420   0.422   0.433   0.437   0.454
  0.468   0.537   0.547   0.554   0.563   0.573   0.715   0.724
  0.840   0.870   0.909   1.032   1.126   1.142   1.181   1.256
  1.331   2.430   2.513   2.518   2.518   2.527   2.537   2.550
  2.627   2.628   3.594   3.595   3.637   3.658   3.733   3.735
  3.740   3.762   3.816   4.074   4.641   6.475  12.452  12.538
 12.542  20.866  20.963  21.006  21.007  21.312  27.771  27.778
 27.780  27.791  27.794  27.816  27.818 163.325
 --------------------------------------------------------------
 
          Ground-State Mulliken Net Atomic Charges

     Atom                 Charge (a.u.)
  ----------------------------------------
      1 P                     0.685785
      2 H                     0.157109
      3 H                     0.157105
  ----------------------------------------
  Sum of atomic charges =     1.000000

 -----------------------------------------------------------------
                    Cartesian Multipole Moments
 -----------------------------------------------------------------
    Charge (ESU x 10^10)
                 4.8032
    Dipole Moment (Debye)
         X       0.0000      Y       0.0000      Z       1.4967
       Tot       1.4967
    Quadrupole Moments (Debye-Ang)
        XX     -10.0619     XY       0.0000     YY      -9.4892
        XZ       0.0000     YZ       0.0000     ZZ     -11.1201
    Octapole Moments (Debye-Ang^2)
       XXX      -0.0001    XXY       0.0000    XYY       0.0000
       YYY       0.0000    XXZ       0.6297    XYZ       0.0000
       YYZ      -1.1702    XZZ       0.0000    YZZ       0.0000
       ZZZ      -2.6025
    Hexadecapole Moments (Debye-Ang^3)
      XXXX     -20.7722   XXXY       0.0000   XXYY      -5.5853
      XYYY       0.0000   YYYY      -9.1420   XXXZ      -0.0001
      XXYZ       0.0000   XYYZ       0.0000   YYYZ       0.0000
      XXZZ      -5.2383   XYZZ       0.0000   YYZZ      -5.9203
      XZZZ      -0.0001   YZZZ       0.0000   ZZZZ     -23.5733
 -----------------------------------------------------------------
 Total job time:  20.56s(wall), 10.01s(cpu) 
 Fri Apr 15 15:25:02 2011

        *************************************************************
        *                                                           *
        *  Thank you very much for using Q-Chem.  Have a nice day.  *
        *                                                           *
        *************************************************************


0 sent ACK to 0 
now end server 0 ... 
