Process 0 of 1 is on cl038.stfx.acenet.ca - thread support 1
initial socket setup ...start
initial socket setup ...done 
now start server 0 ... 

cmd = /usr/bin/ssh clhead /usr/local/qchem/bin/get_hostid 1691100025 > /scratch/tmp/6063999.1.short.q/qchem25675/lic.dat
                  Welcome to Q-Chem
     A Quantum Leap Into The Future Of Chemistry

 Y. Shao, L. Fusti-Molnar, Y. Jung, J. Kussmann, C. Ochsenfeld,
 S. T. Brown, A. T. B. Gilbert, L. V. Slipchenko,S. V. Levchenko,
 D. P. O'Neill, R. A. DiStasio Jr., R. C. Lochan, T. Wang,
 G. J. O. Beran, N. A. Besley, J. M. Herbert, C. Y. Lin,
 T. Van Voorhis, S. H. Chien, A. Sodt, R. P. Steele, 
 V. A. Rassolov, P. E. Maslen, P. P. Korambath, R. D. Adamson,
 B. Austin, J. Baker, E. F. C. Byrd, H. Dachsel, R. J. Doerksen,
 A. Dreuw, B. D. Dunietz, A. D. Dutoi, T. R. Furlani,
 S. R. Gwaltney, A. Heyden, S. Hirata, C.-P. Hsu, G. Kedziora,
 R. Z. Khaliullin, P. Klunzinger, A. M. Lee, M. S. Lee, W. Liang,
 I. Lotan, N. Nair, B. Peters, E. I. Proynov, P. A. Pieniazek, 
 Y. M. Rhee, J. Ritchie, E. Rosta, C. D. Sherrill, 
 A. C. Simmonett, J. E. Subotnik, H. L. Woodcock III,
 W. Zhang, A. T. Bell, A. K. Chakraborty, D. M. Chipman,
 F. J. Keil, A. Warshel, W. J. Hehre, H. F. Schaefer III,
 J. Kong, A. I. Krylov, P. M. W. Gill, M. Head-Gordon,
 Q-Chem, Version 3.1, Q-Chem, Inc., Pittsburgh, PA (2007).

 Additional authors for Version 3.1: 
 Z. Gan, Y. Zhao, N. E. Schultz, D. Truhlar, E. Epifanovsky and M. Oana.

 Additional authors for Version 3.2: 
 R. Baer, B. R. Brooks, D. Casanova, J.-D. Chai, C.-L. Cheng, 
 C. Cramer, D. Crittenden, A. Ghysels, G. Hawkins, E. G. Hohenstein, 
 C. Kelley, W. Kurlancheek, D. Liotard, E. Livshits, P. Manohar, 
 A. Marenich, D. Neuhauser, R. Olson, M. A. Rohrdanz, K. S. Thanthiriwatte, 
 A. J. W. Thom, V. Vanovschi, C. F. Williams, Q. Wu and Z.-Q. You. 


 Intel X86 Linux Version

 Q-chem begins on Sun Jul  7 09:39:34 2013  

 Parallel job on  1  processors
Processing $rem in /usr/local/qchem/config/preferences.

theFileMan(): MAXOPENFILES=974 MAX_SUB_FILE_NUM=16
Maximum size of a physical file is 2.0 GB, maximum size of a tmp-file is 32.0 GB


--------------------------------------------------------------
User input:
--------------------------------------------------------------

$molecule
-1,2
C          0.00000        0.00000       -1.45192
C          0.00000        0.00000       -0.12254
H          0.92778        0.00000       -2.01951
H         -0.92778        0.00000       -2.01951
C          1.27109        0.00000        0.67643
H          2.15408        0.00000        0.03271
H          1.31924        0.87967        1.32933
H          1.31924       -0.87967        1.32933
C         -1.27109        0.00000        0.67643
H         -2.15408        0.00000        0.03271
H         -1.31924       -0.87967        1.32933
H         -1.31924        0.87967        1.32933
$end

$comment
negative
$end

$xc_functional
C PBE   1.00
X wPBE  1.00
$end

$rem
SYMMETRY_DECOMPOSITION	0
exchange 		general
LRC_DFT                 true
BASIS                   g3large
omega			330
mem_static              760
max_scf_cycles          200
scf_final_print         1
sym_ignore              true
$end

--------------------------------------------------------------
 Writing REM_CC_EA           12
 ----------------------------------------------------
       Standard Nuclear Orientation (Angstroms)
    I     Atom         X            Y            Z
 ----------------------------------------------------
    1      C       0.000000     0.000000    -1.451920
    2      C       0.000000     0.000000    -0.122540
    3      H       0.927780     0.000000    -2.019510
    4      H      -0.927780     0.000000    -2.019510
    5      C       1.271090     0.000000     0.676430
    6      H       2.154080     0.000000     0.032710
    7      H       1.319240     0.879670     1.329330
    8      H       1.319240    -0.879670     1.329330
    9      C      -1.271090     0.000000     0.676430
   10      H      -2.154080     0.000000     0.032710
   11      H      -1.319240    -0.879670     1.329330
   12      H      -1.319240     0.879670     1.329330
 ----------------------------------------------------
 Nuclear Repulsion Energy =   119.8926149182 hartrees
 There are       17 alpha and       16 beta electrons
 Requested basis set is G3large
 There are 88 shells and 248 basis functions

Total QAlloc Memory Limit   2000 MB
Mega-Array Size       743 MB
MEM_STATIC part       760 MB

                       Distance Matrix (Angstroms)
             C (  1)   C (  2)   H (  3)   H (  4)   C (  5)   H (  6)
   C (  2)  1.329380
   H (  3)  1.087628  2.111699
   H (  4)  1.087628  2.111699  1.855560
   C (  5)  2.479021  1.501340  2.717711  3.478954
   H (  6)  2.616140  2.159667  2.390694  3.702630  1.092724
   H (  7)  3.201494  2.149916  3.484507  4.127669  1.096547  1.775387
   H (  8)  3.201494  2.149916  3.484507  4.127669  1.096547  1.775387
   C (  9)  2.479021  1.501340  3.478954  2.717711  2.542180  3.485135
   H ( 10)  2.616140  2.159667  3.702630  2.390694  3.485135  4.308160
   H ( 11)  3.201494  2.149916  4.127669  3.484507  2.812456  3.810380
   H ( 12)  3.201494  2.149916  4.127669  3.484507  2.812456  3.810380
             H (  7)   H (  8)   C (  9)   H ( 10)   H ( 11)
   H (  8)  1.759340
   C (  9)  2.812456  2.812456
   H ( 10)  3.810380  3.810380  1.092724
   H ( 11)  3.171254  2.638480  1.096547  1.775387
   H ( 12)  2.638480  3.171254  1.096547  1.775387  1.759340
 
 A cutoff of  1.0D-08 yielded   3625 shell pairs
 There are  28999 function pairs ( 35047 Cartesian)
Evaluating contribution to one-electron hamiltonian from nuclear
 Smallest overlap matrix eigenvalue = 1.72E-05

 Q-Chem warning in module mkSTV.C, line 194:

 Overlap eigenvalue is smaller than square root of threshold

 Multipole matrices computed through 2nd order

  Scale SEOQF with 1.000000e-01/1.000000e-01/1.000000e-01

 Standard Electronic Orientation quadrupole field applied
 Nucleus-field energy     =    -0.0000000020 hartrees
 Guess from superposition of atomic densities
 Warning:  Energy on first SCF cycle will be non-variational
 Long-range K will be added via erf
 Coulomb attenuation parameter = 0.33 bohr**(-1)
 An unrestricted Kohn-Sham SCF calculation will be
 performed using Pulay DIIS extrapolation
 Exchange:  wPBE + LR-HF      Correlation:  PBE
 Using SG-1 standard quadrature grid
 SCF converges when DIIS error is below 1.0E-05
 Requested basis set is G3large
 There are 88 shells and 248 basis functions
 A cutoff of  1.0D-08 yielded   3625 shell pairs
 There are  28999 function pairs ( 35047 Cartesian)
 Warning!  Inaccurate integrated density:
   Number of electrons =    33
   Numerical integral  =    31.999956925844
   Relative error      =    -3.0304335580 %
 ---------------------------------------
  Cycle       Energy         DIIS Error
 ---------------------------------------
    1    -158.1478211970      2.78E-02
    2    -156.8730071310      4.33E-03
    3    -156.8252908663      5.53E-03
    4    -157.0917238645      1.15E-03
    5    -157.1077339720      3.14E-04
    6    -157.1088306304      1.09E-04
    7    -157.1090843041      3.40E-05
    8    -157.1091543306      1.40E-05
    9    -157.1091852336      7.06E-06 Convergence criterion met
 ---------------------------------------
 One-Electron    Energy =  -451.1413839195
 Total Coulomb   Energy =   198.7670775979
 Alpha Exchange  Energy =    -2.7470757985
 Beta  Exchange  Energy =    -2.6893186366
 DFT   Exchange  Energy =   -18.1635850614
 DFT Correlation Energy =    -1.0275143318
 Nuclear Repu.   Energy =   119.8926149162
 Nuclear Attr.   Energy =  -607.5361410675
 Kinetic         Energy =   156.3947571479
 <S^2> = 0.7501
 SCF time:  CPU 267.62 s  wall 268.62 s
 Final Alpha MO Eigenvalues
            1           2           3           4           5           6
    1  -9.9529123  -9.9263348  -9.9255006  -9.9226571  -0.7997528  -0.6807049
            7           8           9          10          11          12
    1  -0.6698283  -0.5093580  -0.4389195  -0.4267124  -0.4144498  -0.3589167
           13          14          15          16          17          18
    1  -0.3448740  -0.3389879  -0.3136181  -0.2257422   0.0293894   0.1213140
           19          20          21          22
    1   0.1340002   0.1432696   0.1551934   0.1643436
 Final Beta MO Eigenvalues
            1           2           3           4           5           6
    1  -9.9528203  -9.9259849  -9.9251370  -9.9226434  -0.7994200  -0.6798592
            7           8           9          10          11          12
    1  -0.6693798  -0.5084536  -0.4384096  -0.4263806  -0.4136067  -0.3584142
           13          14          15          16          17          18
    1  -0.3445157  -0.3383416  -0.3132140  -0.2256053   0.1262240   0.1341101
           19          20          21
    1   0.1453199   0.1566463   0.1588225
 Analysis of SCF Wavefunction
 
 --------------------------------------------------------------
                    Orbital Energies (a.u.)
 --------------------------------------------------------------
 
 Alpha MOs
 -- Occupied --
 -9.953  -9.926  -9.926  -9.923  -0.800  -0.681  -0.670  -0.509
 -0.439  -0.427  -0.414  -0.359  -0.345  -0.339  -0.314  -0.226
  0.029
 -- Virtual --
  0.121   0.134   0.143   0.155   0.164   0.185   0.196   0.201
  0.216   0.249   0.252   0.256   0.274   0.277   0.282   0.286
  0.287   0.310   0.312   0.315   0.325   0.330   0.373   0.379
  0.383   0.384   0.397   0.399   0.418   0.443   0.472   0.485
  0.502   0.574   0.602   0.617   0.628   0.674   0.677   0.687
  0.712   0.718   0.719   0.746   0.764   0.770   0.776   0.785
  0.798   0.805   0.828   0.856   0.880   0.884   0.888   0.896
  0.903   0.918   0.961   0.999   1.036   1.044   1.067   1.085
  1.106   1.139   1.166   1.196   1.212   1.238   1.268   1.308
  1.329   1.329   1.355   1.361   1.372   1.411   1.436   1.461
  1.474   1.478   1.514   1.533   1.541   1.551   1.571   1.602
  1.659   1.663   1.668   1.688   1.719   1.736   1.753   1.782
  1.804   1.807   1.824   1.852   1.916   2.027   2.134   2.528
  2.619   2.668   2.721   2.776   2.795   2.892   2.900   2.940
  2.964   2.966   3.014   3.018   3.027   3.089   3.104   3.144
  3.158   3.181   3.227   3.238   3.288   3.290   3.292   3.316
  3.346   3.359   3.366   3.396   3.410   3.422   3.447   3.478
  3.510   3.544   3.570   3.574   3.590   3.650   3.654   3.716
  3.733   3.755   3.782   3.847   3.859   3.888   3.894   3.976
  3.982   4.028   4.065   4.127   4.128   4.130   4.192   4.225
  4.230   4.265   4.327   4.353   4.356   4.407   4.430   4.445
  4.447   4.460   4.541   4.581   4.601   4.613   4.615   4.659
  4.789   4.789   4.797   4.829   4.837   4.941   4.949   4.999
  5.194   5.281   5.491   5.618   5.727   5.828   5.857   5.863
  5.898   5.924   6.139  24.026  24.389  24.420  24.839  27.403
 27.617  27.806  28.022  28.194  28.212  28.249  28.263  28.346
 28.400  28.688  28.698  40.952  41.033  41.038  41.041  41.079
 41.119  41.135  41.239  41.246  41.280  41.295  41.300  41.350
 41.351  41.375  41.376  41.378  41.412  41.418  41.481
 
 Beta MOs
 -- Occupied --
 -9.953  -9.926  -9.925  -9.923  -0.799  -0.680  -0.669  -0.508
 -0.438  -0.426  -0.414  -0.358  -0.345  -0.338  -0.313  -0.226
 -- Virtual --
  0.126   0.134   0.145   0.157   0.159   0.166   0.185   0.194
  0.202   0.214   0.243   0.246   0.255   0.273   0.276   0.278
  0.282   0.285   0.305   0.311   0.315   0.321   0.325   0.368
  0.378   0.379   0.384   0.394   0.399   0.417   0.442   0.470
  0.480   0.495   0.573   0.601   0.615   0.624   0.672   0.676
  0.684   0.712   0.716   0.718   0.745   0.763   0.768   0.775
  0.784   0.798   0.804   0.827   0.855   0.878   0.884   0.889
  0.893   0.902   0.916   0.960   0.999   1.036   1.044   1.067
  1.085   1.107   1.139   1.167   1.197   1.213   1.238   1.268
  1.308   1.329   1.329   1.355   1.360   1.372   1.412   1.436
  1.462   1.474   1.479   1.514   1.533   1.541   1.552   1.570
  1.602   1.659   1.664   1.667   1.688   1.719   1.736   1.753
  1.783   1.805   1.807   1.824   1.853   1.916   2.027   2.134
  2.528   2.618   2.668   2.721   2.776   2.795   2.892   2.900
  2.940   2.964   2.967   3.014   3.018   3.028   3.090   3.104
  3.145   3.158   3.181   3.227   3.238   3.288   3.290   3.292
  3.316   3.346   3.359   3.367   3.397   3.411   3.422   3.447
  3.479   3.510   3.545   3.570   3.574   3.591   3.650   3.655
  3.716   3.733   3.756   3.783   3.847   3.860   3.888   3.894
  3.976   3.983   4.028   4.065   4.127   4.128   4.130   4.193
  4.225   4.230   4.265   4.327   4.353   4.356   4.407   4.431
  4.445   4.447   4.461   4.541   4.581   4.601   4.614   4.615
  4.659   4.790   4.790   4.798   4.829   4.837   4.942   4.949
  5.000   5.194   5.281   5.491   5.618   5.727   5.829   5.858
  5.863   5.899   5.924   6.139  24.026  24.390  24.420  24.839
 27.403  27.617  27.806  28.022  28.194  28.212  28.249  28.263
 28.346  28.400  28.688  28.698  40.952  41.033  41.039  41.041
 41.079  41.119  41.135  41.239  41.246  41.280  41.295  41.300
 41.350  41.351  41.375  41.376  41.378  41.412  41.418  41.481
 --------------------------------------------------------------
 
          Ground-State Mulliken Net Atomic Charges

     Atom                 Charge (a.u.)    Spin (a.u.)
  --------------------------------------------------------
      1 C                     1.700283      -2.440444
      2 C                    -3.199344       3.997341
      3 H                    -0.089301       0.187120
      4 H                    -0.121724       0.221016
      5 C                     2.118463      -2.528020
      6 H                    -0.712137       0.800115
      7 H                    -0.555228       0.651571
      8 H                    -0.564751       0.661775
      9 C                     2.354474      -2.764290
     10 H                    -0.751347       0.840581
     11 H                    -0.597531       0.694816
     12 H                    -0.581858       0.678420
  --------------------------------------------------------
  Sum of atomic charges =    -1.000000
  Sum of spin   charges =     1.000000

 -----------------------------------------------------------------
                    Cartesian Multipole Moments
 -----------------------------------------------------------------
    Charge (ESU x 10^10)
                -4.8032
    Dipole Moment (Debye)
         X       0.3031      Y       0.0878      Z      -5.0140
       Tot       5.0240
    Quadrupole Moments (Debye-Ang)
        XX     -62.9819     XY      -0.0307     YY     -55.5876
        XZ       0.1884     YZ       0.1454     ZZ     -61.6030
    Octapole Moments (Debye-Ang^2)
       XXX       5.1830    XXY       0.4038    XYY       1.3341
       YYY       1.0063    XXZ     -29.1296    XYZ      -0.0500
       YYZ     -28.6024    XZZ       1.8102    YZZ       0.5758
       ZZZ     -82.1879
    Hexadecapole Moments (Debye-Ang^3)
      XXXX    -875.8611   XXXY      -0.3450   XXYY    -194.6016
      XYYY      -0.3070   YYYY    -380.4211   XXXZ       2.1252
      XXYZ       0.6044   XYYZ       0.9168   YYYZ       1.4431
      XXZZ    -269.2518   XYZZ      -0.1698   YYZZ    -191.6437
      XZZZ       2.5470   YZZZ       1.6394   ZZZZ    -740.5666
 -----------------------------------------------------------------
 Total job time:  269.05s(wall), 267.96s(cpu) 
 Sun Jul  7 09:44:03 2013

        *************************************************************
        *                                                           *
        *  Thank you very much for using Q-Chem.  Have a nice day.  *
        *                                                           *
        *************************************************************


0 sent ACK to 0 
now end server 0 ... 
 
**********************************************************************
Job 2 of 3 
**********************************************************************
 
Process 0 of 1 is on cl038.stfx.acenet.ca - thread support 1
initial socket setup ...start
initial socket setup ...done 
now start server 0 ... 

cmd = /usr/bin/ssh clhead /usr/local/qchem/bin/get_hostid 1637763056 > /scratch/tmp/6063999.1.short.q/qchem25675/lic.dat
                  Welcome to Q-Chem
     A Quantum Leap Into The Future Of Chemistry

 Y. Shao, L. Fusti-Molnar, Y. Jung, J. Kussmann, C. Ochsenfeld,
 S. T. Brown, A. T. B. Gilbert, L. V. Slipchenko,S. V. Levchenko,
 D. P. O'Neill, R. A. DiStasio Jr., R. C. Lochan, T. Wang,
 G. J. O. Beran, N. A. Besley, J. M. Herbert, C. Y. Lin,
 T. Van Voorhis, S. H. Chien, A. Sodt, R. P. Steele, 
 V. A. Rassolov, P. E. Maslen, P. P. Korambath, R. D. Adamson,
 B. Austin, J. Baker, E. F. C. Byrd, H. Dachsel, R. J. Doerksen,
 A. Dreuw, B. D. Dunietz, A. D. Dutoi, T. R. Furlani,
 S. R. Gwaltney, A. Heyden, S. Hirata, C.-P. Hsu, G. Kedziora,
 R. Z. Khaliullin, P. Klunzinger, A. M. Lee, M. S. Lee, W. Liang,
 I. Lotan, N. Nair, B. Peters, E. I. Proynov, P. A. Pieniazek, 
 Y. M. Rhee, J. Ritchie, E. Rosta, C. D. Sherrill, 
 A. C. Simmonett, J. E. Subotnik, H. L. Woodcock III,
 W. Zhang, A. T. Bell, A. K. Chakraborty, D. M. Chipman,
 F. J. Keil, A. Warshel, W. J. Hehre, H. F. Schaefer III,
 J. Kong, A. I. Krylov, P. M. W. Gill, M. Head-Gordon,
 Q-Chem, Version 3.1, Q-Chem, Inc., Pittsburgh, PA (2007).

 Additional authors for Version 3.1: 
 Z. Gan, Y. Zhao, N. E. Schultz, D. Truhlar, E. Epifanovsky and M. Oana.

 Additional authors for Version 3.2: 
 R. Baer, B. R. Brooks, D. Casanova, J.-D. Chai, C.-L. Cheng, 
 C. Cramer, D. Crittenden, A. Ghysels, G. Hawkins, E. G. Hohenstein, 
 C. Kelley, W. Kurlancheek, D. Liotard, E. Livshits, P. Manohar, 
 A. Marenich, D. Neuhauser, R. Olson, M. A. Rohrdanz, K. S. Thanthiriwatte, 
 A. J. W. Thom, V. Vanovschi, C. F. Williams, Q. Wu and Z.-Q. You. 


 Intel X86 Linux Version

 Q-chem begins on Sun Jul  7 09:44:06 2013  

 Parallel job on  1  processors
Processing $rem in /usr/local/qchem/config/preferences.

theFileMan(): MAXOPENFILES=974 MAX_SUB_FILE_NUM=16
Maximum size of a physical file is 2.0 GB, maximum size of a tmp-file is 32.0 GB


--------------------------------------------------------------
User input:
--------------------------------------------------------------

$molecule
0,1
C          0.00000        0.00000       -1.45192
C          0.00000        0.00000       -0.12254
H          0.92778        0.00000       -2.01951
H         -0.92778        0.00000       -2.01951
C          1.27109        0.00000        0.67643
H          2.15408        0.00000        0.03271
H          1.31924        0.87967        1.32933
H          1.31924       -0.87967        1.32933
C         -1.27109        0.00000        0.67643
H         -2.15408        0.00000        0.03271
H         -1.31924       -0.87967        1.32933
H         -1.31924        0.87967        1.32933
$end

$comment
neutral
$end

$xc_functional
C PBE   1.00
X wPBE  1.00
$end


$rem
SYMMETRY_DECOMPOSITION	0
LRC_DFT                 true
exchange 		general
BASIS                   g3large
omega			330
mem_static              760
max_scf_cycles          200
scf_final_print         1
sym_ignore              true
$end

--------------------------------------------------------------
 Writing REM_CC_EA           12
 ----------------------------------------------------
       Standard Nuclear Orientation (Angstroms)
    I     Atom         X            Y            Z
 ----------------------------------------------------
    1      C       0.000000     0.000000    -1.451920
    2      C       0.000000     0.000000    -0.122540
    3      H       0.927780     0.000000    -2.019510
    4      H      -0.927780     0.000000    -2.019510
    5      C       1.271090     0.000000     0.676430
    6      H       2.154080     0.000000     0.032710
    7      H       1.319240     0.879670     1.329330
    8      H       1.319240    -0.879670     1.329330
    9      C      -1.271090     0.000000     0.676430
   10      H      -2.154080     0.000000     0.032710
   11      H      -1.319240    -0.879670     1.329330
   12      H      -1.319240     0.879670     1.329330
 ----------------------------------------------------
 Nuclear Repulsion Energy =   119.8926149182 hartrees
 There are       16 alpha and       16 beta electrons
 Requested basis set is G3large
 There are 88 shells and 248 basis functions

Total QAlloc Memory Limit   2000 MB
Mega-Array Size       743 MB
MEM_STATIC part       760 MB

                       Distance Matrix (Angstroms)
             C (  1)   C (  2)   H (  3)   H (  4)   C (  5)   H (  6)
   C (  2)  1.329380
   H (  3)  1.087628  2.111699
   H (  4)  1.087628  2.111699  1.855560
   C (  5)  2.479021  1.501340  2.717711  3.478954
   H (  6)  2.616140  2.159667  2.390694  3.702630  1.092724
   H (  7)  3.201494  2.149916  3.484507  4.127669  1.096547  1.775387
   H (  8)  3.201494  2.149916  3.484507  4.127669  1.096547  1.775387
   C (  9)  2.479021  1.501340  3.478954  2.717711  2.542180  3.485135
   H ( 10)  2.616140  2.159667  3.702630  2.390694  3.485135  4.308160
   H ( 11)  3.201494  2.149916  4.127669  3.484507  2.812456  3.810380
   H ( 12)  3.201494  2.149916  4.127669  3.484507  2.812456  3.810380
             H (  7)   H (  8)   C (  9)   H ( 10)   H ( 11)
   H (  8)  1.759340
   C (  9)  2.812456  2.812456
   H ( 10)  3.810380  3.810380  1.092724
   H ( 11)  3.171254  2.638480  1.096547  1.775387
   H ( 12)  2.638480  3.171254  1.096547  1.775387  1.759340
 
 A cutoff of  1.0D-08 yielded   3625 shell pairs
 There are  28999 function pairs ( 35047 Cartesian)
Evaluating contribution to one-electron hamiltonian from nuclear
 Smallest overlap matrix eigenvalue = 1.72E-05

 Q-Chem warning in module mkSTV.C, line 194:

 Overlap eigenvalue is smaller than square root of threshold

 Multipole matrices computed through 2nd order

  Scale SEOQF with 1.000000e-01/1.000000e-01/1.000000e-01

 Standard Electronic Orientation quadrupole field applied
 Nucleus-field energy     =    -0.0000000020 hartrees
 Guess from superposition of atomic densities
 Warning:  Energy on first SCF cycle will be non-variational
 Long-range K will be added via erf
 Coulomb attenuation parameter = 0.33 bohr**(-1)
 A restricted Kohn-Sham SCF calculation will be
 performed using Pulay DIIS extrapolation
 Exchange:  wPBE + LR-HF      Correlation:  PBE
 Using SG-1 standard quadrature grid
 SCF converges when DIIS error is below 1.0E-05
 Requested basis set is G3large
 There are 88 shells and 248 basis functions
 A cutoff of  1.0D-08 yielded   3625 shell pairs
 There are  28999 function pairs ( 35047 Cartesian)
 ---------------------------------------
  Cycle       Energy         DIIS Error
 ---------------------------------------
    1    -158.1478211970      2.78E-02
    2    -157.0818878372      2.61E-03
    3    -157.1227341279      1.59E-03
    4    -157.1416171974      1.91E-04
    5    -157.1422955018      5.08E-05
    6    -157.1423268402      2.19E-05
    7    -157.1423368780      7.64E-06 Convergence criterion met
 ---------------------------------------
 One-Electron    Energy =  -447.1667945868
 Total Coulomb   Energy =   194.6914293689
 Alpha Exchange  Energy =    -2.6904579054
 Beta  Exchange  Energy =    -2.6904579054
 DFT   Exchange  Energy =   -18.1578346423
 DFT Correlation Energy =    -1.0208361232
 Nuclear Repu.   Energy =   119.8926149162
 Nuclear Attr.   Energy =  -603.4960146576
 Kinetic         Energy =   156.3292200708
 SCF time:  CPU 158.52 s  wall 159.31 s
 Final Alpha MO Eigenvalues
            1           2           3           4           5           6
    1 -10.0745564 -10.0560631 -10.0560459 -10.0436216  -0.9244815  -0.8086619
            7           8           9          10          11          12
    1  -0.7933784  -0.6323138  -0.5622414  -0.5516181  -0.5430112  -0.4891208
           13          14          15          16          17          18
    1  -0.4709304  -0.4647923  -0.4373432  -0.3482468   0.0376571   0.0518341
           19          20          21
    1   0.0597551   0.0609176   0.0742997
 Analysis of SCF Wavefunction
 
 --------------------------------------------------------------
                    Orbital Energies (a.u.)
 --------------------------------------------------------------
 
 Alpha MOs
 -- Occupied --
-10.075 -10.056 -10.056 -10.044  -0.924  -0.809  -0.793  -0.632
 -0.562  -0.552  -0.543  -0.489  -0.471  -0.465  -0.437  -0.348
 -- Virtual --
  0.038   0.052   0.060   0.061   0.074   0.082   0.096   0.096
  0.112   0.119   0.143   0.148   0.155   0.172   0.173   0.185
  0.188   0.189   0.204   0.206   0.214   0.215   0.222   0.262
  0.262   0.267   0.275   0.278   0.288   0.303   0.332   0.353
  0.368   0.388   0.462   0.486   0.495   0.509   0.554   0.556
  0.571   0.587   0.594   0.604   0.625   0.644   0.648   0.655
  0.661   0.680   0.682   0.706   0.742   0.757   0.763   0.763
  0.772   0.781   0.802   0.839   0.879   0.913   0.916   0.945
  0.961   0.978   1.021   1.040   1.076   1.088   1.113   1.145
  1.183   1.206   1.206   1.229   1.237   1.245   1.285   1.314
  1.336   1.350   1.355   1.389   1.407   1.415   1.424   1.446
  1.481   1.532   1.540   1.543   1.564   1.598   1.615   1.628
  1.655   1.680   1.683   1.697   1.726   1.796   1.901   2.011
  2.399   2.498   2.542   2.595   2.647   2.673   2.770   2.779
  2.813   2.841   2.842   2.889   2.893   2.903   2.963   2.978
  3.019   3.028   3.055   3.105   3.117   3.164   3.166   3.168
  3.190   3.218   3.238   3.239   3.267   3.284   3.296   3.323
  3.353   3.387   3.419   3.445   3.450   3.466   3.527   3.529
  3.587   3.608   3.629   3.655   3.723   3.732   3.763   3.770
  3.852   3.855   3.903   3.937   4.000   4.002   4.003   4.067
  4.098   4.107   4.137   4.205   4.227   4.229   4.288   4.302
  4.316   4.321   4.335   4.414   4.453   4.472   4.485   4.489
  4.533   4.662   4.666   4.670   4.703   4.709   4.819   4.823
  4.876   5.068   5.158   5.368   5.492   5.603   5.710   5.727
  5.732   5.770   5.797   6.017  23.904  24.260  24.290  24.717
 27.282  27.496  27.680  27.895  28.064  28.082  28.121  28.133
 28.224  28.279  28.564  28.572  40.830  40.905  40.908  40.916
 40.958  40.990  41.005  41.117  41.124  41.158  41.166  41.171
 41.225  41.229  41.245  41.248  41.251  41.287  41.295  41.358
 --------------------------------------------------------------
 
          Ground-State Mulliken Net Atomic Charges

     Atom                 Charge (a.u.)
  ----------------------------------------
      1 C                    -0.663196
      2 C                     0.702016
      3 H                     0.105298
      4 H                     0.105317
      5 C                    -0.391621
      6 H                     0.096756
      7 H                     0.085058
      8 H                     0.085072
      9 C                    -0.391571
     10 H                     0.096754
     11 H                     0.085059
     12 H                     0.085057
  ----------------------------------------
  Sum of atomic charges =     0.000000

 -----------------------------------------------------------------
                    Cartesian Multipole Moments
 -----------------------------------------------------------------
    Charge (ESU x 10^10)
                 0.0000
    Dipole Moment (Debye)
         X       0.0000      Y       0.0000      Z       0.5762
       Tot       0.5762
    Quadrupole Moments (Debye-Ang)
        XX     -25.6343     XY      -0.0007     YY     -28.1645
        XZ       0.0000     YZ       0.0000     ZZ     -26.1874
    Octapole Moments (Debye-Ang^2)
       XXX       0.0000    XXY       0.0000    XYY       0.0000
       YYY       0.0000    XXZ      -2.2690    XYZ       0.0005
       YYZ       3.9830    XZZ       0.0001    YZZ      -0.0001
       ZZZ      -0.6471
    Hexadecapole Moments (Debye-Ang^3)
      XXXX    -211.2997   XXXY      -0.0027   XXYY     -44.2635
      XYYY      -0.0005   YYYY     -46.2110   XXXZ       0.0001
      XXYZ       0.0001   XYYZ       0.0000   YYYZ      -0.0001
      XXZZ     -65.7895   XYZZ      -0.0038   YYZZ     -40.8177
      XZZZ       0.0001   YZZZ       0.0003   ZZZZ    -195.6756
 -----------------------------------------------------------------
 Total job time:  159.66s(wall), 158.85s(cpu) 
 Sun Jul  7 09:46:46 2013

        *************************************************************
        *                                                           *
        *  Thank you very much for using Q-Chem.  Have a nice day.  *
        *                                                           *
        *************************************************************


0 sent ACK to 0 
now end server 0 ... 
 
**********************************************************************
Job 3 of 3 
**********************************************************************
 
Process 0 of 1 is on cl038.stfx.acenet.ca - thread support 1
initial socket setup ...start
initial socket setup ...done 
now start server 0 ... 

cmd = /usr/bin/ssh clhead /usr/local/qchem/bin/get_hostid 1764501684 > /scratch/tmp/6063999.1.short.q/qchem25675/lic.dat
                  Welcome to Q-Chem
     A Quantum Leap Into The Future Of Chemistry

 Y. Shao, L. Fusti-Molnar, Y. Jung, J. Kussmann, C. Ochsenfeld,
 S. T. Brown, A. T. B. Gilbert, L. V. Slipchenko,S. V. Levchenko,
 D. P. O'Neill, R. A. DiStasio Jr., R. C. Lochan, T. Wang,
 G. J. O. Beran, N. A. Besley, J. M. Herbert, C. Y. Lin,
 T. Van Voorhis, S. H. Chien, A. Sodt, R. P. Steele, 
 V. A. Rassolov, P. E. Maslen, P. P. Korambath, R. D. Adamson,
 B. Austin, J. Baker, E. F. C. Byrd, H. Dachsel, R. J. Doerksen,
 A. Dreuw, B. D. Dunietz, A. D. Dutoi, T. R. Furlani,
 S. R. Gwaltney, A. Heyden, S. Hirata, C.-P. Hsu, G. Kedziora,
 R. Z. Khaliullin, P. Klunzinger, A. M. Lee, M. S. Lee, W. Liang,
 I. Lotan, N. Nair, B. Peters, E. I. Proynov, P. A. Pieniazek, 
 Y. M. Rhee, J. Ritchie, E. Rosta, C. D. Sherrill, 
 A. C. Simmonett, J. E. Subotnik, H. L. Woodcock III,
 W. Zhang, A. T. Bell, A. K. Chakraborty, D. M. Chipman,
 F. J. Keil, A. Warshel, W. J. Hehre, H. F. Schaefer III,
 J. Kong, A. I. Krylov, P. M. W. Gill, M. Head-Gordon,
 Q-Chem, Version 3.1, Q-Chem, Inc., Pittsburgh, PA (2007).

 Additional authors for Version 3.1: 
 Z. Gan, Y. Zhao, N. E. Schultz, D. Truhlar, E. Epifanovsky and M. Oana.

 Additional authors for Version 3.2: 
 R. Baer, B. R. Brooks, D. Casanova, J.-D. Chai, C.-L. Cheng, 
 C. Cramer, D. Crittenden, A. Ghysels, G. Hawkins, E. G. Hohenstein, 
 C. Kelley, W. Kurlancheek, D. Liotard, E. Livshits, P. Manohar, 
 A. Marenich, D. Neuhauser, R. Olson, M. A. Rohrdanz, K. S. Thanthiriwatte, 
 A. J. W. Thom, V. Vanovschi, C. F. Williams, Q. Wu and Z.-Q. You. 


 Intel X86 Linux Version

 Q-chem begins on Sun Jul  7 09:46:49 2013  

 Parallel job on  1  processors
Processing $rem in /usr/local/qchem/config/preferences.

theFileMan(): MAXOPENFILES=974 MAX_SUB_FILE_NUM=16
Maximum size of a physical file is 2.0 GB, maximum size of a tmp-file is 32.0 GB


--------------------------------------------------------------
User input:
--------------------------------------------------------------

$molecule
1,2
C          0.00000        0.00000       -1.45192
C          0.00000        0.00000       -0.12254
H          0.92778        0.00000       -2.01951
H         -0.92778        0.00000       -2.01951
C          1.27109        0.00000        0.67643
H          2.15408        0.00000        0.03271
H          1.31924        0.87967        1.32933
H          1.31924       -0.87967        1.32933
C         -1.27109        0.00000        0.67643
H         -2.15408        0.00000        0.03271
H         -1.31924       -0.87967        1.32933
H         -1.31924        0.87967        1.32933
$end

$comment
positive
$end

$xc_functional
C PBE   1.00
X wPBE  1.00
$end

$rem
SYMMETRY_DECOMPOSITION	0
LRC_DFT                 true
exchange 		general
BASIS                   g3large
omega			330
mem_static              760
max_scf_cycles          200
scf_final_print         1
sym_ignore              true
$end

--------------------------------------------------------------
 Writing REM_CC_EA           12
 ----------------------------------------------------
       Standard Nuclear Orientation (Angstroms)
    I     Atom         X            Y            Z
 ----------------------------------------------------
    1      C       0.000000     0.000000    -1.451920
    2      C       0.000000     0.000000    -0.122540
    3      H       0.927780     0.000000    -2.019510
    4      H      -0.927780     0.000000    -2.019510
    5      C       1.271090     0.000000     0.676430
    6      H       2.154080     0.000000     0.032710
    7      H       1.319240     0.879670     1.329330
    8      H       1.319240    -0.879670     1.329330
    9      C      -1.271090     0.000000     0.676430
   10      H      -2.154080     0.000000     0.032710
   11      H      -1.319240    -0.879670     1.329330
   12      H      -1.319240     0.879670     1.329330
 ----------------------------------------------------
 Nuclear Repulsion Energy =   119.8926149182 hartrees
 There are       16 alpha and       15 beta electrons
 Requested basis set is G3large
 There are 88 shells and 248 basis functions

Total QAlloc Memory Limit   2000 MB
Mega-Array Size       743 MB
MEM_STATIC part       760 MB

                       Distance Matrix (Angstroms)
             C (  1)   C (  2)   H (  3)   H (  4)   C (  5)   H (  6)
   C (  2)  1.329380
   H (  3)  1.087628  2.111699
   H (  4)  1.087628  2.111699  1.855560
   C (  5)  2.479021  1.501340  2.717711  3.478954
   H (  6)  2.616140  2.159667  2.390694  3.702630  1.092724
   H (  7)  3.201494  2.149916  3.484507  4.127669  1.096547  1.775387
   H (  8)  3.201494  2.149916  3.484507  4.127669  1.096547  1.775387
   C (  9)  2.479021  1.501340  3.478954  2.717711  2.542180  3.485135
   H ( 10)  2.616140  2.159667  3.702630  2.390694  3.485135  4.308160
   H ( 11)  3.201494  2.149916  4.127669  3.484507  2.812456  3.810380
   H ( 12)  3.201494  2.149916  4.127669  3.484507  2.812456  3.810380
             H (  7)   H (  8)   C (  9)   H ( 10)   H ( 11)
   H (  8)  1.759340
   C (  9)  2.812456  2.812456
   H ( 10)  3.810380  3.810380  1.092724
   H ( 11)  3.171254  2.638480  1.096547  1.775387
   H ( 12)  2.638480  3.171254  1.096547  1.775387  1.759340
 
 A cutoff of  1.0D-08 yielded   3625 shell pairs
 There are  28999 function pairs ( 35047 Cartesian)
Evaluating contribution to one-electron hamiltonian from nuclear
 Smallest overlap matrix eigenvalue = 1.72E-05

 Q-Chem warning in module mkSTV.C, line 194:

 Overlap eigenvalue is smaller than square root of threshold

 Multipole matrices computed through 2nd order

  Scale SEOQF with 1.000000e-01/1.000000e-01/1.000000e-01

 Standard Electronic Orientation quadrupole field applied
 Nucleus-field energy     =    -0.0000000020 hartrees
 Guess from superposition of atomic densities
 Warning:  Energy on first SCF cycle will be non-variational
 Long-range K will be added via erf
 Coulomb attenuation parameter = 0.33 bohr**(-1)
 An unrestricted Kohn-Sham SCF calculation will be
 performed using Pulay DIIS extrapolation
 Exchange:  wPBE + LR-HF      Correlation:  PBE
 Using SG-1 standard quadrature grid
 SCF converges when DIIS error is below 1.0E-05
 Requested basis set is G3large
 There are 88 shells and 248 basis functions
 A cutoff of  1.0D-08 yielded   3625 shell pairs
 There are  28999 function pairs ( 35047 Cartesian)
 Warning!  Inaccurate integrated density:
   Number of electrons =    31
   Numerical integral  =    31.999956925844
   Relative error      =     3.2256675027 %
 ---------------------------------------
  Cycle       Energy         DIIS Error
 ---------------------------------------
    1    -158.1478211970      2.78E-02
    2    -156.7422870225      2.04E-03
    3    -156.7831606849      1.11E-03
    4    -156.7946274958      3.73E-04
    5    -156.7974891253      9.55E-05
    6    -156.7982930318      5.37E-05
    7    -156.7985869722      2.46E-05
    8    -156.7986609390      9.59E-06 Convergence criterion met
 ---------------------------------------
 One-Electron    Energy =  -439.3015088235
 Total Coulomb   Energy =   186.8798788238
 Alpha Exchange  Energy =    -2.7012838315
 Beta  Exchange  Energy =    -2.5360029056
 DFT   Exchange  Energy =   -18.0495180084
 DFT Correlation Energy =    -0.9828411099
 Nuclear Repu.   Energy =   119.8926149162
 Nuclear Attr.   Energy =  -595.4651746517
 Kinetic         Energy =   156.1636658282
 <S^2> = 0.7531
 SCF time:  CPU 232.07 s  wall 232.95 s
 Final Alpha MO Eigenvalues
            1           2           3           4           5           6
    1 -10.3773193 -10.3552724 -10.2720554 -10.2720392  -1.2036620  -1.0560824
            7           8           9          10          11          12
    1  -1.0316982  -0.8861751  -0.8192100  -0.7904017  -0.7819778  -0.7033371
           13          14          15          16          17          18
    1  -0.7006395  -0.6995755  -0.6711066  -0.6462064  -0.1809241  -0.1007820
           19          20          21
    1  -0.0711283  -0.0704061  -0.0574503
 Final Beta MO Eigenvalues
            1           2           3           4           5           6
    1 -10.3731741 -10.3462769 -10.2719915 -10.2719725  -1.1799046  -1.0389629
            7           8           9          10          11          12
    1  -1.0292781  -0.8746757  -0.8119641  -0.7871551  -0.7530958  -0.6963492
           13          14          15          16          17          18
    1  -0.6960954  -0.6920370  -0.6703293  -0.3367991  -0.1236326  -0.0993186
           19          20
    1  -0.0702486  -0.0700580
 Analysis of SCF Wavefunction
 
 --------------------------------------------------------------
                    Orbital Energies (a.u.)
 --------------------------------------------------------------
 
 Alpha MOs
 -- Occupied --
-10.377 -10.355 -10.272 -10.272  -1.204  -1.056  -1.032  -0.886
 -0.819  -0.790  -0.782  -0.703  -0.701  -0.700  -0.671  -0.646
 -- Virtual --
 -0.181  -0.101  -0.071  -0.070  -0.057  -0.050  -0.043  -0.031
 -0.027  -0.021  -0.015  -0.001   0.012   0.018   0.034   0.038
  0.040   0.042   0.049   0.050   0.057   0.064   0.071   0.090
  0.092   0.107   0.111   0.115   0.121   0.137   0.144   0.151
  0.204   0.229   0.269   0.273   0.311   0.331   0.349   0.349
  0.373   0.377   0.381   0.402   0.414   0.419   0.429   0.466
  0.470   0.474   0.489   0.501   0.519   0.526   0.548   0.560
  0.571   0.590   0.600   0.629   0.647   0.703   0.707   0.730
  0.742   0.769   0.806   0.834   0.855   0.865   0.909   0.937
  0.963   0.980   1.001   1.020   1.029   1.046   1.078   1.085
  1.116   1.138   1.141   1.164   1.201   1.213   1.214   1.252
  1.265   1.331   1.332   1.346   1.358   1.373   1.383   1.411
  1.451   1.455   1.485   1.496   1.509   1.553   1.667   1.773
  2.182   2.262   2.288   2.373   2.423   2.441   2.471   2.515
  2.559   2.581   2.587   2.619   2.625   2.650   2.703   2.739
  2.768   2.811   2.816   2.835   2.843   2.900   2.905   2.924
  2.948   2.976   2.987   3.015   3.042   3.045   3.056   3.080
  3.096   3.122   3.166   3.185   3.197   3.241   3.256   3.290
  3.368   3.373   3.384   3.417   3.467   3.487   3.507   3.529
  3.612   3.628   3.666   3.716   3.763   3.778   3.778   3.824
  3.856   3.859   3.910   3.964   3.978   4.001   4.030   4.081
  4.082   4.099   4.102   4.195   4.232   4.244   4.249   4.266
  4.292   4.412   4.422   4.427   4.477   4.480   4.572   4.574
  4.591   4.826   4.892   5.123   5.246   5.353   5.449   5.511
  5.517   5.559   5.579   5.752  23.606  24.034  24.073  24.415
 26.964  27.183  27.421  27.647  27.848  27.865  27.869  27.916
 27.950  27.978  28.290  28.319  40.521  40.617  40.639  40.692
 40.693  40.766  40.787  40.807  40.813  40.848  40.914  40.948
 40.953  40.956  40.962  41.017  41.028  41.031  41.053  41.085
 
 Beta MOs
 -- Occupied --
-10.373 -10.346 -10.272 -10.272  -1.180  -1.039  -1.029  -0.875
 -0.812  -0.787  -0.753  -0.696  -0.696  -0.692  -0.670
 -- Virtual --
 -0.337  -0.124  -0.099  -0.070  -0.070  -0.053  -0.049  -0.042
 -0.029  -0.020  -0.017  -0.012   0.000   0.015   0.018   0.036
  0.040   0.043   0.045   0.052   0.052   0.058   0.066   0.075
  0.090   0.096   0.110   0.114   0.116   0.123   0.137   0.145
  0.158   0.206   0.231   0.272   0.280   0.315   0.332   0.357
  0.363   0.383   0.386   0.391   0.415   0.424   0.426   0.456
  0.466   0.475   0.476   0.490   0.503   0.536   0.540   0.553
  0.569   0.574   0.594   0.603   0.634   0.658   0.707   0.716
  0.732   0.749   0.775   0.808   0.840   0.863   0.874   0.911
  0.940   0.969   0.989   1.003   1.028   1.032   1.049   1.088
  1.094   1.125   1.142   1.145   1.174   1.202   1.217   1.217
  1.254   1.274   1.334   1.336   1.348   1.363   1.379   1.391
  1.420   1.454   1.458   1.488   1.507   1.511   1.567   1.676
  1.777   2.188   2.267   2.310   2.377   2.433   2.448   2.514
  2.531   2.583   2.590   2.595   2.641   2.655   2.659   2.728
  2.743   2.785   2.819   2.827   2.856   2.867   2.920   2.924
  2.925   2.959   2.982   2.994   3.021   3.050   3.059   3.065
  3.086   3.109   3.151   3.183   3.205   3.209   3.243   3.282
  3.300   3.372   3.376   3.396   3.433   3.483   3.510   3.511
  3.532   3.617   3.635   3.670   3.720   3.771   3.782   3.784
  3.828   3.868   3.870   3.915   3.966   3.989   4.007   4.040
  4.088   4.095   4.105   4.106   4.196   4.239   4.252   4.256
  4.270   4.302   4.417   4.435   4.437   4.481   4.485   4.574
  4.580   4.618   4.829   4.900   5.132   5.250   5.356   5.452
  5.517   5.523   5.562   5.581   5.757  23.613  24.035  24.073
 24.423  26.987  27.201  27.422  27.648  27.849  27.866  27.873
 27.916  27.953  27.984  28.291  28.320  40.533  40.623  40.657
 40.692  40.694  40.767  40.787  40.820  40.827  40.861  40.928
 40.949  40.953  40.958  40.967  41.019  41.029  41.031  41.053
 41.086
 --------------------------------------------------------------
 
          Ground-State Mulliken Net Atomic Charges

     Atom                 Charge (a.u.)    Spin (a.u.)
  --------------------------------------------------------
      1 C                    -0.347479       0.660456
      2 C                     0.734740       0.269137
      3 H                     0.180315      -0.021465
      4 H                     0.180229      -0.021470
      5 C                    -0.307919      -0.006887
      6 H                     0.127882      -0.002146
      7 H                     0.153000       0.033009
      8 H                     0.152915       0.032708
      9 C                    -0.307451      -0.006910
     10 H                     0.127867      -0.002146
     11 H                     0.152991       0.033006
     12 H                     0.152908       0.032709
  --------------------------------------------------------
  Sum of atomic charges =     1.000000
  Sum of spin   charges =     1.000000

 -----------------------------------------------------------------
                    Cartesian Multipole Moments
 -----------------------------------------------------------------
    Charge (ESU x 10^10)
                 4.8032
    Dipole Moment (Debye)
         X       0.0000      Y       0.0001      Z      -1.1051
       Tot       1.1051
    Quadrupole Moments (Debye-Ang)
        XX     -17.0748     XY      -0.0003     YY     -22.8221
        XZ       0.0000     YZ      -0.0001     ZZ     -14.3459
    Octapole Moments (Debye-Ang^2)
       XXX      -0.0001    XXY       0.0001    XYY       0.0000
       YYY       0.0001    XXZ       0.7583    XYZ      -0.0021
       YYZ       3.3518    XZZ       0.0000    YZZ       0.0002
       ZZZ      -9.2881
    Hexadecapole Moments (Debye-Ang^3)
      XXXX    -167.0001   XXXY      -0.0088   XXYY     -35.9532
      XYYY       0.0007   YYYY     -33.4797   XXXZ      -0.0001
      XXYZ      -0.0001   XYYZ       0.0000   YYYZ       0.0000
      XXZZ     -46.3433   XYZZ       0.0076   YYZZ     -28.5818
      XZZZ      -0.0001   YZZZ      -0.0006   ZZZZ    -138.2254
 -----------------------------------------------------------------
 Total job time:  233.30s(wall), 232.41s(cpu) 
 Sun Jul  7 09:50:42 2013

        *************************************************************
        *                                                           *
        *  Thank you very much for using Q-Chem.  Have a nice day.  *
        *                                                           *
        *************************************************************


0 sent ACK to 0 
now end server 0 ... 
