Process 0 of 1 is on cl015.stfx.acenet.ca - thread support 1
initial socket setup ...start
initial socket setup ...done 
now start server 0 ... 

cmd = /usr/bin/ssh clhead /usr/local/qchem/bin/get_hostid 1084264485 > /scratch/tmp/6065062.1.short.q/qchem28632/lic.dat
                  Welcome to Q-Chem
     A Quantum Leap Into The Future Of Chemistry

 Y. Shao, L. Fusti-Molnar, Y. Jung, J. Kussmann, C. Ochsenfeld,
 S. T. Brown, A. T. B. Gilbert, L. V. Slipchenko,S. V. Levchenko,
 D. P. O'Neill, R. A. DiStasio Jr., R. C. Lochan, T. Wang,
 G. J. O. Beran, N. A. Besley, J. M. Herbert, C. Y. Lin,
 T. Van Voorhis, S. H. Chien, A. Sodt, R. P. Steele, 
 V. A. Rassolov, P. E. Maslen, P. P. Korambath, R. D. Adamson,
 B. Austin, J. Baker, E. F. C. Byrd, H. Dachsel, R. J. Doerksen,
 A. Dreuw, B. D. Dunietz, A. D. Dutoi, T. R. Furlani,
 S. R. Gwaltney, A. Heyden, S. Hirata, C.-P. Hsu, G. Kedziora,
 R. Z. Khaliullin, P. Klunzinger, A. M. Lee, M. S. Lee, W. Liang,
 I. Lotan, N. Nair, B. Peters, E. I. Proynov, P. A. Pieniazek, 
 Y. M. Rhee, J. Ritchie, E. Rosta, C. D. Sherrill, 
 A. C. Simmonett, J. E. Subotnik, H. L. Woodcock III,
 W. Zhang, A. T. Bell, A. K. Chakraborty, D. M. Chipman,
 F. J. Keil, A. Warshel, W. J. Hehre, H. F. Schaefer III,
 J. Kong, A. I. Krylov, P. M. W. Gill, M. Head-Gordon,
 Q-Chem, Version 3.1, Q-Chem, Inc., Pittsburgh, PA (2007).

 Additional authors for Version 3.1: 
 Z. Gan, Y. Zhao, N. E. Schultz, D. Truhlar, E. Epifanovsky and M. Oana.

 Additional authors for Version 3.2: 
 R. Baer, B. R. Brooks, D. Casanova, J.-D. Chai, C.-L. Cheng, 
 C. Cramer, D. Crittenden, A. Ghysels, G. Hawkins, E. G. Hohenstein, 
 C. Kelley, W. Kurlancheek, D. Liotard, E. Livshits, P. Manohar, 
 A. Marenich, D. Neuhauser, R. Olson, M. A. Rohrdanz, K. S. Thanthiriwatte, 
 A. J. W. Thom, V. Vanovschi, C. F. Williams, Q. Wu and Z.-Q. You. 


 Intel X86 Linux Version

 Q-chem begins on Mon Jul  8 16:55:34 2013  

 Parallel job on  1  processors
Processing $rem in /usr/local/qchem/config/preferences.

theFileMan(): MAXOPENFILES=974 MAX_SUB_FILE_NUM=16
Maximum size of a physical file is 2.0 GB, maximum size of a tmp-file is 32.0 GB


--------------------------------------------------------------
User input:
--------------------------------------------------------------

$molecule
-1,2
O          0.00000        0.00000        0.01784
C          0.00000        0.00000        1.21038
H          0.93755        0.00000        1.79024
H         -0.93755        0.00000        1.79024
$end

$comment
negative
$end

$xc_functional
C PBE   1.00
X wPBE  1.00
$end

$rem
SYMMETRY_DECOMPOSITION	0
exchange 		general
LRC_DFT                 true
BASIS                   g3large
omega			550
mem_static              760
max_scf_cycles          200
scf_final_print         1
sym_ignore              true
$end

--------------------------------------------------------------
 Writing REM_CC_EA            4
 ----------------------------------------------------
       Standard Nuclear Orientation (Angstroms)
    I     Atom         X            Y            Z
 ----------------------------------------------------
    1      O       0.000000     0.000000     0.017840
    2      C       0.000000     0.000000     1.210380
    3      H       0.937550     0.000000     1.790240
    4      H      -0.937550     0.000000     1.790240
 ----------------------------------------------------
 Nuclear Repulsion Energy =    31.5647642976 hartrees
 There are        9 alpha and        8 beta electrons
 Requested basis set is G3large
 There are 32 shells and 104 basis functions

Total QAlloc Memory Limit   2000 MB
Mega-Array Size       743 MB
MEM_STATIC part       760 MB

                       Distance Matrix (Angstroms)
             O (  1)   C (  2)   H (  3)
   C (  2)  1.192540
   H (  3)  2.005094  1.102378
   H (  4)  2.005094  1.102378  1.875100
 
 A cutoff of  1.0D-08 yielded    524 shell pairs
 There are   5564 function pairs (  6951 Cartesian)
Evaluating contribution to one-electron hamiltonian from nuclear
 Smallest overlap matrix eigenvalue = 1.01E-03
 Multipole matrices computed through 2nd order

  Scale SEOQF with 1.000000e-01/1.000000e-01/1.000000e-01

 Standard Electronic Orientation quadrupole field applied
 Nucleus-field energy     =    -0.0000000016 hartrees
 Guess from superposition of atomic densities
 Warning:  Energy on first SCF cycle will be non-variational
 Long-range K will be added via erf
 Coulomb attenuation parameter = 0.55 bohr**(-1)
 An unrestricted Kohn-Sham SCF calculation will be
 performed using Pulay DIIS extrapolation
 Exchange:  wPBE + LR-HF      Correlation:  PBE
 Using SG-1 standard quadrature grid
 SCF converges when DIIS error is below 1.0E-05
 Requested basis set is G3large
 There are 32 shells and 104 basis functions
 A cutoff of  1.0D-08 yielded    524 shell pairs
 There are   5564 function pairs (  6951 Cartesian)
 Warning!  Inaccurate integrated density:
   Number of electrons =    17
   Numerical integral  =    16.000078266648
   Relative error      =    -5.8818925491 %
 ---------------------------------------
  Cycle       Energy         DIIS Error
 ---------------------------------------
    1    -114.7390291550      4.47E-02
    2    -114.2953191170      9.97E-03
    3    -114.3136223546      1.09E-02
    4    -114.4291755321      7.38E-04
    5    -114.4310173043      3.56E-04
    6    -114.4316846739      1.65E-04
    7    -114.4319797048      8.36E-05
    8    -114.4321702450      4.44E-05
    9    -114.4322268382      2.01E-05
   10    -114.4322356025      7.19E-06 Convergence criterion met
 ---------------------------------------
 One-Electron    Energy =  -222.8188392974
 Total Coulomb   Energy =    91.7401491517
 Alpha Exchange  Energy =    -2.2669982324
 Beta  Exchange  Energy =    -2.0548912047
 DFT   Exchange  Energy =   -10.0533636817
 DFT Correlation Energy =    -0.5430566340
 Nuclear Repu.   Energy =    31.5647642960
 Nuclear Attr.   Energy =  -337.1922117382
 Kinetic         Energy =   114.3733724409
 <S^2> = 0.7541
 SCF time:  CPU 27.32 s  wall 27.63 s
 Final Alpha MO Eigenvalues
            1           2           3           4           5           6
    1 -18.7357356  -9.9709220  -0.9733526  -0.5435650  -0.3844503  -0.3317276
            7           8           9          10          11          12
    1  -0.3060821  -0.1350725   0.0199607   0.1798759   0.1968851   0.2556542
           13          14
    1   0.2901527   0.3133360
 Final Beta MO Eigenvalues
            1           2           3           4           5           6
    1 -18.7276110  -9.9653881  -0.9576210  -0.5132636  -0.3791159  -0.3203053
            7           8           9          10          11          12
    1  -0.2370391  -0.1276998   0.1826739   0.1977239   0.2573483   0.2605647
           13
    1   0.3144979
 Analysis of SCF Wavefunction
 
 --------------------------------------------------------------
                    Orbital Energies (a.u.)
 --------------------------------------------------------------
 
 Alpha MOs
 -- Occupied --
-18.736  -9.971  -0.973  -0.544  -0.384  -0.332  -0.306  -0.135
  0.020
 -- Virtual --
  0.180   0.197   0.256   0.290   0.313   0.323   0.429   0.449
  0.487   0.493   0.555   0.571   0.693   0.806   0.834   0.876
  0.893   0.917   0.939   1.133   1.136   1.228   1.254   1.336
  1.366   1.372   1.450   1.476   1.478   1.620   1.740   1.799
  1.831   1.972   2.106   2.240   2.353   2.608   2.837   2.861
  2.946   3.069   3.309   3.338   3.423   3.426   3.468   3.529
  3.629   3.691   3.697   3.925   3.971   4.127   4.167   4.448
  4.512   4.546   4.547   4.947   5.339   5.407   5.474   5.511
  5.574   5.835   5.895   5.899   6.322   6.705   6.991   7.254
  7.285   7.327   7.602   7.783   8.021  24.868  27.562  28.403
 28.549  41.243  41.417  41.434  41.519  41.602  44.094  44.146
 44.240  44.317  44.350  46.090  46.172  46.898  50.435
 
 Beta MOs
 -- Occupied --
-18.728  -9.965  -0.958  -0.513  -0.379  -0.320  -0.237  -0.128
 -- Virtual --
  0.183   0.198   0.257   0.261   0.314   0.336   0.391   0.436
  0.452   0.490   0.512   0.556   0.574   0.700   0.823   0.837
  0.911   0.920   0.921   0.957   1.141   1.163   1.233   1.258
  1.340   1.379   1.386   1.452   1.483   1.502   1.625   1.747
  1.802   1.838   1.990   2.126   2.252   2.376   2.610   2.847
  2.866   2.958   3.101   3.326   3.360   3.426   3.444   3.483
  3.557   3.658   3.698   3.712   3.934   3.992   4.131   4.173
  4.446   4.516   4.556   4.556   4.949   5.344   5.444   5.488
  5.532   5.587   5.857   5.902   5.910   6.327   6.729   6.995
  7.288   7.311   7.341   7.633   7.790   8.035  24.874  27.578
 28.407  28.552  41.255  41.420  41.445  41.529  41.603  44.115
 44.167  44.260  44.319  44.359  46.113  46.177  46.904  50.443
 --------------------------------------------------------------
 
          Ground-State Mulliken Net Atomic Charges

     Atom                 Charge (a.u.)    Spin (a.u.)
  --------------------------------------------------------
      1 O                    -0.431325       0.184636
      2 C                    -0.567193       0.927570
      3 H                    -0.000743      -0.056102
      4 H                    -0.000739      -0.056104
  --------------------------------------------------------
  Sum of atomic charges =    -1.000000
  Sum of spin   charges =     1.000000

 -----------------------------------------------------------------
                    Cartesian Multipole Moments
 -----------------------------------------------------------------
    Charge (ESU x 10^10)
                -4.8032
    Dipole Moment (Debye)
         X       0.0000      Y      -0.0086      Z      -3.1138
       Tot       3.1138
    Quadrupole Moments (Debye-Ang)
        XX     -16.3997     XY       0.0060     YY     -20.5297
        XZ       0.0000     YZ      -0.0188     ZZ     -22.5123
    Octapole Moments (Debye-Ang^2)
       XXX       0.0002    XXY      -0.0255    XYY       0.0000
       YYY      -0.0604    XXZ     -14.4063    XYZ       0.0119
       YYZ     -21.7485    XZZ       0.0000    YZZ      -0.0538
       ZZZ     -52.5025
    Hexadecapole Moments (Debye-Ang^3)
      XXXX     -36.8320   XXXY       0.0335   XXYY     -16.9061
      XYYY       0.0304   YYYY     -63.4057   XXXZ       0.0004
      XXYZ      -0.0475   XYYZ       0.0001   YYYZ      -0.1161
      XXZZ     -32.3957   XYZZ       0.0325   YYZZ     -46.7397
      XZZZ       0.0002   YZZZ      -0.1725   ZZZZ    -162.5216
 -----------------------------------------------------------------
 Total job time:  27.78s(wall), 27.44s(cpu) 
 Mon Jul  8 16:56:02 2013

        *************************************************************
        *                                                           *
        *  Thank you very much for using Q-Chem.  Have a nice day.  *
        *                                                           *
        *************************************************************


0 sent ACK to 0 
now end server 0 ... 
 
**********************************************************************
Job 2 of 3 
**********************************************************************
 
Process 0 of 1 is on cl015.stfx.acenet.ca - thread support 1
initial socket setup ...start
initial socket setup ...done 
now start server 0 ... 

cmd = /usr/bin/ssh clhead /usr/local/qchem/bin/get_hostid 240917386 > /scratch/tmp/6065062.1.short.q/qchem28632/lic.dat
                  Welcome to Q-Chem
     A Quantum Leap Into The Future Of Chemistry

 Y. Shao, L. Fusti-Molnar, Y. Jung, J. Kussmann, C. Ochsenfeld,
 S. T. Brown, A. T. B. Gilbert, L. V. Slipchenko,S. V. Levchenko,
 D. P. O'Neill, R. A. DiStasio Jr., R. C. Lochan, T. Wang,
 G. J. O. Beran, N. A. Besley, J. M. Herbert, C. Y. Lin,
 T. Van Voorhis, S. H. Chien, A. Sodt, R. P. Steele, 
 V. A. Rassolov, P. E. Maslen, P. P. Korambath, R. D. Adamson,
 B. Austin, J. Baker, E. F. C. Byrd, H. Dachsel, R. J. Doerksen,
 A. Dreuw, B. D. Dunietz, A. D. Dutoi, T. R. Furlani,
 S. R. Gwaltney, A. Heyden, S. Hirata, C.-P. Hsu, G. Kedziora,
 R. Z. Khaliullin, P. Klunzinger, A. M. Lee, M. S. Lee, W. Liang,
 I. Lotan, N. Nair, B. Peters, E. I. Proynov, P. A. Pieniazek, 
 Y. M. Rhee, J. Ritchie, E. Rosta, C. D. Sherrill, 
 A. C. Simmonett, J. E. Subotnik, H. L. Woodcock III,
 W. Zhang, A. T. Bell, A. K. Chakraborty, D. M. Chipman,
 F. J. Keil, A. Warshel, W. J. Hehre, H. F. Schaefer III,
 J. Kong, A. I. Krylov, P. M. W. Gill, M. Head-Gordon,
 Q-Chem, Version 3.1, Q-Chem, Inc., Pittsburgh, PA (2007).

 Additional authors for Version 3.1: 
 Z. Gan, Y. Zhao, N. E. Schultz, D. Truhlar, E. Epifanovsky and M. Oana.

 Additional authors for Version 3.2: 
 R. Baer, B. R. Brooks, D. Casanova, J.-D. Chai, C.-L. Cheng, 
 C. Cramer, D. Crittenden, A. Ghysels, G. Hawkins, E. G. Hohenstein, 
 C. Kelley, W. Kurlancheek, D. Liotard, E. Livshits, P. Manohar, 
 A. Marenich, D. Neuhauser, R. Olson, M. A. Rohrdanz, K. S. Thanthiriwatte, 
 A. J. W. Thom, V. Vanovschi, C. F. Williams, Q. Wu and Z.-Q. You. 


 Intel X86 Linux Version

 Q-chem begins on Mon Jul  8 16:56:06 2013  

 Parallel job on  1  processors
Processing $rem in /usr/local/qchem/config/preferences.

theFileMan(): MAXOPENFILES=974 MAX_SUB_FILE_NUM=16
Maximum size of a physical file is 2.0 GB, maximum size of a tmp-file is 32.0 GB


--------------------------------------------------------------
User input:
--------------------------------------------------------------

$molecule
0,1
O          0.00000        0.00000        0.01784
C          0.00000        0.00000        1.21038
H          0.93755        0.00000        1.79024
H         -0.93755        0.00000        1.79024
$end

$comment
neutral
$end

$xc_functional
C PBE   1.00
X wPBE  1.00
$end


$rem
SYMMETRY_DECOMPOSITION	0
LRC_DFT                 true
exchange 		general
BASIS                   g3large
omega			550
mem_static              760
max_scf_cycles          200
scf_final_print         1
sym_ignore              true
$end

--------------------------------------------------------------
 Writing REM_CC_EA            4
 ----------------------------------------------------
       Standard Nuclear Orientation (Angstroms)
    I     Atom         X            Y            Z
 ----------------------------------------------------
    1      O       0.000000     0.000000     0.017840
    2      C       0.000000     0.000000     1.210380
    3      H       0.937550     0.000000     1.790240
    4      H      -0.937550     0.000000     1.790240
 ----------------------------------------------------
 Nuclear Repulsion Energy =    31.5647642976 hartrees
 There are        8 alpha and        8 beta electrons
 Requested basis set is G3large
 There are 32 shells and 104 basis functions

Total QAlloc Memory Limit   2000 MB
Mega-Array Size       743 MB
MEM_STATIC part       760 MB

                       Distance Matrix (Angstroms)
             O (  1)   C (  2)   H (  3)
   C (  2)  1.192540
   H (  3)  2.005094  1.102378
   H (  4)  2.005094  1.102378  1.875100
 
 A cutoff of  1.0D-08 yielded    524 shell pairs
 There are   5564 function pairs (  6951 Cartesian)
Evaluating contribution to one-electron hamiltonian from nuclear
 Smallest overlap matrix eigenvalue = 1.01E-03
 Multipole matrices computed through 2nd order

  Scale SEOQF with 1.000000e-01/1.000000e-01/1.000000e-01

 Standard Electronic Orientation quadrupole field applied
 Nucleus-field energy     =    -0.0000000016 hartrees
 Guess from superposition of atomic densities
 Warning:  Energy on first SCF cycle will be non-variational
 Long-range K will be added via erf
 Coulomb attenuation parameter = 0.55 bohr**(-1)
 A restricted Kohn-Sham SCF calculation will be
 performed using Pulay DIIS extrapolation
 Exchange:  wPBE + LR-HF      Correlation:  PBE
 Using SG-1 standard quadrature grid
 SCF converges when DIIS error is below 1.0E-05
 Requested basis set is G3large
 There are 32 shells and 104 basis functions
 A cutoff of  1.0D-08 yielded    524 shell pairs
 There are   5564 function pairs (  6951 Cartesian)
 ---------------------------------------
  Cycle       Energy         DIIS Error
 ---------------------------------------
    1    -114.7390291550      4.47E-02
    2    -114.3707713290      8.74E-03
    3    -114.3637173571      1.07E-02
    4    -114.4655218646      6.78E-04
    5    -114.4673008636      2.50E-04
    6    -114.4676872207      1.01E-04
    7    -114.4677822400      4.68E-05
    8    -114.4678019645      2.22E-05
    9    -114.4678085438      6.68E-06 Convergence criterion met
 ---------------------------------------
 One-Electron    Energy =  -218.1020208273
 Total Coulomb   Energy =    86.7263648645
 Alpha Exchange  Energy =    -2.0785726137
 Beta  Exchange  Energy =    -2.0785726137
 DFT   Exchange  Energy =    -9.9824051342
 DFT Correlation Energy =    -0.5173665155
 Nuclear Repu.   Energy =    31.5647642960
 Nuclear Attr.   Energy =  -332.2056438985
 Kinetic         Energy =   114.1036230711
 SCF time:  CPU 20.16 s  wall 20.69 s
 Final Alpha MO Eigenvalues
            1           2           3           4           5           6
    1 -19.0534982 -10.2887865  -1.2698496  -0.8211973  -0.6736679  -0.6187617
            7           8           9          10          11          12
    1  -0.5606701  -0.4199846   0.0401485   0.0489578   0.0640399   0.0960086
           13
    1   0.1270804
 Analysis of SCF Wavefunction
 
 --------------------------------------------------------------
                    Orbital Energies (a.u.)
 --------------------------------------------------------------
 
 Alpha MOs
 -- Occupied --
-19.053 -10.289  -1.270  -0.821  -0.674  -0.619  -0.561  -0.420
 -- Virtual --
  0.040   0.049   0.064   0.096   0.127   0.157   0.161   0.222
  0.268   0.279   0.305   0.362   0.372   0.465   0.568   0.588
  0.634   0.640   0.680   0.700   0.869   0.883   0.969   1.005
  1.092   1.111   1.120   1.206   1.224   1.226   1.359   1.478
  1.543   1.574   1.702   1.836   1.972   2.076   2.335   2.564
  2.588   2.669   2.775   3.018   3.046   3.130   3.138   3.177
  3.242   3.334   3.396   3.413   3.635   3.678   3.839   3.877
  4.168   4.227   4.248   4.261   4.662   5.052   5.117   5.187
  5.222   5.283   5.539   5.603   5.611   6.033   6.407   6.695
  6.962   6.993   7.032   7.310   7.491   7.727  24.553  27.247
 28.088  28.232  40.926  41.100  41.117  41.201  41.284  43.783
 43.834  43.926  44.002  44.035  45.776  45.857  46.582  50.120
 --------------------------------------------------------------
 
          Ground-State Mulliken Net Atomic Charges

     Atom                 Charge (a.u.)
  ----------------------------------------
      1 O                    -0.253166
      2 C                     0.112776
      3 H                     0.070191
      4 H                     0.070200
  ----------------------------------------
  Sum of atomic charges =     0.000000

 -----------------------------------------------------------------
                    Cartesian Multipole Moments
 -----------------------------------------------------------------
    Charge (ESU x 10^10)
                 0.0000
    Dipole Moment (Debye)
         X       0.0000      Y       0.0000      Z       2.6152
       Tot       2.6152
    Quadrupole Moments (Debye-Ang)
        XX     -11.3818     XY      -0.0001     YY     -11.5881
        XZ       0.0000     YZ      -0.0001     ZZ      -8.4952
    Octapole Moments (Debye-Ang^2)
       XXX       0.0000    XXY       0.0000    XYY       0.0000
       YYY       0.0000    XXZ      -6.9315    XYZ      -0.0001
       YYZ      -8.4814    XZZ      -0.0001    YZZ      -0.0002
       ZZZ     -21.1688
    Hexadecapole Moments (Debye-Ang^3)
      XXXX     -17.6451   XXXY      -0.0001   XXYY      -5.0139
      XYYY      -0.0001   YYYY     -10.0848   XXXZ      -0.0001
      XXYZ       0.0000   XYYZ       0.0000   YYYZ      -0.0001
      XXZZ     -14.0400   XYZZ      -0.0002   YYZZ     -15.3123
      XZZZ      -0.0002   YZZZ      -0.0004   ZZZZ     -75.5876
 -----------------------------------------------------------------
 Total job time:  20.81s(wall), 20.27s(cpu) 
 Mon Jul  8 16:56:26 2013

        *************************************************************
        *                                                           *
        *  Thank you very much for using Q-Chem.  Have a nice day.  *
        *                                                           *
        *************************************************************


0 sent ACK to 0 
now end server 0 ... 
 
**********************************************************************
Job 3 of 3 
**********************************************************************
 
Process 0 of 1 is on cl015.stfx.acenet.ca - thread support 1
initial socket setup ...start
initial socket setup ...done 
now start server 0 ... 

cmd = /usr/bin/ssh clhead /usr/local/qchem/bin/get_hostid 1540547750 > /scratch/tmp/6065062.1.short.q/qchem28632/lic.dat
                  Welcome to Q-Chem
     A Quantum Leap Into The Future Of Chemistry

 Y. Shao, L. Fusti-Molnar, Y. Jung, J. Kussmann, C. Ochsenfeld,
 S. T. Brown, A. T. B. Gilbert, L. V. Slipchenko,S. V. Levchenko,
 D. P. O'Neill, R. A. DiStasio Jr., R. C. Lochan, T. Wang,
 G. J. O. Beran, N. A. Besley, J. M. Herbert, C. Y. Lin,
 T. Van Voorhis, S. H. Chien, A. Sodt, R. P. Steele, 
 V. A. Rassolov, P. E. Maslen, P. P. Korambath, R. D. Adamson,
 B. Austin, J. Baker, E. F. C. Byrd, H. Dachsel, R. J. Doerksen,
 A. Dreuw, B. D. Dunietz, A. D. Dutoi, T. R. Furlani,
 S. R. Gwaltney, A. Heyden, S. Hirata, C.-P. Hsu, G. Kedziora,
 R. Z. Khaliullin, P. Klunzinger, A. M. Lee, M. S. Lee, W. Liang,
 I. Lotan, N. Nair, B. Peters, E. I. Proynov, P. A. Pieniazek, 
 Y. M. Rhee, J. Ritchie, E. Rosta, C. D. Sherrill, 
 A. C. Simmonett, J. E. Subotnik, H. L. Woodcock III,
 W. Zhang, A. T. Bell, A. K. Chakraborty, D. M. Chipman,
 F. J. Keil, A. Warshel, W. J. Hehre, H. F. Schaefer III,
 J. Kong, A. I. Krylov, P. M. W. Gill, M. Head-Gordon,
 Q-Chem, Version 3.1, Q-Chem, Inc., Pittsburgh, PA (2007).

 Additional authors for Version 3.1: 
 Z. Gan, Y. Zhao, N. E. Schultz, D. Truhlar, E. Epifanovsky and M. Oana.

 Additional authors for Version 3.2: 
 R. Baer, B. R. Brooks, D. Casanova, J.-D. Chai, C.-L. Cheng, 
 C. Cramer, D. Crittenden, A. Ghysels, G. Hawkins, E. G. Hohenstein, 
 C. Kelley, W. Kurlancheek, D. Liotard, E. Livshits, P. Manohar, 
 A. Marenich, D. Neuhauser, R. Olson, M. A. Rohrdanz, K. S. Thanthiriwatte, 
 A. J. W. Thom, V. Vanovschi, C. F. Williams, Q. Wu and Z.-Q. You. 


 Intel X86 Linux Version

 Q-chem begins on Mon Jul  8 16:56:29 2013  

 Parallel job on  1  processors
Processing $rem in /usr/local/qchem/config/preferences.

theFileMan(): MAXOPENFILES=974 MAX_SUB_FILE_NUM=16
Maximum size of a physical file is 2.0 GB, maximum size of a tmp-file is 32.0 GB


--------------------------------------------------------------
User input:
--------------------------------------------------------------

$molecule
1,2
O          0.00000        0.00000        0.01784
C          0.00000        0.00000        1.21038
H          0.93755        0.00000        1.79024
H         -0.93755        0.00000        1.79024
$end

$comment
positive
$end

$xc_functional
C PBE   1.00
X wPBE  1.00
$end

$rem
SYMMETRY_DECOMPOSITION	0
LRC_DFT                 true
exchange 		general
BASIS                   g3large
omega			550
mem_static              760
max_scf_cycles          200
scf_final_print         1
sym_ignore              true
$end

--------------------------------------------------------------
 Writing REM_CC_EA            4
 ----------------------------------------------------
       Standard Nuclear Orientation (Angstroms)
    I     Atom         X            Y            Z
 ----------------------------------------------------
    1      O       0.000000     0.000000     0.017840
    2      C       0.000000     0.000000     1.210380
    3      H       0.937550     0.000000     1.790240
    4      H      -0.937550     0.000000     1.790240
 ----------------------------------------------------
 Nuclear Repulsion Energy =    31.5647642976 hartrees
 There are        8 alpha and        7 beta electrons
 Requested basis set is G3large
 There are 32 shells and 104 basis functions

Total QAlloc Memory Limit   2000 MB
Mega-Array Size       743 MB
MEM_STATIC part       760 MB

                       Distance Matrix (Angstroms)
             O (  1)   C (  2)   H (  3)
   C (  2)  1.192540
   H (  3)  2.005094  1.102378
   H (  4)  2.005094  1.102378  1.875100
 
 A cutoff of  1.0D-08 yielded    524 shell pairs
 There are   5564 function pairs (  6951 Cartesian)
Evaluating contribution to one-electron hamiltonian from nuclear
 Smallest overlap matrix eigenvalue = 1.01E-03
 Multipole matrices computed through 2nd order

  Scale SEOQF with 1.000000e-01/1.000000e-01/1.000000e-01

 Standard Electronic Orientation quadrupole field applied
 Nucleus-field energy     =    -0.0000000016 hartrees
 Guess from superposition of atomic densities
 Warning:  Energy on first SCF cycle will be non-variational
 Long-range K will be added via erf
 Coulomb attenuation parameter = 0.55 bohr**(-1)
 An unrestricted Kohn-Sham SCF calculation will be
 performed using Pulay DIIS extrapolation
 Exchange:  wPBE + LR-HF      Correlation:  PBE
 Using SG-1 standard quadrature grid
 SCF converges when DIIS error is below 1.0E-05
 Requested basis set is G3large
 There are 32 shells and 104 basis functions
 A cutoff of  1.0D-08 yielded    524 shell pairs
 There are   5564 function pairs (  6951 Cartesian)
 Warning!  Inaccurate integrated density:
   Number of electrons =    15
   Numerical integral  =    16.000078266648
   Relative error      =     6.6671884443 %
 ---------------------------------------
  Cycle       Energy         DIIS Error
 ---------------------------------------
    1    -114.7390291550      4.47E-02
    2    -113.9633340486      6.51E-03
    3    -114.0186973675      6.02E-03
    4    -114.0555138498      1.35E-03
    5    -114.0601971929      5.85E-04
    6    -114.0624421325      2.37E-04
    7    -114.0635343564      9.72E-05
    8    -114.0637388135      3.12E-05
    9    -114.0637678233      1.45E-05
   10    -114.0637745162      7.96E-06 Convergence criterion met
 ---------------------------------------
 One-Electron    Energy =  -212.0000561682
 Total Coulomb   Energy =    80.6621754728
 Alpha Exchange  Energy =    -2.1156420890
 Beta  Exchange  Energy =    -1.8279252777
 DFT   Exchange  Energy =    -9.8683832927
 DFT Correlation Energy =    -0.4787074573
 Nuclear Repu.   Energy =    31.5647642960
 Nuclear Attr.   Energy =  -325.7417038945
 Kinetic         Energy =   113.7416477262
 <S^2> = 0.7617
 SCF time:  CPU 26.46 s  wall 27.15 s
 Final Alpha MO Eigenvalues
            1           2           3           4           5           6
    1 -19.5203086 -10.6463231  -1.6968377  -1.1780828  -1.0719106  -1.0136973
            7           8           9          10          11          12
    1  -0.9573410  -0.8480595  -0.2704386  -0.1292275  -0.0930966  -0.0921113
           13
    1  -0.0647374
 Final Beta MO Eigenvalues
            1           2           3           4           5           6
    1 -19.4978649 -10.6484925  -1.6476088  -1.1467206  -0.9875729  -0.9767175
            7           8           9          10          11          12
    1  -0.9339695  -0.3860362  -0.2675157  -0.1275164  -0.0910497  -0.0902951
 Analysis of SCF Wavefunction
 
 --------------------------------------------------------------
                    Orbital Energies (a.u.)
 --------------------------------------------------------------
 
 Alpha MOs
 -- Occupied --
-19.520 -10.646  -1.697  -1.178  -1.072  -1.014  -0.957  -0.848
 -- Virtual --
 -0.270  -0.129  -0.093  -0.092  -0.065  -0.025  -0.015   0.003
  0.043   0.052   0.085   0.115   0.158   0.207   0.297   0.298
  0.337   0.360   0.418   0.430   0.565   0.581   0.657   0.720
  0.797   0.804   0.832   0.888   0.907   0.925   1.014   1.154
  1.244   1.276   1.350   1.458   1.612   1.721   1.962   2.217
  2.258   2.336   2.441   2.672   2.708   2.788   2.795   2.842
  2.901   2.996   3.045   3.048   3.291   3.323   3.476   3.521
  3.824   3.876   3.882   3.913   4.284   4.666   4.703   4.725
  4.784   4.852   5.151   5.183   5.257   5.622   6.011   6.266
  6.486   6.518   6.629   6.900   7.029   7.304  24.196  26.891
 27.731  27.874  40.568  40.741  40.759  40.842  40.927  43.294
 43.348  43.478  43.514  43.574  45.321  45.364  46.126  49.657
 
 Beta MOs
 -- Occupied --
-19.498 -10.648  -1.648  -1.147  -0.988  -0.977  -0.934
 -- Virtual --
 -0.386  -0.268  -0.128  -0.091  -0.090  -0.066  -0.019  -0.010
  0.007   0.053   0.061   0.087   0.120   0.166   0.213   0.311
  0.324   0.344   0.357   0.421   0.433   0.567   0.584   0.667
  0.732   0.802   0.817   0.839   0.919   0.919   0.937   1.055
  1.170   1.250   1.288   1.377   1.503   1.650   1.728   1.998
  2.229   2.275   2.352   2.435   2.683   2.709   2.786   2.808
  2.843   2.899   2.988   3.039   3.070   3.295   3.323   3.494
  3.532   3.850   3.888   3.907   3.937   4.325   4.702   4.733
  4.814   4.848   4.916   5.164   5.224   5.279   5.669   6.022
  6.316   6.584   6.620   6.648   6.919   7.109   7.337  24.195
 26.887  27.730  27.871  40.565  40.739  40.757  40.839  40.925
 43.354  43.405  43.487  43.568  43.597  45.338  45.428  46.140
 49.679
 --------------------------------------------------------------
 
          Ground-State Mulliken Net Atomic Charges

     Atom                 Charge (a.u.)    Spin (a.u.)
  --------------------------------------------------------
      1 O                     0.271945       0.870050
      2 C                     0.258637      -0.112971
      3 H                     0.234709       0.121452
      4 H                     0.234709       0.121469
  --------------------------------------------------------
  Sum of atomic charges =     1.000000
  Sum of spin   charges =     1.000000

 -----------------------------------------------------------------
                    Cartesian Multipole Moments
 -----------------------------------------------------------------
    Charge (ESU x 10^10)
                 4.8032
    Dipole Moment (Debye)
         X       0.0000      Y       0.0000      Z       6.4363
       Tot       6.4363
    Quadrupole Moments (Debye-Ang)
        XX      -7.0684     XY       0.0003     YY      -9.6304
        XZ       0.0000     YZ       0.0001     ZZ       0.5326
    Octapole Moments (Debye-Ang^2)
       XXX       0.0000    XXY       0.0000    XYY       0.0000
       YYY       0.0000    XXZ      -2.1132    XYZ      -0.0020
       YYZ      -6.7203    XZZ      -0.0001    YZZ       0.0001
       ZZZ      -3.6803
    Hexadecapole Moments (Debye-Ang^3)
      XXXX      -9.0185   XXXY      -0.0003   XXYY      -3.3147
      XYYY      -0.0001   YYYY      -6.9498   XXXZ       0.0000
      XXYZ       0.0000   XYYZ       0.0000   YYYZ       0.0001
      XXZZ      -3.0772   XYZZ      -0.0032   YYZZ     -11.4376
      XZZZ      -0.0002   YZZZ       0.0003   ZZZZ     -33.8353
 -----------------------------------------------------------------
 Total job time:  27.27s(wall), 26.58s(cpu) 
 Mon Jul  8 16:56:57 2013

        *************************************************************
        *                                                           *
        *  Thank you very much for using Q-Chem.  Have a nice day.  *
        *                                                           *
        *************************************************************


0 sent ACK to 0 
now end server 0 ... 
