Process 0 of 1 is on cl122 - thread support 1
initial socket setup ...start
initial socket setup ...done 
now start server 0 ... 

cmd = /usr/bin/ssh clhead /usr/local/qchem/bin/get_hostid 1110296781 > /tmp/1601985.1.medium.q/qchem7916/lic.dat

cmd = /usr/bin/ssh clhead /usr/local/qchem/bin/get_hostid 1110296781 > /tmp/1601985.1.medium.q/qchem7916/lic.dat

cmd = /usr/bin/ssh clhead /usr/local/qchem/bin/get_hostid 1110296781 > /tmp/1601985.1.medium.q/qchem7916/lic.dat

cmd = /usr/bin/ssh clhead /usr/local/qchem/bin/get_hostid 1110296781 > /tmp/1601985.1.medium.q/qchem7916/lic.dat

cmd = /usr/bin/ssh clhead /usr/local/qchem/bin/get_hostid 1110296781 > /tmp/1601985.1.medium.q/qchem7916/lic.dat
                  Welcome to Q-Chem
     A Quantum Leap Into The Future Of Chemistry

 Y. Shao, L. Fusti-Molnar, Y. Jung, J. Kussmann, C. Ochsenfeld,
 S. T. Brown, A. T. B. Gilbert, L. V. Slipchenko,S. V. Levchenko,
 D. P. O'Neill, R. A. DiStasio Jr., R. C. Lochan, T. Wang,
 G. J. O. Beran, N. A. Besley, J. M. Herbert, C. Y. Lin,
 T. Van Voorhis, S. H. Chien, A. Sodt, R. P. Steele, 
 V. A. Rassolov, P. E. Maslen, P. P. Korambath, R. D. Adamson,
 B. Austin, J. Baker, E. F. C. Byrd, H. Dachsel, R. J. Doerksen,
 A. Dreuw, B. D. Dunietz, A. D. Dutoi, T. R. Furlani,
 S. R. Gwaltney, A. Heyden, S. Hirata, C.-P. Hsu, G. Kedziora,
 R. Z. Khaliullin, P. Klunzinger, A. M. Lee, M. S. Lee, W. Liang,
 I. Lotan, N. Nair, B. Peters, E. I. Proynov, P. A. Pieniazek, 
 Y. M. Rhee, J. Ritchie, E. Rosta, C. D. Sherrill, 
 A. C. Simmonett, J. E. Subotnik, H. L. Woodcock III,
 W. Zhang, A. T. Bell, A. K. Chakraborty, D. M. Chipman,
 F. J. Keil, A. Warshel, W. J. Hehre, H. F. Schaefer III,
 J. Kong, A. I. Krylov, P. M. W. Gill, M. Head-Gordon,
 Q-Chem, Version 3.1, Q-Chem, Inc., Pittsburgh, PA (2007).

 Additional authors for Version 3.1: 
 Z. Gan, Y. Zhao, N. E. Schultz, D. Truhlar, E. Epifanovsky and M. Oana.

 Additional authors for Version 3.2: 
 R. Baer, B. R. Brooks, D. Casanova, J.-D. Chai, C.-L. Cheng, 
 C. Cramer, D. Crittenden, A. Ghysels, G. Hawkins, E. G. Hohenstein, 
 C. Kelley, W. Kurlancheek, D. Liotard, E. Livshits, P. Manohar, 
 A. Marenich, D. Neuhauser, R. Olson, M. A. Rohrdanz, K. S. Thanthiriwatte, 
 A. J. W. Thom, V. Vanovschi, C. F. Williams, Q. Wu and Z.-Q. You. 


 Intel X86 Linux Version

 Q-chem begins on Thu Mar 20 03:47:12 2014  

 Parallel job on  1  processors
Processing $rem in /usr/local/qchem/config/preferences.

theFileMan(): MAXOPENFILES=974 MAX_SUB_FILE_NUM=16
Maximum size of a physical file is 2.0 GB, maximum size of a tmp-file is 32.0 GB


--------------------------------------------------------------
User input:
--------------------------------------------------------------

$molecule
-1,1
C         -0.00021        0.00000       -0.00126
C          0.00790        0.00000        1.29852
H          0.92825        0.00000       -0.57678
H         -0.92556        0.00000       -0.57359
H          0.72731        0.00000        2.10602
$end

$comment
negative
$end

$xc_functional
C PBE   1.00
X wPBE  1.00
$end

$rem
SYMMETRY_DECOMPOSITION	0
exchange 		general
LRC_DFT                 true
BASIS                   g3large
omega			160
mem_static              760
max_scf_cycles          200
scf_final_print         1
sym_ignore              true
$end

--------------------------------------------------------------
 Writing REM_CC_EA            5
 ----------------------------------------------------
       Standard Nuclear Orientation (Angstroms)
    I     Atom         X            Y            Z
 ----------------------------------------------------
    1      C      -0.000210     0.000000    -0.001260
    2      C       0.007900     0.000000     1.298520
    3      H       0.928250     0.000000    -0.576780
    4      H      -0.925560     0.000000    -0.573590
    5      H       0.727310     0.000000     2.106020
 ----------------------------------------------------
 Nuclear Repulsion Energy =    28.5290576325 hartrees
 There are        8 alpha and        8 beta electrons
 Requested basis set is G3large
 There are 38 shells and 114 basis functions

Total QAlloc Memory Limit   2000 MB
Mega-Array Size       743 MB
MEM_STATIC part       760 MB

                       Distance Matrix (Angstroms)
             C (  1)   C (  2)   H (  3)   H (  4)
   C (  2)  1.299805
   H (  3)  1.092365  2.088970
   H (  4)  1.088041  2.091923  1.853813
   H (  5)  2.229330  1.081484  2.690315  3.148379
 
 A cutoff of  1.0D-08 yielded    732 shell pairs
 There are   6640 function pairs (  8147 Cartesian)
Evaluating contribution to one-electron hamiltonian from nuclear
 Smallest overlap matrix eigenvalue = 1.14E-04
 Multipole matrices computed through 2nd order

  Scale SEOQF with 1.000000e-01/1.000000e-01/1.000000e-01

 Standard Electronic Orientation quadrupole field applied
 Nucleus-field energy     =    -0.0000000015 hartrees
 Guess from superposition of atomic densities
 Warning:  Energy on first SCF cycle will be non-variational
 Long-range K will be added via erf
 Coulomb attenuation parameter = 0.16 bohr**(-1)
 A restricted Kohn-Sham SCF calculation will be
 performed using Pulay DIIS extrapolation
 Exchange:  wPBE + LR-HF      Correlation:  PBE
 Using SG-1 standard quadrature grid
 SCF converges when DIIS error is below 1.0E-05
 Requested basis set is G3large
 There are 38 shells and 114 basis functions
 A cutoff of  1.0D-08 yielded    732 shell pairs
 There are   6640 function pairs (  8147 Cartesian)
 Warning!  Inaccurate integrated density:
   Number of electrons =    16
   Numerical integral  =    14.999943441296
   Relative error      =    -6.2503534919 %
 ---------------------------------------
  Cycle       Energy         DIIS Error
 ---------------------------------------
    1     -78.0157920343      3.68E-02
    2     -77.6324249156      9.75E-03
    3     -76.8889411803      1.67E-02
    4     -77.7770213754      5.15E-03
    5     -77.8240123712      2.00E-03
    6     -77.8349843844      3.03E-04
    7     -77.8353334308      1.62E-04
    8     -77.8353932206      8.53E-05
    9     -77.8354098415      2.64E-05
   10     -77.8354118862      5.73E-06 Convergence criterion met
 ---------------------------------------
 One-Electron    Energy =  -163.7886814740
 Total Coulomb   Energy =    69.4161503439
 Alpha Exchange  Energy =    -0.6948380364
 Beta  Exchange  Energy =    -0.6948380364
 DFT   Exchange  Energy =   -10.1169368378
 DFT Correlation Energy =    -0.4853254764
 Nuclear Repu.   Energy =    28.5290576310
 Nuclear Attr.   Energy =  -241.4706011013
 Kinetic         Energy =    77.6819196273
 SCF time:  CPU 25.97 s  wall 27.49 s
 Final Alpha MO Eigenvalues
            1           2           3           4           5           6
    1  -9.7361133  -9.7018709  -0.5307585  -0.3524031  -0.2522077  -0.2210071
            7           8           9          10          11          12
    1  -0.0937455   0.0243895   0.1706204   0.1778087   0.1826604   0.2467397
           13
    1   0.2681412
 Analysis of SCF Wavefunction
 
 --------------------------------------------------------------
                    Orbital Energies (a.u.)
 --------------------------------------------------------------
 
 Alpha MOs
 -- Occupied --
 -9.736  -9.702  -0.531  -0.352  -0.252  -0.221  -0.094   0.024
 -- Virtual --
  0.171   0.178   0.183   0.247   0.268   0.270   0.287   0.326
  0.326   0.343   0.346   0.354   0.385   0.407   0.501   0.601
  0.688   0.713   0.740   0.772   0.783   0.809   0.849   0.859
  0.866   0.898   0.917   0.928   1.005   1.009   1.051   1.157
  1.197   1.229   1.302   1.366   1.421   1.455   1.571   1.597
  1.635   1.665   1.717   1.743   1.777   1.955   2.651   2.699
  2.860   2.889   2.899   2.920   2.987   3.002   3.048   3.104
  3.118   3.184   3.295   3.309   3.352   3.373   3.420   3.452
  3.454   3.538   3.543   3.603   3.642   3.726   3.837   3.936
  3.939   3.993   4.145   4.339   4.358   4.409   4.548   4.655
  4.701   4.838   5.035   5.351   5.489   5.632   5.776   6.371
 23.870  24.866  27.348  27.546  27.705  28.250  28.402  28.528
 40.954  41.020  41.060  41.250  41.254  41.293  41.370  41.403
 41.447  41.468
 --------------------------------------------------------------
 
          Ground-State Mulliken Net Atomic Charges

     Atom                 Charge (a.u.)
  ----------------------------------------
      1 C                    -0.734991
      2 C                    -0.190365
      3 H                    -0.172970
      4 H                     0.052505
      5 H                     0.045820
  ----------------------------------------
  Sum of atomic charges =    -1.000000

 -----------------------------------------------------------------
                    Cartesian Multipole Moments
 -----------------------------------------------------------------
    Charge (ESU x 10^10)
                -4.8032
    Dipole Moment (Debye)
         X       1.7104      Y       0.0008      Z      -5.1506
       Tot       5.4272
    Quadrupole Moments (Debye-Ang)
        XX     -22.1004     XY      -0.0030     YY     -20.2183
        XZ       6.2533     YZ       0.0041     ZZ     -29.0443
    Octapole Moments (Debye-Ang^2)
       XXX       2.2686    XXY       0.0009    XYY       1.2772
       YYY       0.0036    XXZ     -18.2846    XYZ      -0.0043
       YYZ     -13.7447    XZZ      10.5799    YZZ       0.0079
       ZZZ     -55.5162
    Hexadecapole Moments (Debye-Ang^3)
      XXXX     -74.7846   XXXY      -0.0114   XXYY     -19.7307
      XYYY      -0.0109   YYYY     -43.0277   XXXZ      19.0965
      XXYZ       0.0064   XYYZ       6.2010   YYYZ       0.0200
      XXZZ     -57.1538   XYZZ      -0.0154   YYZZ     -39.5254
      XZZZ      38.4895   YZZZ       0.0338   ZZZZ    -217.9282
 -----------------------------------------------------------------
 Total job time:  27.66s(wall), 26.08s(cpu) 
 Thu Mar 20 03:47:40 2014

        *************************************************************
        *                                                           *
        *  Thank you very much for using Q-Chem.  Have a nice day.  *
        *                                                           *
        *************************************************************


0 sent ACK to 0 
now end server 0 ... 
 
**********************************************************************
Job 2 of 3 
**********************************************************************
 
Process 0 of 1 is on cl122 - thread support 1
initial socket setup ...start
initial socket setup ...done 
now start server 0 ... 

cmd = /usr/bin/ssh clhead /usr/local/qchem/bin/get_hostid 2109692892 > /tmp/1601985.1.medium.q/qchem7916/lic.dat

cmd = /usr/bin/ssh clhead /usr/local/qchem/bin/get_hostid 2109692892 > /tmp/1601985.1.medium.q/qchem7916/lic.dat

cmd = /usr/bin/ssh clhead /usr/local/qchem/bin/get_hostid 2109692892 > /tmp/1601985.1.medium.q/qchem7916/lic.dat

cmd = /usr/bin/ssh clhead /usr/local/qchem/bin/get_hostid 2109692892 > /tmp/1601985.1.medium.q/qchem7916/lic.dat

cmd = /usr/bin/ssh clhead /usr/local/qchem/bin/get_hostid 2109692892 > /tmp/1601985.1.medium.q/qchem7916/lic.dat
                  Welcome to Q-Chem
     A Quantum Leap Into The Future Of Chemistry

 Y. Shao, L. Fusti-Molnar, Y. Jung, J. Kussmann, C. Ochsenfeld,
 S. T. Brown, A. T. B. Gilbert, L. V. Slipchenko,S. V. Levchenko,
 D. P. O'Neill, R. A. DiStasio Jr., R. C. Lochan, T. Wang,
 G. J. O. Beran, N. A. Besley, J. M. Herbert, C. Y. Lin,
 T. Van Voorhis, S. H. Chien, A. Sodt, R. P. Steele, 
 V. A. Rassolov, P. E. Maslen, P. P. Korambath, R. D. Adamson,
 B. Austin, J. Baker, E. F. C. Byrd, H. Dachsel, R. J. Doerksen,
 A. Dreuw, B. D. Dunietz, A. D. Dutoi, T. R. Furlani,
 S. R. Gwaltney, A. Heyden, S. Hirata, C.-P. Hsu, G. Kedziora,
 R. Z. Khaliullin, P. Klunzinger, A. M. Lee, M. S. Lee, W. Liang,
 I. Lotan, N. Nair, B. Peters, E. I. Proynov, P. A. Pieniazek, 
 Y. M. Rhee, J. Ritchie, E. Rosta, C. D. Sherrill, 
 A. C. Simmonett, J. E. Subotnik, H. L. Woodcock III,
 W. Zhang, A. T. Bell, A. K. Chakraborty, D. M. Chipman,
 F. J. Keil, A. Warshel, W. J. Hehre, H. F. Schaefer III,
 J. Kong, A. I. Krylov, P. M. W. Gill, M. Head-Gordon,
 Q-Chem, Version 3.1, Q-Chem, Inc., Pittsburgh, PA (2007).

 Additional authors for Version 3.1: 
 Z. Gan, Y. Zhao, N. E. Schultz, D. Truhlar, E. Epifanovsky and M. Oana.

 Additional authors for Version 3.2: 
 R. Baer, B. R. Brooks, D. Casanova, J.-D. Chai, C.-L. Cheng, 
 C. Cramer, D. Crittenden, A. Ghysels, G. Hawkins, E. G. Hohenstein, 
 C. Kelley, W. Kurlancheek, D. Liotard, E. Livshits, P. Manohar, 
 A. Marenich, D. Neuhauser, R. Olson, M. A. Rohrdanz, K. S. Thanthiriwatte, 
 A. J. W. Thom, V. Vanovschi, C. F. Williams, Q. Wu and Z.-Q. You. 


 Intel X86 Linux Version

 Q-chem begins on Thu Mar 20 03:47:44 2014  

 Parallel job on  1  processors
Processing $rem in /usr/local/qchem/config/preferences.

theFileMan(): MAXOPENFILES=974 MAX_SUB_FILE_NUM=16
Maximum size of a physical file is 2.0 GB, maximum size of a tmp-file is 32.0 GB


--------------------------------------------------------------
User input:
--------------------------------------------------------------

$molecule
0,2
C         -0.00021        0.00000       -0.00126
C          0.00790        0.00000        1.29852
H          0.92825        0.00000       -0.57678
H         -0.92556        0.00000       -0.57359
H          0.72731        0.00000        2.10602
$end

$comment
neutral
$end

$xc_functional
C PBE   1.00
X wPBE  1.00
$end


$rem
SYMMETRY_DECOMPOSITION	0
LRC_DFT                 true
exchange 		general
BASIS                   g3large
omega			160
mem_static              760
max_scf_cycles          200
scf_final_print         1
sym_ignore              true
$end

--------------------------------------------------------------
 Writing REM_CC_EA            5
 ----------------------------------------------------
       Standard Nuclear Orientation (Angstroms)
    I     Atom         X            Y            Z
 ----------------------------------------------------
    1      C      -0.000210     0.000000    -0.001260
    2      C       0.007900     0.000000     1.298520
    3      H       0.928250     0.000000    -0.576780
    4      H      -0.925560     0.000000    -0.573590
    5      H       0.727310     0.000000     2.106020
 ----------------------------------------------------
 Nuclear Repulsion Energy =    28.5290576325 hartrees
 There are        8 alpha and        7 beta electrons
 Requested basis set is G3large
 There are 38 shells and 114 basis functions

Total QAlloc Memory Limit   2000 MB
Mega-Array Size       743 MB
MEM_STATIC part       760 MB

                       Distance Matrix (Angstroms)
             C (  1)   C (  2)   H (  3)   H (  4)
   C (  2)  1.299805
   H (  3)  1.092365  2.088970
   H (  4)  1.088041  2.091923  1.853813
   H (  5)  2.229330  1.081484  2.690315  3.148379
 
 A cutoff of  1.0D-08 yielded    732 shell pairs
 There are   6640 function pairs (  8147 Cartesian)
Evaluating contribution to one-electron hamiltonian from nuclear
 Smallest overlap matrix eigenvalue = 1.14E-04
 Multipole matrices computed through 2nd order

  Scale SEOQF with 1.000000e-01/1.000000e-01/1.000000e-01

 Standard Electronic Orientation quadrupole field applied
 Nucleus-field energy     =    -0.0000000015 hartrees
 Guess from superposition of atomic densities
 Warning:  Energy on first SCF cycle will be non-variational
 Long-range K will be added via erf
 Coulomb attenuation parameter = 0.16 bohr**(-1)
 An unrestricted Kohn-Sham SCF calculation will be
 performed using Pulay DIIS extrapolation
 Exchange:  wPBE + LR-HF      Correlation:  PBE
 Using SG-1 standard quadrature grid
 SCF converges when DIIS error is below 1.0E-05
 Requested basis set is G3large
 There are 38 shells and 114 basis functions
 A cutoff of  1.0D-08 yielded    732 shell pairs
 There are   6640 function pairs (  8147 Cartesian)
 ---------------------------------------
  Cycle       Energy         DIIS Error
 ---------------------------------------
    1     -78.0157920343      3.68E-02
    2     -77.7831727751      4.95E-03
    3     -77.8015294918      4.16E-03
    4     -77.8304989853      5.14E-04
    5     -77.8311396606      3.71E-04
    6     -77.8316037734      5.53E-05
    7     -77.8317196719      1.67E-05
    8     -77.8317445329      6.64E-06 Convergence criterion met
 ---------------------------------------
 One-Electron    Energy =  -159.9561578211
 Total Coulomb   Energy =    65.3861461474
 Alpha Exchange  Energy =    -0.7006763101
 Beta  Exchange  Energy =    -0.6136400469
 DFT   Exchange  Energy =   -10.0210336193
 DFT Correlation Energy =    -0.4554405138
 Nuclear Repu.   Energy =    28.5290576310
 Nuclear Attr.   Energy =  -237.5057689929
 Kinetic         Energy =    77.5496111718
 <S^2> = 0.7579
 SCF time:  CPU 24.25 s  wall 25.55 s
 Final Alpha MO Eigenvalues
            1           2           3           4           5           6
    1  -9.9997754  -9.9782186  -0.7936732  -0.6115278  -0.5057823  -0.4742482
            7           8           9          10          11          12
    1  -0.3452304  -0.2835741   0.0347973   0.0367374   0.0500096   0.0587773
           13
    1   0.1084212
 Final Beta MO Eigenvalues
            1           2           3           4           5           6
    1  -9.9858350  -9.9793900  -0.7790045  -0.5927831  -0.4922588  -0.4615444
            7           8           9          10          11          12
    1  -0.3369494  -0.0350474   0.0389289   0.0453182   0.0516922   0.0612230
 Analysis of SCF Wavefunction
 
 --------------------------------------------------------------
                    Orbital Energies (a.u.)
 --------------------------------------------------------------
 
 Alpha MOs
 -- Occupied --
-10.000  -9.978  -0.794  -0.612  -0.506  -0.474  -0.345  -0.284
 -- Virtual --
  0.035   0.037   0.050   0.059   0.108   0.121   0.126   0.159
  0.160   0.167   0.186   0.194   0.201   0.214   0.315   0.388
  0.474   0.491   0.530   0.541   0.561   0.584   0.626   0.626
  0.651   0.675   0.682   0.700   0.757   0.772   0.814   0.940
  0.964   1.012   1.074   1.128   1.187   1.220   1.338   1.361
  1.393   1.439   1.484   1.510   1.550   1.701   2.404   2.457
  2.596   2.639   2.641   2.663   2.720   2.731   2.763   2.835
  2.856   2.910   3.042   3.046   3.102   3.111   3.150   3.158
  3.195   3.271   3.281   3.319   3.369   3.459   3.574   3.665
  3.682   3.731   3.891   4.090   4.108   4.166   4.286   4.400
  4.438   4.571   4.770   5.088   5.224   5.369   5.534   6.100
 23.596  24.601  27.079  27.279  27.394  28.008  28.159  28.235
 40.684  40.716  40.817  40.971  40.988  41.027  41.089  41.134
 41.176  41.203
 
 Beta MOs
 -- Occupied --
 -9.986  -9.979  -0.779  -0.593  -0.492  -0.462  -0.337
 -- Virtual --
 -0.035   0.039   0.045   0.052   0.061   0.110   0.125   0.136
  0.163   0.163   0.172   0.188   0.198   0.208   0.223   0.326
  0.398   0.485   0.507   0.536   0.551   0.566   0.607   0.633
  0.653   0.663   0.687   0.690   0.719   0.784   0.788   0.838
  0.948   0.977   1.017   1.081   1.149   1.204   1.232   1.353
  1.374   1.421   1.450   1.494   1.523   1.562   1.731   2.415
  2.469   2.627   2.650   2.652   2.673   2.738   2.761   2.808
  2.860   2.867   2.950   3.053   3.060   3.112   3.135   3.183
  3.212   3.215   3.301   3.302   3.361   3.403   3.489   3.593
  3.687   3.695   3.753   3.910   4.108   4.121   4.175   4.305
  4.412   4.460   4.594   4.780   5.110   5.238   5.391   5.545
  6.121  23.606  24.608  27.084  27.282  27.431  28.007  28.159
 28.245  40.692  40.742  40.815  40.988  40.995  41.030  41.106
 41.137  41.185  41.209
 --------------------------------------------------------------
 
          Ground-State Mulliken Net Atomic Charges

     Atom                 Charge (a.u.)    Spin (a.u.)
  --------------------------------------------------------
      1 C                    -0.237878      -0.089274
      2 C                    -0.074931       0.949696
      3 H                     0.086089       0.084732
      4 H                     0.110053       0.035573
      5 H                     0.116667       0.019272
  --------------------------------------------------------
  Sum of atomic charges =     0.000000
  Sum of spin   charges =     1.000000

 -----------------------------------------------------------------
                    Cartesian Multipole Moments
 -----------------------------------------------------------------
    Charge (ESU x 10^10)
                 0.0000
    Dipole Moment (Debye)
         X       0.6425      Y       0.0004      Z      -0.3681
       Tot       0.7404
    Quadrupole Moments (Debye-Ang)
        XX     -12.4370     XY       0.0001     YY     -14.9203
        XZ       1.6129     YZ       0.0002     ZZ     -11.9384
    Octapole Moments (Debye-Ang^2)
       XXX      -0.9162    XXY       0.0004    XYY      -0.4346
       YYY       0.0019    XXZ      -8.7062    XYZ      -0.0020
       YYZ      -8.9907    XZZ       3.1298    YZZ       0.0011
       ZZZ     -20.7224
    Hexadecapole Moments (Debye-Ang^3)
      XXXX     -24.4799   XXXY       0.0002   XXYY      -7.7547
      XYYY      -0.0004   YYYY     -19.2573   XXXZ      -1.4259
      XXYZ       0.0000   XYYZ      -0.8085   YYYZ       0.0009
      XXZZ     -18.9212   XYZZ       0.0002   YYZZ     -20.2091
      XZZZ       5.6577   YZZZ       0.0006   ZZZZ     -86.6010
 -----------------------------------------------------------------
 Total job time:  25.70s(wall), 24.37s(cpu) 
 Thu Mar 20 03:48:10 2014

        *************************************************************
        *                                                           *
        *  Thank you very much for using Q-Chem.  Have a nice day.  *
        *                                                           *
        *************************************************************


0 sent ACK to 0 
now end server 0 ... 
 
**********************************************************************
Job 3 of 3 
**********************************************************************
 
Process 0 of 1 is on cl122 - thread support 1
initial socket setup ...start
initial socket setup ...done 
now start server 0 ... 

cmd = /usr/bin/ssh clhead /usr/local/qchem/bin/get_hostid 202417715 > /tmp/1601985.1.medium.q/qchem7916/lic.dat

cmd = /usr/bin/ssh clhead /usr/local/qchem/bin/get_hostid 202417715 > /tmp/1601985.1.medium.q/qchem7916/lic.dat

cmd = /usr/bin/ssh clhead /usr/local/qchem/bin/get_hostid 202417715 > /tmp/1601985.1.medium.q/qchem7916/lic.dat

cmd = /usr/bin/ssh clhead /usr/local/qchem/bin/get_hostid 202417715 > /tmp/1601985.1.medium.q/qchem7916/lic.dat

cmd = /usr/bin/ssh clhead /usr/local/qchem/bin/get_hostid 202417715 > /tmp/1601985.1.medium.q/qchem7916/lic.dat
                  Welcome to Q-Chem
     A Quantum Leap Into The Future Of Chemistry

 Y. Shao, L. Fusti-Molnar, Y. Jung, J. Kussmann, C. Ochsenfeld,
 S. T. Brown, A. T. B. Gilbert, L. V. Slipchenko,S. V. Levchenko,
 D. P. O'Neill, R. A. DiStasio Jr., R. C. Lochan, T. Wang,
 G. J. O. Beran, N. A. Besley, J. M. Herbert, C. Y. Lin,
 T. Van Voorhis, S. H. Chien, A. Sodt, R. P. Steele, 
 V. A. Rassolov, P. E. Maslen, P. P. Korambath, R. D. Adamson,
 B. Austin, J. Baker, E. F. C. Byrd, H. Dachsel, R. J. Doerksen,
 A. Dreuw, B. D. Dunietz, A. D. Dutoi, T. R. Furlani,
 S. R. Gwaltney, A. Heyden, S. Hirata, C.-P. Hsu, G. Kedziora,
 R. Z. Khaliullin, P. Klunzinger, A. M. Lee, M. S. Lee, W. Liang,
 I. Lotan, N. Nair, B. Peters, E. I. Proynov, P. A. Pieniazek, 
 Y. M. Rhee, J. Ritchie, E. Rosta, C. D. Sherrill, 
 A. C. Simmonett, J. E. Subotnik, H. L. Woodcock III,
 W. Zhang, A. T. Bell, A. K. Chakraborty, D. M. Chipman,
 F. J. Keil, A. Warshel, W. J. Hehre, H. F. Schaefer III,
 J. Kong, A. I. Krylov, P. M. W. Gill, M. Head-Gordon,
 Q-Chem, Version 3.1, Q-Chem, Inc., Pittsburgh, PA (2007).

 Additional authors for Version 3.1: 
 Z. Gan, Y. Zhao, N. E. Schultz, D. Truhlar, E. Epifanovsky and M. Oana.

 Additional authors for Version 3.2: 
 R. Baer, B. R. Brooks, D. Casanova, J.-D. Chai, C.-L. Cheng, 
 C. Cramer, D. Crittenden, A. Ghysels, G. Hawkins, E. G. Hohenstein, 
 C. Kelley, W. Kurlancheek, D. Liotard, E. Livshits, P. Manohar, 
 A. Marenich, D. Neuhauser, R. Olson, M. A. Rohrdanz, K. S. Thanthiriwatte, 
 A. J. W. Thom, V. Vanovschi, C. F. Williams, Q. Wu and Z.-Q. You. 


 Intel X86 Linux Version

 Q-chem begins on Thu Mar 20 03:48:15 2014  

 Parallel job on  1  processors
Processing $rem in /usr/local/qchem/config/preferences.

theFileMan(): MAXOPENFILES=974 MAX_SUB_FILE_NUM=16
Maximum size of a physical file is 2.0 GB, maximum size of a tmp-file is 32.0 GB


--------------------------------------------------------------
User input:
--------------------------------------------------------------

$molecule
1,1
C         -0.00021        0.00000       -0.00126
C          0.00790        0.00000        1.29852
H          0.92825        0.00000       -0.57678
H         -0.92556        0.00000       -0.57359
H          0.72731        0.00000        2.10602
$end

$comment
positive
$end

$xc_functional
C PBE   1.00
X wPBE  1.00
$end

$rem
SYMMETRY_DECOMPOSITION	0
LRC_DFT                 true
exchange 		general
BASIS                   g3large
omega			160
mem_static              760
max_scf_cycles          200
scf_final_print         1
sym_ignore              true
$end

--------------------------------------------------------------
 Writing REM_CC_EA            5
 ----------------------------------------------------
       Standard Nuclear Orientation (Angstroms)
    I     Atom         X            Y            Z
 ----------------------------------------------------
    1      C      -0.000210     0.000000    -0.001260
    2      C       0.007900     0.000000     1.298520
    3      H       0.928250     0.000000    -0.576780
    4      H      -0.925560     0.000000    -0.573590
    5      H       0.727310     0.000000     2.106020
 ----------------------------------------------------
 Nuclear Repulsion Energy =    28.5290576325 hartrees
 There are        7 alpha and        7 beta electrons
 Requested basis set is G3large
 There are 38 shells and 114 basis functions

Total QAlloc Memory Limit   2000 MB
Mega-Array Size       743 MB
MEM_STATIC part       760 MB

                       Distance Matrix (Angstroms)
             C (  1)   C (  2)   H (  3)   H (  4)
   C (  2)  1.299805
   H (  3)  1.092365  2.088970
   H (  4)  1.088041  2.091923  1.853813
   H (  5)  2.229330  1.081484  2.690315  3.148379
 
 A cutoff of  1.0D-08 yielded    732 shell pairs
 There are   6640 function pairs (  8147 Cartesian)
Evaluating contribution to one-electron hamiltonian from nuclear
 Smallest overlap matrix eigenvalue = 1.14E-04
 Multipole matrices computed through 2nd order

  Scale SEOQF with 1.000000e-01/1.000000e-01/1.000000e-01

 Standard Electronic Orientation quadrupole field applied
 Nucleus-field energy     =    -0.0000000015 hartrees
 Guess from superposition of atomic densities
 Warning:  Energy on first SCF cycle will be non-variational
 Long-range K will be added via erf
 Coulomb attenuation parameter = 0.16 bohr**(-1)
 A restricted Kohn-Sham SCF calculation will be
 performed using Pulay DIIS extrapolation
 Exchange:  wPBE + LR-HF      Correlation:  PBE
 Using SG-1 standard quadrature grid
 SCF converges when DIIS error is below 1.0E-05
 Requested basis set is G3large
 There are 38 shells and 114 basis functions
 A cutoff of  1.0D-08 yielded    732 shell pairs
 There are   6640 function pairs (  8147 Cartesian)
 Warning!  Inaccurate integrated density:
   Number of electrons =    14
   Numerical integral  =    14.999943441296
   Relative error      =     7.1424531521 %
 ---------------------------------------
  Cycle       Energy         DIIS Error
 ---------------------------------------
    1     -78.0157920343      3.68E-02
    2     -77.4374109443      4.83E-03
    3     -77.3749993249      8.08E-03
    4     -77.4789237748      5.73E-04
    5     -77.4798949590      2.18E-04
    6     -77.4802018553      8.24E-05
    7     -77.4803212427      4.14E-05
    8     -77.4803720739      7.07E-06 Convergence criterion met
 ---------------------------------------
 One-Electron    Energy =  -155.1473499397
 Total Coulomb   Energy =    60.5815404624
 Alpha Exchange  Energy =    -0.6145285463
 Beta  Exchange  Energy =    -0.6145285463
 DFT   Exchange  Energy =    -9.7873187466
 DFT Correlation Energy =    -0.4272443883
 Nuclear Repu.   Energy =    28.5290576310
 Nuclear Attr.   Energy =  -232.2802616855
 Kinetic         Energy =    77.1329117458
 SCF time:  CPU 20.49 s  wall 21.78 s
 Final Alpha MO Eigenvalues
            1           2           3           4           5           6
    1 -10.3810997 -10.2956102  -1.1104904  -0.9158869  -0.8136659  -0.7744402
            7           8           9          10          11          12
    1  -0.6510879  -0.4132538  -0.2517959  -0.1319850  -0.1170900  -0.0956756
 Analysis of SCF Wavefunction
 
 --------------------------------------------------------------
                    Orbital Energies (a.u.)
 --------------------------------------------------------------
 
 Alpha MOs
 -- Occupied --
-10.381 -10.296  -1.110  -0.916  -0.814  -0.774  -0.651
 -- Virtual --
 -0.413  -0.252  -0.132  -0.117  -0.096  -0.067  -0.055  -0.037
 -0.033  -0.011  -0.010   0.005   0.018   0.023   0.038   0.115
  0.146   0.242   0.261   0.266   0.296   0.313   0.344   0.378
  0.389   0.410   0.414   0.432   0.463   0.488   0.516   0.566
  0.685   0.710   0.762   0.814   0.867   0.929   0.955   1.077
  1.098   1.132   1.186   1.218   1.248   1.292   1.434   2.112
  2.175   2.302   2.320   2.348   2.351   2.418   2.421   2.460
  2.528   2.546   2.608   2.730   2.744   2.798   2.810   2.848
  2.849   2.892   2.963   2.981   3.012   3.064   3.156   3.266
  3.350   3.375   3.427   3.594   3.799   3.809   3.876   3.978
  4.099   4.132   4.265   4.451   4.780   4.907   5.062   5.239
  5.785  23.245  24.262  26.723  26.941  27.022  27.691  27.840
 27.860  40.332  40.340  40.498  40.598  40.628  40.705  40.719
 40.794  40.834  40.875
 --------------------------------------------------------------
 
          Ground-State Mulliken Net Atomic Charges

     Atom                 Charge (a.u.)
  ----------------------------------------
      1 C                    -0.004353
      2 C                     0.337018
      3 H                     0.223527
      4 H                     0.203723
      5 H                     0.240084
  ----------------------------------------
  Sum of atomic charges =     1.000000

 -----------------------------------------------------------------
                    Cartesian Multipole Moments
 -----------------------------------------------------------------
    Charge (ESU x 10^10)
                 4.8032
    Dipole Moment (Debye)
         X       0.5706      Y       0.0001      Z       3.1661
       Tot       3.2171
    Quadrupole Moments (Debye-Ang)
        XX      -7.3025     XY      -0.0001     YY     -12.2786
        XZ       1.1217     YZ       0.0003     ZZ      -1.1436
    Octapole Moments (Debye-Ang^2)
       XXX      -0.5457    XXY       0.0000    XYY      -0.5317
       YYY       0.0001    XXZ      -5.4470    XYZ      -0.0005
       YYZ      -7.4014    XZZ       3.0467    YZZ       0.0005
       ZZZ      -2.5215
    Hexadecapole Moments (Debye-Ang^3)
      XXXX     -12.6718   XXXY       0.0000   XXYY      -4.9305
      XYYY      -0.0001   YYYY     -12.5476   XXXZ      -1.4039
      XXYZ       0.0000   XYYZ      -1.1225   YYYZ       0.0002
      XXZZ      -7.4992   XYZZ      -0.0006   YYZZ     -15.0026
      XZZZ       5.6908   YZZZ       0.0009   ZZZZ     -37.1237
 -----------------------------------------------------------------
 Total job time:  21.93s(wall), 20.60s(cpu) 
 Thu Mar 20 03:48:36 2014

        *************************************************************
        *                                                           *
        *  Thank you very much for using Q-Chem.  Have a nice day.  *
        *                                                           *
        *************************************************************


0 sent ACK to 0 
now end server 0 ... 
