Process 0 of 1 is on cl233.stfx.acenet.ca - thread support 1
initial socket setup ...start
initial socket setup ...done 
now start server 0 ... 

cmd = /usr/bin/ssh clhead /usr/local/qchem/bin/get_hostid 47896180 > /scratch/tmp/4825472.1.medium.q/qchem20128/lic.dat
                  Welcome to Q-Chem
     A Quantum Leap Into The Future Of Chemistry

 Y. Shao, L. Fusti-Molnar, Y. Jung, J. Kussmann, C. Ochsenfeld,
 S. T. Brown, A. T. B. Gilbert, L. V. Slipchenko,S. V. Levchenko,
 D. P. O'Neill, R. A. DiStasio Jr., R. C. Lochan, T. Wang,
 G. J. O. Beran, N. A. Besley, J. M. Herbert, C. Y. Lin,
 T. Van Voorhis, S. H. Chien, A. Sodt, R. P. Steele, 
 V. A. Rassolov, P. E. Maslen, P. P. Korambath, R. D. Adamson,
 B. Austin, J. Baker, E. F. C. Byrd, H. Dachsel, R. J. Doerksen,
 A. Dreuw, B. D. Dunietz, A. D. Dutoi, T. R. Furlani,
 S. R. Gwaltney, A. Heyden, S. Hirata, C.-P. Hsu, G. Kedziora,
 R. Z. Khaliullin, P. Klunzinger, A. M. Lee, M. S. Lee, W. Liang,
 I. Lotan, N. Nair, B. Peters, E. I. Proynov, P. A. Pieniazek, 
 Y. M. Rhee, J. Ritchie, E. Rosta, C. D. Sherrill, 
 A. C. Simmonett, J. E. Subotnik, H. L. Woodcock III,
 W. Zhang, A. T. Bell, A. K. Chakraborty, D. M. Chipman,
 F. J. Keil, A. Warshel, W. J. Hehre, H. F. Schaefer III,
 J. Kong, A. I. Krylov, P. M. W. Gill, M. Head-Gordon,
 Q-Chem, Version 3.1, Q-Chem, Inc., Pittsburgh, PA (2007).

 Additional authors for Version 3.1: 
 Z. Gan, Y. Zhao, N. E. Schultz, D. Truhlar, E. Epifanovsky and M. Oana.

 Additional authors for Version 3.2: 
 R. Baer, B. R. Brooks, D. Casanova, J.-D. Chai, C.-L. Cheng, 
 C. Cramer, D. Crittenden, A. Ghysels, G. Hawkins, E. G. Hohenstein, 
 C. Kelley, W. Kurlancheek, D. Liotard, E. Livshits, P. Manohar, 
 A. Marenich, D. Neuhauser, R. Olson, M. A. Rohrdanz, K. S. Thanthiriwatte, 
 A. J. W. Thom, V. Vanovschi, C. F. Williams, Q. Wu and Z.-Q. You. 


 Intel X86 Linux Version

 Q-chem begins on Mon Nov 14 18:51:39 2011  

 Parallel job on  1  processors
Processing $rem in /usr/local/qchem/config/preferences.

theFileMan(): MAXOPENFILES=974 MAX_SUB_FILE_NUM=16
Maximum size of a physical file is 2.0 GB, maximum size of a tmp-file is 32.0 GB


--------------------------------------------------------------
User input:
--------------------------------------------------------------

$molecule
-1,2
Si
Si,1,R

 R=2.28638903

$end

$comment
negative
$end

$xc_functional
   X HF 1.0
   X BNL 1.0
   C LYP 1.0
$end

$rem
SYMMETRY_DECOMPOSITION	0
exchange 		general
BASIS                   g3large
omega			260
separate_jk		true
mem_static              760
max_scf_cycles          200
scf_final_print         1
sym_ignore              true
$end

--------------------------------------------------------------
 Writing REM_CC_EA            2
 ----------------------------------------------------
       Standard Nuclear Orientation (Angstroms)
    I     Atom         X            Y            Z
 ----------------------------------------------------
    1      Si      0.000000     0.000000     0.000000
    2      Si      0.000000     0.000000     2.286389
 ----------------------------------------------------
 Nuclear Repulsion Energy =    45.3635544765 hartrees
 There are       15 alpha and       14 beta electrons
 Requested basis set is G3large
 There are 38 shells and 132 basis functions

Total QAlloc Memory Limit   2000 MB
Mega-Array Size       743 MB
MEM_STATIC part       760 MB

                       Distance Matrix (Angstroms)
             Si(  1)
   Si(  2)  2.286389
 
 A cutoff of  1.0D-08 yielded    673 shell pairs
 There are   8434 function pairs ( 12149 Cartesian)
Evaluating contribution to one-electron hamiltonian from nuclear
 Smallest overlap matrix eigenvalue = 8.57E-04
 Multipole matrices computed through 2nd order

  Scale SEOQF with 1.000000e-01/1.000000e-01/1.000000e-01

 Standard Electronic Orientation quadrupole field applied
 Nucleus-field energy     =    -0.0000000078 hartrees
 Guess from superposition of atomic densities
 Warning:  Energy on first SCF cycle will be non-variational
 An unrestricted hybrid HF-DFT SCF calculation will be
 performed using Pulay DIIS extrapolation
 Exchange:     1.0000 Hartree-Fock + 1.0000 BNL
 Correlation:  1.0000 LYP
 Using SG-1 standard quadrature grid
 SCF converges when DIIS error is below 1.0E-05
 Warning!  Inaccurate integrated density:
   Number of electrons =    29
   Numerical integral  =    28.000028981927
   Relative error      =    -3.4481759244 %
 ---------------------------------------
  Cycle       Energy         DIIS Error
 ---------------------------------------
    1    -575.6658324906      1.98E-02
    2    -575.8048909297      2.23E-03
    3    -575.8282763103      1.27E-03
    4    -575.8328666790      2.74E-04
    5    -575.8331032326      6.50E-05
    6    -575.8331808532      1.98E-05
    7    -575.8331896552      1.01E-05
    8    -575.8331938789      4.06E-06 Convergence criterion met
 ---------------------------------------
 One-Electron    Energy =  -897.8800661510
 Total Coulomb   Energy =   315.3085931915
 Alpha Exchange  Energy =    -2.0410398860
 Beta  Exchange  Energy =    -1.9259527495
 DFT   Exchange  Energy =   -33.5317552452
 DFT Correlation Energy =    -1.1265275072
 Nuclear Repu.   Energy =    45.3635544686
 Nuclear Attr.   Energy = -1472.5877585727
 Kinetic         Energy =   574.7076924217
 <S^2> = 0.7525
 SCF time:  CPU 36.61 s  wall 60.02 s
 Final Alpha MO Eigenvalues
            1           2           3           4           5           6
    1 -65.0368594 -65.0368466  -4.9565532  -4.9564262  -3.4000958  -3.4000349
            7           8           9          10          11          12
    1  -3.3949459  -3.3948856  -3.3909132  -3.3901538  -0.3956026  -0.2477324
           13          14          15          16          17          18
    1  -0.0963243  -0.0859293  -0.0764638   0.1554123   0.1645603   0.1648173
           19          20
    1   0.1878672   0.1995004
 Final Beta MO Eigenvalues
            1           2           3           4           5           6
    1 -65.0355643 -65.0355515  -4.9550713  -4.9549646  -3.3967817  -3.3967212
            7           8           9          10          11          12
    1  -3.3936629  -3.3936016  -3.3899880  -3.3892372  -0.3735846  -0.2369133
           13          14          15          16          17          18
    1  -0.0806750  -0.0702790   0.1111436   0.1649660   0.1659589   0.1741659
           19
    1   0.1885854
 Analysis of SCF Wavefunction
 
 --------------------------------------------------------------
                    Orbital Energies (a.u.)
 --------------------------------------------------------------
 
 Alpha MOs
 -- Occupied --
-65.037 -65.037  -4.957  -4.956  -3.400  -3.400  -3.395  -3.395
 -3.391  -3.390  -0.396  -0.248  -0.096  -0.086  -0.076
 -- Virtual --
  0.155   0.165   0.165   0.188   0.200   0.204   0.219   0.232
  0.239   0.266   0.312   0.359   0.359   0.393   0.405   0.435
  0.444   0.461   0.463   0.503   0.508   0.515   0.518   0.522
  0.591   0.601   0.665   0.673   0.705   0.705   0.745   0.746
  0.808   0.814   0.814   0.820   0.917   0.925   0.951   0.960
  0.964   1.014   1.016   1.017   1.023   1.057   1.057   1.114
  1.127   1.148   1.162   1.194   1.259   1.455   1.469   1.654
  1.667   1.702   1.914   2.244   2.265   2.277   2.348   2.348
  2.357   2.357   2.375   2.375   2.431   2.431   2.574   2.587
  2.682   3.673   3.675   3.681   3.686   3.688   3.703   3.707
  3.824   3.832   4.282   5.783   5.801  11.425  11.431  11.540
 11.546  11.604  11.751  17.576  17.586  17.590  17.750  17.756
 17.759  17.763  17.817  17.821  17.865  22.348  22.352  22.353
 22.356  22.357  22.364  22.368  22.369  22.371  22.373  22.375
 22.382  22.385  22.398 141.122 141.173
 
 Beta MOs
 -- Occupied --
-65.036 -65.036  -4.955  -4.955  -3.397  -3.397  -3.394  -3.394
 -3.390  -3.389  -0.374  -0.237  -0.081  -0.070
 -- Virtual --
  0.111   0.165   0.166   0.174   0.189   0.204   0.205   0.220
  0.241   0.245   0.264   0.316   0.373   0.374   0.406   0.407
  0.440   0.447   0.468   0.469   0.510   0.513   0.517   0.519
  0.525   0.596   0.602   0.670   0.679   0.711   0.712   0.752
  0.753   0.819   0.819   0.819   0.823   0.919   0.932   0.956
  0.967   0.968   1.017   1.024   1.027   1.027   1.065   1.065
  1.127   1.131   1.158   1.164   1.196   1.265   1.467   1.473
  1.665   1.670   1.709   1.918   2.252   2.278   2.281   2.362
  2.362   2.367   2.368   2.389   2.389   2.442   2.442   2.588
  2.590   2.688   3.678   3.681   3.686   3.688   3.690   3.708
  3.712   3.831   3.834   4.287   5.787   5.805  11.430  11.434
 11.545  11.548  11.605  11.753  17.579  17.587  17.593  17.753
 17.758  17.760  17.766  17.820  17.822  17.866  22.349  22.353
 22.354  22.357  22.358  22.365  22.368  22.370  22.372  22.374
 22.376  22.383  22.386  22.399 141.123 141.175
 --------------------------------------------------------------
 
          Ground-State Mulliken Net Atomic Charges

     Atom                 Charge (a.u.)    Spin (a.u.)
  --------------------------------------------------------
      1 Si                   -0.499987       0.499998
      2 Si                   -0.500013       0.500002
  --------------------------------------------------------
  Sum of atomic charges =    -1.000000
  Sum of spin   charges =     1.000000

 -----------------------------------------------------------------
                    Cartesian Multipole Moments
 -----------------------------------------------------------------
    Charge (ESU x 10^10)
                -4.8032
    Dipole Moment (Debye)
         X       0.0000      Y       0.0000      Z      -5.4911
       Tot       5.4911
    Quadrupole Moments (Debye-Ang)
        XX     -37.0246     XY       2.9920     YY     -37.0232
        XZ       0.0073     YZ       0.0059     ZZ     -54.7801
    Octapole Moments (Debye-Ang^2)
       XXX       0.0000    XXY      -0.0001    XYY       0.0000
       YYY      -0.0001    XXZ     -42.3264    XYZ       3.4204
       YYZ     -42.3247    XZZ       0.0167    YZZ       0.0135
       ZZZ    -173.5205
    Hexadecapole Moments (Debye-Ang^3)
      XXXX    -114.2598   XXXY      10.0651   XXYY     -38.0449
      XYYY      10.0652   YYYY    -114.2502   XXXZ       0.0273
      XXYZ       0.0077   XYYZ       0.0095   YYYZ       0.0217
      XXZZ    -137.3824   XYZZ       9.3940   YYZZ    -137.3778
      XZZZ       0.0884   YZZZ       0.0715   ZZZZ    -866.4757
 -----------------------------------------------------------------
 Total job time:  60.63s(wall), 36.76s(cpu) 
 Mon Nov 14 18:52:40 2011

        *************************************************************
        *                                                           *
        *  Thank you very much for using Q-Chem.  Have a nice day.  *
        *                                                           *
        *************************************************************


0 sent ACK to 0 
now end server 0 ... 
 
**********************************************************************
Job 2 of 3 
**********************************************************************
 
Process 0 of 1 is on cl233.stfx.acenet.ca - thread support 1
initial socket setup ...start
initial socket setup ...done 
now start server 0 ... 

cmd = /usr/bin/ssh clhead /usr/local/qchem/bin/get_hostid 997704212 > /scratch/tmp/4825472.1.medium.q/qchem20128/lic.dat
                  Welcome to Q-Chem
     A Quantum Leap Into The Future Of Chemistry

 Y. Shao, L. Fusti-Molnar, Y. Jung, J. Kussmann, C. Ochsenfeld,
 S. T. Brown, A. T. B. Gilbert, L. V. Slipchenko,S. V. Levchenko,
 D. P. O'Neill, R. A. DiStasio Jr., R. C. Lochan, T. Wang,
 G. J. O. Beran, N. A. Besley, J. M. Herbert, C. Y. Lin,
 T. Van Voorhis, S. H. Chien, A. Sodt, R. P. Steele, 
 V. A. Rassolov, P. E. Maslen, P. P. Korambath, R. D. Adamson,
 B. Austin, J. Baker, E. F. C. Byrd, H. Dachsel, R. J. Doerksen,
 A. Dreuw, B. D. Dunietz, A. D. Dutoi, T. R. Furlani,
 S. R. Gwaltney, A. Heyden, S. Hirata, C.-P. Hsu, G. Kedziora,
 R. Z. Khaliullin, P. Klunzinger, A. M. Lee, M. S. Lee, W. Liang,
 I. Lotan, N. Nair, B. Peters, E. I. Proynov, P. A. Pieniazek, 
 Y. M. Rhee, J. Ritchie, E. Rosta, C. D. Sherrill, 
 A. C. Simmonett, J. E. Subotnik, H. L. Woodcock III,
 W. Zhang, A. T. Bell, A. K. Chakraborty, D. M. Chipman,
 F. J. Keil, A. Warshel, W. J. Hehre, H. F. Schaefer III,
 J. Kong, A. I. Krylov, P. M. W. Gill, M. Head-Gordon,
 Q-Chem, Version 3.1, Q-Chem, Inc., Pittsburgh, PA (2007).

 Additional authors for Version 3.1: 
 Z. Gan, Y. Zhao, N. E. Schultz, D. Truhlar, E. Epifanovsky and M. Oana.

 Additional authors for Version 3.2: 
 R. Baer, B. R. Brooks, D. Casanova, J.-D. Chai, C.-L. Cheng, 
 C. Cramer, D. Crittenden, A. Ghysels, G. Hawkins, E. G. Hohenstein, 
 C. Kelley, W. Kurlancheek, D. Liotard, E. Livshits, P. Manohar, 
 A. Marenich, D. Neuhauser, R. Olson, M. A. Rohrdanz, K. S. Thanthiriwatte, 
 A. J. W. Thom, V. Vanovschi, C. F. Williams, Q. Wu and Z.-Q. You. 


 Intel X86 Linux Version

 Q-chem begins on Mon Nov 14 18:52:43 2011  

 Parallel job on  1  processors
Processing $rem in /usr/local/qchem/config/preferences.

theFileMan(): MAXOPENFILES=974 MAX_SUB_FILE_NUM=16
Maximum size of a physical file is 2.0 GB, maximum size of a tmp-file is 32.0 GB


--------------------------------------------------------------
User input:
--------------------------------------------------------------

$molecule
0,3
Si
Si,1,R

 R=2.28638903

$end

$comment
neutral
$end

$xc_functional
   X HF 1.0
   X BNL 1.0
   C LYP 1.0
$end

$rem
SYMMETRY_DECOMPOSITION	0
exchange 		general
BASIS                   g3large
omega			260
separate_jk		true
mem_static              760
max_scf_cycles          200
scf_final_print         1
sym_ignore              true
$end

--------------------------------------------------------------
 Writing REM_CC_EA            2
 ----------------------------------------------------
       Standard Nuclear Orientation (Angstroms)
    I     Atom         X            Y            Z
 ----------------------------------------------------
    1      Si      0.000000     0.000000     0.000000
    2      Si      0.000000     0.000000     2.286389
 ----------------------------------------------------
 Nuclear Repulsion Energy =    45.3635544765 hartrees
 There are       15 alpha and       13 beta electrons
 Requested basis set is G3large
 There are 38 shells and 132 basis functions

Total QAlloc Memory Limit   2000 MB
Mega-Array Size       743 MB
MEM_STATIC part       760 MB

                       Distance Matrix (Angstroms)
             Si(  1)
   Si(  2)  2.286389
 
 A cutoff of  1.0D-08 yielded    673 shell pairs
 There are   8434 function pairs ( 12149 Cartesian)
Evaluating contribution to one-electron hamiltonian from nuclear
 Smallest overlap matrix eigenvalue = 8.57E-04
 Multipole matrices computed through 2nd order

  Scale SEOQF with 1.000000e-01/1.000000e-01/1.000000e-01

 Standard Electronic Orientation quadrupole field applied
 Nucleus-field energy     =    -0.0000000078 hartrees
 Guess from superposition of atomic densities
 Warning:  Energy on first SCF cycle will be non-variational
 An unrestricted hybrid HF-DFT SCF calculation will be
 performed using Pulay DIIS extrapolation
 Exchange:     1.0000 Hartree-Fock + 1.0000 BNL
 Correlation:  1.0000 LYP
 Using SG-1 standard quadrature grid
 SCF converges when DIIS error is below 1.0E-05
 ---------------------------------------
  Cycle       Energy         DIIS Error
 ---------------------------------------
    1    -575.6658324906      1.98E-02
    2    -575.7456654296      1.45E-03
    3    -575.7509820310      6.66E-04
    4    -575.7515843496      8.39E-05
    5    -575.7517613318      2.51E-05
    6    -575.7517851001      8.52E-06 Convergence criterion met
 ---------------------------------------
 One-Electron    Energy =  -891.6245988105
 Total Coulomb   Energy =   308.9420484907
 Alpha Exchange  Energy =    -2.0572424336
 Beta  Exchange  Energy =    -1.8083782384
 DFT   Exchange  Energy =   -33.4678896289
 DFT Correlation Energy =    -1.0992789480
 Nuclear Repu.   Energy =    45.3635544686
 Nuclear Attr.   Energy = -1466.2576168045
 Kinetic         Energy =   574.6330179940
 <S^2> = 2.0068
 SCF time:  CPU 28.03 s  wall 44.04 s
 Final Alpha MO Eigenvalues
            1           2           3           4           5           6
    1 -65.2667672 -65.2667396  -5.1848785  -5.1847410  -3.6268086  -3.6267447
            7           8           9          10          11          12
    1  -3.6248697  -3.6240904  -3.6208523  -3.6207889  -0.6213794  -0.4697798
           13          14          15          16          17          18
    1  -0.3170781  -0.3003183  -0.2791442  -0.0286342  -0.0144469   0.0433180
           19          20
    1   0.0553235   0.0743076
 Final Beta MO Eigenvalues
            1           2           3           4           5           6
    1 -65.2632308 -65.2632033  -5.1808717  -5.1807662  -3.6215634  -3.6215055
            7           8           9          10          11          12
    1  -3.6179720  -3.6179480  -3.6178895  -3.6172123  -0.5766630  -0.4197368
           13          14          15          16          17          18
    1  -0.2666990  -0.0857208  -0.0729792  -0.0036670   0.0106150   0.0443503
 Analysis of SCF Wavefunction
 
 --------------------------------------------------------------
                    Orbital Energies (a.u.)
 --------------------------------------------------------------
 
 Alpha MOs
 -- Occupied --
-65.267 -65.267  -5.185  -5.185  -3.627  -3.627  -3.625  -3.624
 -3.621  -3.621  -0.621  -0.470  -0.317  -0.300  -0.279
 -- Virtual --
 -0.029  -0.014   0.043   0.055   0.074   0.078   0.084   0.102
  0.105   0.114   0.154   0.178   0.178   0.200   0.212   0.255
  0.274   0.280   0.282   0.333   0.343   0.344   0.349   0.353
  0.407   0.416   0.471   0.480   0.526   0.526   0.557   0.557
  0.606   0.618   0.635   0.635   0.717   0.729   0.760   0.770
  0.773   0.809   0.810   0.831   0.839   0.855   0.856   0.897
  0.911   0.938   0.952   0.990   1.030   1.252   1.267   1.448
  1.462   1.479   1.698   2.008   2.033   2.047   2.133   2.134
  2.137   2.137   2.164   2.164   2.207   2.207   2.341   2.355
  2.446   3.450   3.452   3.454   3.460   3.460   3.484   3.488
  3.595   3.604   4.053   5.558   5.572  11.200  11.207  11.314
 11.321  11.370  11.518  17.351  17.353  17.365  17.525  17.525
 17.529  17.538  17.586  17.591  17.632  22.117  22.126  22.126
 22.131  22.132  22.136  22.140  22.141  22.143  22.145  22.147
 22.151  22.156  22.167 140.892 140.944
 
 Beta MOs
 -- Occupied --
-65.263 -65.263  -5.181  -5.181  -3.622  -3.622  -3.618  -3.618
 -3.618  -3.617  -0.577  -0.420  -0.267
 -- Virtual --
 -0.086  -0.073  -0.004   0.011   0.044   0.057   0.075   0.078
  0.085   0.104   0.105   0.130   0.163   0.194   0.195   0.228
  0.230   0.272   0.285   0.290   0.290   0.342   0.348   0.351
  0.356   0.358   0.419   0.426   0.486   0.494   0.533   0.533
  0.569   0.570   0.627   0.631   0.641   0.641   0.736   0.741
  0.772   0.781   0.783   0.825   0.825   0.842   0.849   0.869
  0.869   0.922   0.925   0.960   0.967   1.007   1.054   1.269
  1.275   1.466   1.472   1.501   1.717   2.042   2.069   2.072
  2.156   2.156   2.160   2.160   2.183   2.183   2.233   2.234
  2.378   2.380   2.476   3.461   3.463   3.465   3.467   3.469
  3.492   3.495   3.610   3.613   4.067   5.568   5.584  11.207
 11.211  11.322  11.326  11.381  11.528  17.356  17.361  17.370
 17.529  17.532  17.535  17.543  17.594  17.596  17.640  22.120
 22.128  22.129  22.134  22.134  22.139  22.142  22.144  22.146
 22.148  22.149  22.155  22.158  22.170 140.896 140.948
 --------------------------------------------------------------
 
          Ground-State Mulliken Net Atomic Charges

     Atom                 Charge (a.u.)    Spin (a.u.)
  --------------------------------------------------------
      1 Si                    0.000041       0.999985
      2 Si                   -0.000041       1.000015
  --------------------------------------------------------
  Sum of atomic charges =     0.000000
  Sum of spin   charges =     2.000000

 -----------------------------------------------------------------
                    Cartesian Multipole Moments
 -----------------------------------------------------------------
    Charge (ESU x 10^10)
                 0.0000
    Dipole Moment (Debye)
         X       0.0000      Y       0.0000      Z      -0.0005
       Tot       0.0005
    Quadrupole Moments (Debye-Ang)
        XX     -28.7122     XY       2.2755     YY     -28.7112
        XZ       0.0152     YZ       0.0128     ZZ     -23.7636
    Octapole Moments (Debye-Ang^2)
       XXX       0.0000    XXY       0.0000    XYY       0.0000
       YYY       0.0000    XXZ     -32.8240    XYZ       2.6014
       YYZ     -32.8228    XZZ       0.0347    YZZ       0.0293
       ZZZ     -81.4987
    Hexadecapole Moments (Debye-Ang^3)
      XXXX     -63.2398   XXXY       5.2185   XXYY     -21.0453
      XYYY       5.2186   YYYY     -63.2353   XXXZ       0.0301
      XXYZ       0.0094   XYYZ       0.0108   YYYZ       0.0251
      XXZZ     -89.5536   XYZZ       6.2980   YYZZ     -89.5507
      XZZZ       0.1604   YZZZ       0.1359   ZZZZ    -437.9070
 -----------------------------------------------------------------
 Total job time:  44.50s(wall), 28.18s(cpu) 
 Mon Nov 14 18:53:28 2011

        *************************************************************
        *                                                           *
        *  Thank you very much for using Q-Chem.  Have a nice day.  *
        *                                                           *
        *************************************************************


0 sent ACK to 0 
now end server 0 ... 
 
**********************************************************************
Job 3 of 3 
**********************************************************************
 
Process 0 of 1 is on cl233.stfx.acenet.ca - thread support 1
initial socket setup ...start
initial socket setup ...done 
now start server 0 ... 

cmd = /usr/bin/ssh clhead /usr/local/qchem/bin/get_hostid 1118480746 > /scratch/tmp/4825472.1.medium.q/qchem20128/lic.dat
                  Welcome to Q-Chem
     A Quantum Leap Into The Future Of Chemistry

 Y. Shao, L. Fusti-Molnar, Y. Jung, J. Kussmann, C. Ochsenfeld,
 S. T. Brown, A. T. B. Gilbert, L. V. Slipchenko,S. V. Levchenko,
 D. P. O'Neill, R. A. DiStasio Jr., R. C. Lochan, T. Wang,
 G. J. O. Beran, N. A. Besley, J. M. Herbert, C. Y. Lin,
 T. Van Voorhis, S. H. Chien, A. Sodt, R. P. Steele, 
 V. A. Rassolov, P. E. Maslen, P. P. Korambath, R. D. Adamson,
 B. Austin, J. Baker, E. F. C. Byrd, H. Dachsel, R. J. Doerksen,
 A. Dreuw, B. D. Dunietz, A. D. Dutoi, T. R. Furlani,
 S. R. Gwaltney, A. Heyden, S. Hirata, C.-P. Hsu, G. Kedziora,
 R. Z. Khaliullin, P. Klunzinger, A. M. Lee, M. S. Lee, W. Liang,
 I. Lotan, N. Nair, B. Peters, E. I. Proynov, P. A. Pieniazek, 
 Y. M. Rhee, J. Ritchie, E. Rosta, C. D. Sherrill, 
 A. C. Simmonett, J. E. Subotnik, H. L. Woodcock III,
 W. Zhang, A. T. Bell, A. K. Chakraborty, D. M. Chipman,
 F. J. Keil, A. Warshel, W. J. Hehre, H. F. Schaefer III,
 J. Kong, A. I. Krylov, P. M. W. Gill, M. Head-Gordon,
 Q-Chem, Version 3.1, Q-Chem, Inc., Pittsburgh, PA (2007).

 Additional authors for Version 3.1: 
 Z. Gan, Y. Zhao, N. E. Schultz, D. Truhlar, E. Epifanovsky and M. Oana.

 Additional authors for Version 3.2: 
 R. Baer, B. R. Brooks, D. Casanova, J.-D. Chai, C.-L. Cheng, 
 C. Cramer, D. Crittenden, A. Ghysels, G. Hawkins, E. G. Hohenstein, 
 C. Kelley, W. Kurlancheek, D. Liotard, E. Livshits, P. Manohar, 
 A. Marenich, D. Neuhauser, R. Olson, M. A. Rohrdanz, K. S. Thanthiriwatte, 
 A. J. W. Thom, V. Vanovschi, C. F. Williams, Q. Wu and Z.-Q. You. 


 Intel X86 Linux Version

 Q-chem begins on Mon Nov 14 18:53:33 2011  

 Parallel job on  1  processors
Processing $rem in /usr/local/qchem/config/preferences.

theFileMan(): MAXOPENFILES=974 MAX_SUB_FILE_NUM=16
Maximum size of a physical file is 2.0 GB, maximum size of a tmp-file is 32.0 GB


--------------------------------------------------------------
User input:
--------------------------------------------------------------

$molecule
1,4
Si
Si,1,R

 R=2.28638903

$end

$comment
positive
$end

$xc_functional
   X HF 1.0
   X BNL 1.0
   C LYP 1.0
$end

$rem
SYMMETRY_DECOMPOSITION	0
exchange 		general
BASIS                   g3large
omega			260
separate_jk		true
mem_static              760
max_scf_cycles          200
scf_final_print         1
sym_ignore              true
$end

--------------------------------------------------------------
 Writing REM_CC_EA            2
 ----------------------------------------------------
       Standard Nuclear Orientation (Angstroms)
    I     Atom         X            Y            Z
 ----------------------------------------------------
    1      Si      0.000000     0.000000     0.000000
    2      Si      0.000000     0.000000     2.286389
 ----------------------------------------------------
 Nuclear Repulsion Energy =    45.3635544765 hartrees
 There are       15 alpha and       12 beta electrons
 Requested basis set is G3large
 There are 38 shells and 132 basis functions

Total QAlloc Memory Limit   2000 MB
Mega-Array Size       743 MB
MEM_STATIC part       760 MB

                       Distance Matrix (Angstroms)
             Si(  1)
   Si(  2)  2.286389
 
 A cutoff of  1.0D-08 yielded    673 shell pairs
 There are   8434 function pairs ( 12149 Cartesian)
Evaluating contribution to one-electron hamiltonian from nuclear
 Smallest overlap matrix eigenvalue = 8.57E-04
 Multipole matrices computed through 2nd order

  Scale SEOQF with 1.000000e-01/1.000000e-01/1.000000e-01

 Standard Electronic Orientation quadrupole field applied
 Nucleus-field energy     =    -0.0000000078 hartrees
 Guess from superposition of atomic densities
 Warning:  Energy on first SCF cycle will be non-variational
 An unrestricted hybrid HF-DFT SCF calculation will be
 performed using Pulay DIIS extrapolation
 Exchange:     1.0000 Hartree-Fock + 1.0000 BNL
 Correlation:  1.0000 LYP
 Using SG-1 standard quadrature grid
 SCF converges when DIIS error is below 1.0E-05
 Warning!  Inaccurate integrated density:
   Number of electrons =    27
   Numerical integral  =    28.000028981927
   Relative error      =     3.7038110442 %
 ---------------------------------------
  Cycle       Energy         DIIS Error
 ---------------------------------------
    1    -575.6658324906      1.98E-02
    2    -575.4430681829      2.44E-03
    3    -575.4726533794      1.39E-03
    4    -575.4749739483      1.80E-04
    5    -575.4752663693      4.87E-05
    6    -575.4753109470      1.37E-05
    7    -575.4753154895      5.72E-06 Convergence criterion met
 ---------------------------------------
 One-Electron    Energy =  -884.5966018126
 Total Coulomb   Energy =   301.9881486353
 Alpha Exchange  Energy =    -2.0673080249
 Beta  Exchange  Energy =    -1.6955306450
 DFT   Exchange  Energy =   -33.4012793005
 DFT Correlation Energy =    -1.0662988105
 Nuclear Repu.   Energy =    45.3635544686
 Nuclear Attr.   Energy = -1459.1075910522
 Kinetic         Energy =   574.5109892396
 <S^2> = 3.7530
 SCF time:  CPU 32.92 s  wall 47.01 s
 Final Alpha MO Eigenvalues
            1           2           3           4           5           6
    1 -65.5259592 -65.5259455  -5.4419521  -5.4418075  -3.8822881  -3.8822867
            7           8           9          10          11          12
    1  -3.8822318  -3.8822303  -3.8806836  -3.8798987  -0.8762551  -0.7081857
           13          14          15          16          17          18
    1  -0.5481365  -0.5333156  -0.5333146  -0.2435527  -0.2435499  -0.1255515
           19          20
    1  -0.1028147  -0.0623360
 Final Beta MO Eigenvalues
            1           2           3           4           5           6
    1 -65.5204076 -65.5203938  -5.4356296  -5.4355479  -3.8748100  -3.8748083
            7           8           9          10          11          12
    1  -3.8747594  -3.8747577  -3.8720475  -3.8712986  -0.8064528  -0.6425793
           13          14          15          16          17
    1  -0.3029025  -0.2887919  -0.2887903  -0.1926137  -0.1926134
 Analysis of SCF Wavefunction
 
 --------------------------------------------------------------
                    Orbital Energies (a.u.)
 --------------------------------------------------------------
 
 Alpha MOs
 -- Occupied --
-65.526 -65.526  -5.442  -5.442  -3.882  -3.882  -3.882  -3.882
 -3.881  -3.880  -0.876  -0.708  -0.548  -0.533  -0.533
 -- Virtual --
 -0.244  -0.244  -0.126  -0.103  -0.062  -0.062  -0.053  -0.049
 -0.034  -0.034  -0.024  -0.024   0.000   0.000   0.018   0.075
  0.075   0.075   0.120   0.154   0.154   0.171   0.171   0.177
  0.219   0.219   0.264   0.278   0.318   0.318   0.348   0.348
  0.399   0.399   0.432   0.432   0.497   0.544   0.557   0.557
  0.560   0.568   0.568   0.631   0.631   0.642   0.642   0.673
  0.673   0.715   0.715   0.788   0.790   1.028   1.028   1.228
  1.228   1.238   1.475   1.762   1.796   1.796   1.883   1.883
  1.885   1.885   1.912   1.912   1.957   1.957   2.100   2.100
  2.200   3.199   3.202   3.203   3.204   3.204   3.229   3.233
  3.346   3.346   3.801   5.306   5.320  10.946  10.946  11.061
 11.061  11.116  11.264  17.092  17.097  17.106  17.266  17.270
 17.270  17.280  17.331  17.331  17.376  21.862  21.869  21.869
 21.874  21.874  21.881  21.881  21.885  21.886  21.889  21.890
 21.898  21.898  21.911 140.634 140.685
 
 Beta MOs
 -- Occupied --
-65.520 -65.520  -5.436  -5.436  -3.875  -3.875  -3.875  -3.875
 -3.872  -3.871  -0.806  -0.643
 -- Virtual --
 -0.303  -0.289  -0.289  -0.193  -0.193  -0.099  -0.098  -0.062
 -0.062  -0.050  -0.036  -0.025  -0.025  -0.005  -0.004   0.016
  0.030   0.030   0.091   0.092   0.095   0.125   0.161   0.161
  0.180   0.180   0.184   0.230   0.230   0.282   0.296   0.329
  0.329   0.366   0.366   0.423   0.423   0.441   0.441   0.522
  0.558   0.573   0.576   0.576   0.596   0.596   0.649   0.650
  0.656   0.656   0.699   0.699   0.741   0.741   0.808   0.821
  1.049   1.049   1.249   1.249   1.268   1.499   1.807   1.838
  1.838   1.922   1.922   1.926   1.926   1.950   1.950   2.000
  2.000   2.144   2.144   2.240   3.214   3.218   3.219   3.221
  3.221   3.244   3.248   3.365   3.365   3.822   5.322   5.337
 10.957  10.957  11.072  11.072  11.128  11.277  17.101  17.107
 17.115  17.274  17.280  17.280  17.288  17.341  17.341  17.387
 21.866  21.873  21.873  21.878  21.878  21.886  21.886  21.889
 21.890  21.893  21.894  21.902  21.902  21.916 140.640 140.692
 --------------------------------------------------------------
 
          Ground-State Mulliken Net Atomic Charges

     Atom                 Charge (a.u.)    Spin (a.u.)
  --------------------------------------------------------
      1 Si                    0.500009       1.500000
      2 Si                    0.499991       1.500000
  --------------------------------------------------------
  Sum of atomic charges =     1.000000
  Sum of spin   charges =     3.000000

 -----------------------------------------------------------------
                    Cartesian Multipole Moments
 -----------------------------------------------------------------
    Charge (ESU x 10^10)
                 4.8032
    Dipole Moment (Debye)
         X       0.0000      Y       0.0000      Z       5.4909
       Tot       5.4909
    Quadrupole Moments (Debye-Ang)
        XX     -21.4892     XY       0.0001     YY     -21.4892
        XZ       0.0066     YZ       0.0054     ZZ      -5.5214
    Octapole Moments (Debye-Ang^2)
       XXX       0.0000    XXY       0.0000    XYY       0.0000
       YYY       0.0000    XXZ     -24.5664    XYZ       0.0001
       YYZ     -24.5663    XZZ       0.0151    YZZ       0.0124
       ZZZ     -33.2882
    Hexadecapole Moments (Debye-Ang^3)
      XXXX     -34.7449   XXXY       0.0004   XXYY     -11.5816
      XYYY       0.0004   YYYY     -34.7449   XXXZ       0.0104
      XXYZ       0.0028   XYYZ       0.0035   YYYZ       0.0085
      XXZZ     -64.2513   XYZZ       0.0002   YYZZ     -64.2512
      XZZZ       0.0641   YZZZ       0.0524   ZZZZ    -265.7571
 -----------------------------------------------------------------
 Total job time:  48.00s(wall), 33.07s(cpu) 
 Mon Nov 14 18:54:21 2011

        *************************************************************
        *                                                           *
        *  Thank you very much for using Q-Chem.  Have a nice day.  *
        *                                                           *
        *************************************************************


0 sent ACK to 0 
now end server 0 ... 
