Process 0 of 1 is on cl159.stfx.acenet.ca - thread support 1
initial socket setup ...start
initial socket setup ...done 
now start server 0 ... 

cmd = /usr/bin/ssh clhead /usr/local/qchem/bin/get_hostid 1774144329 > /globalscratch/itamblyn/bnl/g297_b3lyp_neut_g03Large_worked/g2g71063/omega590/qchem23719/lic.dat
                  Welcome to Q-Chem
     A Quantum Leap Into The Future Of Chemistry

 Y. Shao, L. Fusti-Molnar, Y. Jung, J. Kussmann, C. Ochsenfeld,
 S. T. Brown, A. T. B. Gilbert, L. V. Slipchenko,S. V. Levchenko,
 D. P. O'Neill, R. A. DiStasio Jr., R. C. Lochan, T. Wang,
 G. J. O. Beran, N. A. Besley, J. M. Herbert, C. Y. Lin,
 T. Van Voorhis, S. H. Chien, A. Sodt, R. P. Steele, 
 V. A. Rassolov, P. E. Maslen, P. P. Korambath, R. D. Adamson,
 B. Austin, J. Baker, E. F. C. Byrd, H. Dachsel, R. J. Doerksen,
 A. Dreuw, B. D. Dunietz, A. D. Dutoi, T. R. Furlani,
 S. R. Gwaltney, A. Heyden, S. Hirata, C.-P. Hsu, G. Kedziora,
 R. Z. Khaliullin, P. Klunzinger, A. M. Lee, M. S. Lee, W. Liang,
 I. Lotan, N. Nair, B. Peters, E. I. Proynov, P. A. Pieniazek, 
 Y. M. Rhee, J. Ritchie, E. Rosta, C. D. Sherrill, 
 A. C. Simmonett, J. E. Subotnik, H. L. Woodcock III,
 W. Zhang, A. T. Bell, A. K. Chakraborty, D. M. Chipman,
 F. J. Keil, A. Warshel, W. J. Hehre, H. F. Schaefer III,
 J. Kong, A. I. Krylov, P. M. W. Gill, M. Head-Gordon,
 Q-Chem, Version 3.1, Q-Chem, Inc., Pittsburgh, PA (2007).

 Additional authors for Version 3.1: 
 Z. Gan, Y. Zhao, N. E. Schultz, D. Truhlar, E. Epifanovsky and M. Oana.

 Additional authors for Version 3.2: 
 R. Baer, B. R. Brooks, D. Casanova, J.-D. Chai, C.-L. Cheng, 
 C. Cramer, D. Crittenden, A. Ghysels, G. Hawkins, E. G. Hohenstein, 
 C. Kelley, W. Kurlancheek, D. Liotard, E. Livshits, P. Manohar, 
 A. Marenich, D. Neuhauser, R. Olson, M. A. Rohrdanz, K. S. Thanthiriwatte, 
 A. J. W. Thom, V. Vanovschi, C. F. Williams, Q. Wu and Z.-Q. You. 


 Intel X86 Linux Version

 Q-chem begins on Fri Apr 15 15:36:01 2011  

 Parallel job on  1  processors
Processing $rem in /usr/local/qchem/config/preferences.

theFileMan(): MAXOPENFILES=974 MAX_SUB_FILE_NUM=16
Maximum size of a physical file is 2.0 GB, maximum size of a tmp-file is 32.0 GB


--------------------------------------------------------------
User input:
--------------------------------------------------------------

$molecule
-1,2
Si
F,1,sif
F,1,sif,2,109.47122063
F,1,sif,2,109.47122063,3,120.,0
F,1,sif,2,109.47122063,3,-120.,0

 sif=1.57895122

$end

$comment
negative
$end

$xc_functional
   X HF 1.0
   X BNL 1.0
   C LYP 1.0
$end

$rem
SYMMETRY_DECOMPOSITION	0
exchange 		general
BASIS                   g3large
omega			590
separate_jk		true
mem_static              760
max_scf_cycles          200
scf_final_print         1
sym_ignore              true
$end

--------------------------------------------------------------
 Writing REM_CC_EA            5
 ----------------------------------------------------
       Standard Nuclear Orientation (Angstroms)
    I     Atom         X            Y            Z
 ----------------------------------------------------
    1      Si      0.000000     0.000000     0.000000
    2      F       0.000000     0.000000     1.578951
    3      F       1.488649     0.000000    -0.526317
    4      F      -0.744325    -1.289208    -0.526317
    5      F      -0.744325     1.289208    -0.526317
 ----------------------------------------------------
 Nuclear Repulsion Energy =   268.6563891850 hartrees
 There are       26 alpha and       25 beta electrons
 Requested basis set is G3large
 There are 59 shells and 234 basis functions

Total QAlloc Memory Limit   2000 MB
Mega-Array Size       743 MB
MEM_STATIC part       760 MB

                       Distance Matrix (Angstroms)
             Si(  1)   F (  2)   F (  3)   F (  4)
   F (  2)  1.578951
   F (  3)  1.578951  2.578417
   F (  4)  1.578951  2.578417  2.578417
   F (  5)  1.578951  2.578417  2.578417  2.578417
 
 A cutoff of  1.0D-08 yielded   1420 shell pairs
 There are  23083 function pairs ( 31060 Cartesian)
Evaluating contribution to one-electron hamiltonian from nuclear
 Smallest overlap matrix eigenvalue = 1.53E-04
 Multipole matrices computed through 2nd order

  Scale SEOQF with 1.000000e-01/1.000000e-01/1.000000e-01

 Standard Electronic Orientation quadrupole field applied
 Guess from superposition of atomic densities
 Warning:  Energy on first SCF cycle will be non-variational
 An unrestricted hybrid HF-DFT SCF calculation will be
 performed using Pulay DIIS extrapolation
 Exchange:     1.0000 Hartree-Fock + 1.0000 BNL
 Correlation:  1.0000 LYP
 Using SG-1 standard quadrature grid
 SCF converges when DIIS error is below 1.0E-05
 Warning!  Inaccurate integrated density:
   Number of electrons =    51
   Numerical integral  =    50.000108853607
   Relative error      =    -1.9605708753 %
 ---------------------------------------
  Cycle       Energy         DIIS Error
 ---------------------------------------
    1    -685.5252319238      2.86E-02
    2    -684.9472685963      5.21E-03
    3    -684.9937132129      5.14E-03
    4    -685.0830656886      2.93E-04
    5    -685.0863330501      1.60E-04
    6    -685.0872616934      8.91E-05
    7    -685.0876310520      4.27E-05
    8    -685.0877473158      1.25E-05
    9    -685.0877571153      2.19E-06 Convergence criterion met
 ---------------------------------------
 One-Electron    Energy = -1501.5896589428
 Total Coulomb   Energy =   606.6157092803
 Alpha Exchange  Energy =    -7.4241787927
 Beta  Exchange  Energy =    -7.3336235262
 DFT   Exchange  Energy =   -42.0433654056
 DFT Correlation Energy =    -1.9690289134
 Nuclear Repu.   Energy =   268.6563891850
 Nuclear Attr.   Energy = -2184.7046160896
 Kinetic         Energy =   683.1149571468
 <S^2> = 0.7503
 SCF time:  CPU 160.93 s  wall 189.44 s
 Final Alpha MO Eigenvalues
            1           2           3           4           5           6
    1 -65.3924127 -24.2334510 -24.2333513 -24.2332905 -24.2332778  -5.3059251
            7           8           9          10          11          12
    1  -3.7266595  -3.7266367  -3.7266320  -1.2878366  -1.2457046  -1.2456116
           13          14          15          16          17          18
    1  -1.2455711  -0.6319504  -0.5580769  -0.5580206  -0.5580012  -0.5031063
           19          20          21          22          23          24
    1  -0.5031043  -0.4917113  -0.4917015  -0.4916902  -0.4522931  -0.4522756
           25          26          27          28          29          30
    1  -0.4522210   0.0378010   0.1691970   0.1692005   0.1692037   0.3291078
           31
    1   0.3385270
 Final Beta MO Eigenvalues
            1           2           3           4           5           6
    1 -65.3920532 -24.2325160 -24.2324138 -24.2323543 -24.2323409  -5.3055131
            7           8           9          10          11          12
    1  -3.7262643  -3.7262412  -3.7262367  -1.2855977  -1.2430708  -1.2429722
           13          14          15          16          17          18
    1  -1.2429312  -0.6303485  -0.5570235  -0.5569709  -0.5569542  -0.5025093
           19          20          21          22          23          24
    1  -0.5025072  -0.4896215  -0.4896131  -0.4896029  -0.4519945  -0.4519794
           25          26          27          28          29          30
    1  -0.4519241   0.1667101   0.1684419   0.1684530   0.1684758   0.3372566
 Analysis of SCF Wavefunction
 
 --------------------------------------------------------------
                    Orbital Energies (a.u.)
 --------------------------------------------------------------
 
 Alpha MOs
 -- Occupied --
-65.392 -24.233 -24.233 -24.233 -24.233  -5.306  -3.727  -3.727
 -3.727  -1.288  -1.246  -1.246  -1.246  -0.632  -0.558  -0.558
 -0.558  -0.503  -0.503  -0.492  -0.492  -0.492  -0.452  -0.452
 -0.452   0.038
 -- Virtual --
  0.169   0.169   0.169   0.329   0.339   0.339   0.339   0.412
  0.412   0.412   0.413   0.413   0.457   0.460   0.460   0.460
  0.515   0.515   0.515   0.570   0.605   0.605   0.605   0.611
  0.611   0.611   0.631   0.631   0.817   0.817   0.817   0.899
  0.932   0.932   0.932   0.981   0.981   0.981   1.081   1.081
  1.124   1.247   1.248   1.248   1.615   1.615   1.647   1.647
  1.647   1.662   1.662   1.662   1.703   1.706   1.706   1.706
  1.834   1.835   1.835   2.009   2.009   2.009   2.226   2.226
  2.226   2.314   2.315   2.368   2.368   2.368   2.392   2.392
  2.392   2.417   2.534   2.534   2.534   2.754   2.754   2.755
  2.946   2.946   2.946   3.175   3.175   3.175   3.418   3.418
  3.418   3.592   4.026   4.027   4.483   4.485   4.487   6.232
  6.427   6.428   6.522   6.523   6.523   6.556   6.556   6.556
  6.689   6.689   6.689   6.850   6.909   6.909   6.910   6.911
  6.911   6.937   6.945   6.945   6.945   6.953   6.953   6.953
  6.977   6.989   6.989   6.989   7.027   7.027   7.027   7.128
  7.128   7.230   7.230   7.230   7.403   7.404   7.404   7.792
  9.342   9.342   9.364   9.364   9.365   9.464   9.465   9.465
  9.622   9.623   9.623   9.687   9.688   9.688   9.724   9.724
  9.985   9.985   9.985  10.368  12.468  12.469  12.469  17.841
 17.919  18.034  18.112  18.197  22.421  22.426  22.432  22.436
 22.443  22.444  22.505  50.274  50.285  50.286  50.314  50.328
 50.333  50.360  50.374  50.408  50.410  50.420  50.429  50.435
 50.449  50.453  50.460  50.602  50.625  50.650  50.652  55.943
 55.943  55.996  55.996  55.996  56.042  56.042  56.042  56.176
 56.176  56.176  56.215  67.214  67.214  67.214  67.310 142.421
 
 Beta MOs
 -- Occupied --
-65.392 -24.233 -24.232 -24.232 -24.232  -5.306  -3.726  -3.726
 -3.726  -1.286  -1.243  -1.243  -1.243  -0.630  -0.557  -0.557
 -0.557  -0.503  -0.503  -0.490  -0.490  -0.490  -0.452  -0.452
 -0.452
 -- Virtual --
  0.167   0.168   0.168   0.168   0.337   0.337   0.337   0.347
  0.403   0.403   0.403   0.403   0.403   0.444   0.455   0.455
  0.455   0.501   0.501   0.501   0.565   0.594   0.594   0.594
  0.600   0.600   0.600   0.627   0.627   0.807   0.807   0.807
  0.886   0.923   0.923   0.923   0.973   0.973   0.974   1.076
  1.076   1.116   1.248   1.248   1.248   1.612   1.612   1.645
  1.645   1.645   1.659   1.659   1.659   1.699   1.703   1.703
  1.703   1.829   1.829   1.829   2.008   2.008   2.008   2.224
  2.224   2.224   2.314   2.314   2.367   2.367   2.367   2.391
  2.391   2.391   2.415   2.533   2.533   2.533   2.753   2.754
  2.756   2.946   2.946   2.946   3.175   3.175   3.175   3.418
  3.418   3.419   3.592   4.026   4.027   4.483   4.484   4.486
  6.232   6.428   6.428   6.523   6.523   6.523   6.556   6.557
  6.557   6.690   6.690   6.690   6.851   6.910   6.910   6.911
  6.911   6.912   6.938   6.945   6.946   6.946   6.953   6.953
  6.954   6.978   6.989   6.990   6.990   7.027   7.028   7.028
  7.129   7.129   7.231   7.231   7.231   7.405   7.405   7.406
  7.793   9.343   9.343   9.365   9.366   9.366   9.465   9.466
  9.466   9.624   9.624   9.624   9.689   9.689   9.689   9.726
  9.726   9.986   9.987   9.987  10.370  12.468  12.470  12.470
 17.841  17.919  18.034  18.113  18.198  22.421  22.427  22.432
 22.436  22.443  22.444  22.506  50.275  50.285  50.286  50.315
 50.329  50.333  50.361  50.374  50.409  50.410  50.421  50.430
 50.436  50.449  50.454  50.461  50.603  50.626  50.651  50.653
 55.944  55.944  55.996  55.996  55.996  56.043  56.043  56.043
 56.177  56.177  56.177  56.216  67.215  67.215  67.215  67.312
142.421
 --------------------------------------------------------------
 
          Ground-State Mulliken Net Atomic Charges

     Atom                 Charge (a.u.)    Spin (a.u.)
  --------------------------------------------------------
      1 Si                   -0.550910       2.749193
      2 F                    -0.112726      -0.436811
      3 F                    -0.113177      -0.436330
      4 F                    -0.110648      -0.439114
      5 F                    -0.112539      -0.436937
  --------------------------------------------------------
  Sum of atomic charges =    -1.000000
  Sum of spin   charges =     1.000000

 -----------------------------------------------------------------
                    Cartesian Multipole Moments
 -----------------------------------------------------------------
    Charge (ESU x 10^10)
                -4.8032
    Dipole Moment (Debye)
         X      -0.0231      Y      -0.0332      Z      -0.0006
       Tot       0.0404
    Quadrupole Moments (Debye-Ang)
        XX     -49.9656     XY      -0.0042     YY     -49.9745
        XZ      -0.0021     YZ      -0.0034     ZZ     -49.9702
    Octapole Moments (Debye-Ang^2)
       XXX      -2.6001    XXY      -0.1099    XYY       2.3015
       YYY      -0.3298    XXZ       1.6755    XYZ       0.0010
       YYZ       1.6793    XZZ      -0.0750    YZZ      -0.1106
       ZZZ      -3.3672
    Hexadecapole Moments (Debye-Ang^3)
      XXXX    -272.2778   XXXY      -0.0119   XXYY     -90.7821
      XYYY      -0.0317   YYYY    -272.3647   XXXZ       1.7907
      XXYZ      -0.0081   XYYZ      -1.8100   YYYZ      -0.0241
      XXZZ     -89.4926   XYZZ      -0.0058   YYZZ     -89.5051
      XZZZ      -0.0031   YZZZ      -0.0070   ZZZZ    -273.6096
 -----------------------------------------------------------------
 Total job time:  193.00s(wall), 161.24s(cpu) 
 Fri Apr 15 15:39:14 2011

        *************************************************************
        *                                                           *
        *  Thank you very much for using Q-Chem.  Have a nice day.  *
        *                                                           *
        *************************************************************


0 sent ACK to 0 
now end server 0 ... 
 
**********************************************************************
Job 2 of 3 
**********************************************************************
 
Process 0 of 1 is on cl159.stfx.acenet.ca - thread support 1
initial socket setup ...start
initial socket setup ...done 
now start server 0 ... 

cmd = /usr/bin/ssh clhead /usr/local/qchem/bin/get_hostid 922260355 > /globalscratch/itamblyn/bnl/g297_b3lyp_neut_g03Large_worked/g2g71063/omega590/qchem23719/lic.dat
                  Welcome to Q-Chem
     A Quantum Leap Into The Future Of Chemistry

 Y. Shao, L. Fusti-Molnar, Y. Jung, J. Kussmann, C. Ochsenfeld,
 S. T. Brown, A. T. B. Gilbert, L. V. Slipchenko,S. V. Levchenko,
 D. P. O'Neill, R. A. DiStasio Jr., R. C. Lochan, T. Wang,
 G. J. O. Beran, N. A. Besley, J. M. Herbert, C. Y. Lin,
 T. Van Voorhis, S. H. Chien, A. Sodt, R. P. Steele, 
 V. A. Rassolov, P. E. Maslen, P. P. Korambath, R. D. Adamson,
 B. Austin, J. Baker, E. F. C. Byrd, H. Dachsel, R. J. Doerksen,
 A. Dreuw, B. D. Dunietz, A. D. Dutoi, T. R. Furlani,
 S. R. Gwaltney, A. Heyden, S. Hirata, C.-P. Hsu, G. Kedziora,
 R. Z. Khaliullin, P. Klunzinger, A. M. Lee, M. S. Lee, W. Liang,
 I. Lotan, N. Nair, B. Peters, E. I. Proynov, P. A. Pieniazek, 
 Y. M. Rhee, J. Ritchie, E. Rosta, C. D. Sherrill, 
 A. C. Simmonett, J. E. Subotnik, H. L. Woodcock III,
 W. Zhang, A. T. Bell, A. K. Chakraborty, D. M. Chipman,
 F. J. Keil, A. Warshel, W. J. Hehre, H. F. Schaefer III,
 J. Kong, A. I. Krylov, P. M. W. Gill, M. Head-Gordon,
 Q-Chem, Version 3.1, Q-Chem, Inc., Pittsburgh, PA (2007).

 Additional authors for Version 3.1: 
 Z. Gan, Y. Zhao, N. E. Schultz, D. Truhlar, E. Epifanovsky and M. Oana.

 Additional authors for Version 3.2: 
 R. Baer, B. R. Brooks, D. Casanova, J.-D. Chai, C.-L. Cheng, 
 C. Cramer, D. Crittenden, A. Ghysels, G. Hawkins, E. G. Hohenstein, 
 C. Kelley, W. Kurlancheek, D. Liotard, E. Livshits, P. Manohar, 
 A. Marenich, D. Neuhauser, R. Olson, M. A. Rohrdanz, K. S. Thanthiriwatte, 
 A. J. W. Thom, V. Vanovschi, C. F. Williams, Q. Wu and Z.-Q. You. 


 Intel X86 Linux Version

 Q-chem begins on Fri Apr 15 15:39:17 2011  

 Parallel job on  1  processors
Processing $rem in /usr/local/qchem/config/preferences.

theFileMan(): MAXOPENFILES=974 MAX_SUB_FILE_NUM=16
Maximum size of a physical file is 2.0 GB, maximum size of a tmp-file is 32.0 GB


--------------------------------------------------------------
User input:
--------------------------------------------------------------

$molecule
0,1
Si
F,1,sif
F,1,sif,2,109.47122063
F,1,sif,2,109.47122063,3,120.,0
F,1,sif,2,109.47122063,3,-120.,0

 sif=1.57895122

$end

$comment
neutral
$end

$xc_functional
   X HF 1.0
   X BNL 1.0
   C LYP 1.0
$end

$rem
SYMMETRY_DECOMPOSITION	0
exchange 		general
BASIS                   g3large
omega			590
separate_jk		true
mem_static              760
max_scf_cycles          200
scf_final_print         1
sym_ignore              true
$end

--------------------------------------------------------------
 Writing REM_CC_EA            5
 ----------------------------------------------------
       Standard Nuclear Orientation (Angstroms)
    I     Atom         X            Y            Z
 ----------------------------------------------------
    1      Si      0.000000     0.000000     0.000000
    2      F       0.000000     0.000000     1.578951
    3      F       1.488649     0.000000    -0.526317
    4      F      -0.744325    -1.289208    -0.526317
    5      F      -0.744325     1.289208    -0.526317
 ----------------------------------------------------
 Nuclear Repulsion Energy =   268.6563891850 hartrees
 There are       25 alpha and       25 beta electrons
 Requested basis set is G3large
 There are 59 shells and 234 basis functions

Total QAlloc Memory Limit   2000 MB
Mega-Array Size       743 MB
MEM_STATIC part       760 MB

                       Distance Matrix (Angstroms)
             Si(  1)   F (  2)   F (  3)   F (  4)
   F (  2)  1.578951
   F (  3)  1.578951  2.578417
   F (  4)  1.578951  2.578417  2.578417
   F (  5)  1.578951  2.578417  2.578417  2.578417
 
 A cutoff of  1.0D-08 yielded   1420 shell pairs
 There are  23083 function pairs ( 31060 Cartesian)
Evaluating contribution to one-electron hamiltonian from nuclear
 Smallest overlap matrix eigenvalue = 1.53E-04
 Multipole matrices computed through 2nd order

  Scale SEOQF with 1.000000e-01/1.000000e-01/1.000000e-01

 Standard Electronic Orientation quadrupole field applied
 Guess from superposition of atomic densities
 Warning:  Energy on first SCF cycle will be non-variational
 A restricted hybrid HF-DFT SCF calculation will be
 performed using Pulay DIIS extrapolation
 Exchange:     1.0000 Hartree-Fock + 1.0000 BNL
 Correlation:  1.0000 LYP
 Using SG-1 standard quadrature grid
 SCF converges when DIIS error is below 1.0E-05
 ---------------------------------------
  Cycle       Energy         DIIS Error
 ---------------------------------------
    1    -685.5252319238      2.86E-02
    2    -685.0124812530      5.00E-03
    3    -685.0576467943      4.48E-03
    4    -685.1242236271      3.73E-04
    5    -685.1248688471      9.49E-05
    6    -685.1249337629      4.08E-05
    7    -685.1249410608      1.50E-05
    8    -685.1249415260      2.72E-06 Convergence criterion met
 ---------------------------------------
 One-Electron    Energy = -1492.4816097873
 Total Coulomb   Energy =   597.3533415734
 Alpha Exchange  Energy =    -7.3379943806
 Beta  Exchange  Energy =    -7.3379943806
 DFT   Exchange  Energy =   -42.0229631491
 DFT Correlation Energy =    -1.9541105868
 Nuclear Repu.   Energy =   268.6563891850
 Nuclear Attr.   Energy = -2175.3408009314
 Kinetic         Energy =   682.8591911441
 SCF time:  CPU 112.45 s  wall 139.30 s
 Final Alpha MO Eigenvalues
            1           2           3           4           5           6
    1 -65.5830099 -24.4159313 -24.4159173 -24.4158931 -24.4158754  -5.4961901
            7           8           9          10          11          12
    1  -3.9169418  -3.9169177  -3.9169129  -1.4697107  -1.4262372  -1.4262215
           13          14          15          16          17          18
    1  -1.4262033  -0.8112849  -0.7381680  -0.7381605  -0.7381550  -0.6842546
           19          20          21          22          23          24
    1  -0.6842528  -0.6706704  -0.6706631  -0.6706544  -0.6332417  -0.6332384
           25          26          27          28          29          30
    1  -0.6332200   0.0336987   0.0600323   0.0600445   0.0600477   0.1834817
 Analysis of SCF Wavefunction
 
 --------------------------------------------------------------
                    Orbital Energies (a.u.)
 --------------------------------------------------------------
 
 Alpha MOs
 -- Occupied --
-65.583 -24.416 -24.416 -24.416 -24.416  -5.496  -3.917  -3.917
 -3.917  -1.470  -1.426  -1.426  -1.426  -0.811  -0.738  -0.738
 -0.738  -0.684  -0.684  -0.671  -0.671  -0.671  -0.633  -0.633
 -0.633
 -- Virtual --
  0.034   0.060   0.060   0.060   0.183   0.188   0.188   0.188
  0.258   0.258   0.262   0.262   0.262   0.296   0.296   0.297
  0.303   0.358   0.358   0.358   0.406   0.432   0.432   0.432
  0.453   0.453   0.453   0.453   0.454   0.649   0.649   0.649
  0.720   0.751   0.751   0.751   0.808   0.808   0.808   0.898
  0.898   0.945   1.063   1.063   1.063   1.440   1.440   1.477
  1.477   1.477   1.486   1.486   1.486   1.528   1.528   1.528
  1.537   1.655   1.656   1.656   1.825   1.825   1.825   2.043
  2.043   2.043   2.134   2.134   2.187   2.187   2.188   2.211
  2.211   2.211   2.235   2.354   2.354   2.354   2.569   2.572
  2.572   2.763   2.763   2.763   2.991   2.992   2.992   3.236
  3.236   3.237   3.411   3.838   3.839   4.299   4.300   4.302
  6.050   6.247   6.247   6.342   6.342   6.342   6.377   6.377
  6.377   6.509   6.509   6.509   6.669   6.728   6.728   6.730
  6.730   6.730   6.757   6.764   6.764   6.764   6.772   6.772
  6.772   6.797   6.808   6.808   6.808   6.846   6.846   6.846
  6.947   6.947   7.049   7.049   7.049   7.221   7.222   7.222
  7.607   9.161   9.161   9.184   9.184   9.184   9.284   9.284
  9.284   9.442   9.442   9.442   9.507   9.507   9.507   9.544
  9.544   9.804   9.804   9.804  10.188  12.279  12.281  12.281
 17.651  17.729  17.844  17.922  18.007  22.231  22.236  22.242
 22.246  22.252  22.254  22.315  50.092  50.103  50.104  50.132
 50.146  50.151  50.178  50.192  50.226  50.228  50.238  50.247
 50.253  50.267  50.271  50.278  50.420  50.443  50.468  50.470
 55.761  55.761  55.813  55.813  55.813  55.860  55.860  55.860
 55.994  55.994  55.994  56.033  67.031  67.031  67.031  67.128
142.231
 --------------------------------------------------------------
 
          Ground-State Mulliken Net Atomic Charges

     Atom                 Charge (a.u.)
  ----------------------------------------
      1 Si                    2.070895
      2 F                    -0.517724
      3 F                    -0.517799
      4 F                    -0.517706
      5 F                    -0.517667
  ----------------------------------------
  Sum of atomic charges =     0.000000

 -----------------------------------------------------------------
                    Cartesian Multipole Moments
 -----------------------------------------------------------------
    Charge (ESU x 10^10)
                 0.0000
    Dipole Moment (Debye)
         X       0.0002      Y       0.0000      Z       0.0000
       Tot       0.0002
    Quadrupole Moments (Debye-Ang)
        XX     -33.2335     XY       0.0001     YY     -33.2346
        XZ      -0.0003     YZ      -0.0001     ZZ     -33.2334
    Octapole Moments (Debye-Ang^2)
       XXX      -3.7568    XXY       0.0001    XYY       3.7562
       YYY       0.0002    XXZ       2.6554    XYZ       0.0000
       YYZ       2.6558    XZZ      -0.0001    YZZ       0.0001
       ZZZ      -5.3115
    Hexadecapole Moments (Debye-Ang^3)
      XXXX    -131.3019   XXXY       0.0002   XXYY     -43.7692
      XYYY       0.0001   YYYY    -131.3050   XXXZ       1.4260
      XXYZ      -0.0001   XYYZ      -1.4275   YYYZ      -0.0002
      XXZZ     -42.7587   XYZZ       0.0000   YYZZ     -42.7590
      XZZZ       0.0003   YZZZ      -0.0003   ZZZZ    -132.3110
 -----------------------------------------------------------------
 Total job time:  142.74s(wall), 112.77s(cpu) 
 Fri Apr 15 15:41:40 2011

        *************************************************************
        *                                                           *
        *  Thank you very much for using Q-Chem.  Have a nice day.  *
        *                                                           *
        *************************************************************


0 sent ACK to 0 
now end server 0 ... 
 
**********************************************************************
Job 3 of 3 
**********************************************************************
 
Process 0 of 1 is on cl159.stfx.acenet.ca - thread support 1
initial socket setup ...start
initial socket setup ...done 
now start server 0 ... 

cmd = /usr/bin/ssh clhead /usr/local/qchem/bin/get_hostid 236269827 > /globalscratch/itamblyn/bnl/g297_b3lyp_neut_g03Large_worked/g2g71063/omega590/qchem23719/lic.dat
                  Welcome to Q-Chem
     A Quantum Leap Into The Future Of Chemistry

 Y. Shao, L. Fusti-Molnar, Y. Jung, J. Kussmann, C. Ochsenfeld,
 S. T. Brown, A. T. B. Gilbert, L. V. Slipchenko,S. V. Levchenko,
 D. P. O'Neill, R. A. DiStasio Jr., R. C. Lochan, T. Wang,
 G. J. O. Beran, N. A. Besley, J. M. Herbert, C. Y. Lin,
 T. Van Voorhis, S. H. Chien, A. Sodt, R. P. Steele, 
 V. A. Rassolov, P. E. Maslen, P. P. Korambath, R. D. Adamson,
 B. Austin, J. Baker, E. F. C. Byrd, H. Dachsel, R. J. Doerksen,
 A. Dreuw, B. D. Dunietz, A. D. Dutoi, T. R. Furlani,
 S. R. Gwaltney, A. Heyden, S. Hirata, C.-P. Hsu, G. Kedziora,
 R. Z. Khaliullin, P. Klunzinger, A. M. Lee, M. S. Lee, W. Liang,
 I. Lotan, N. Nair, B. Peters, E. I. Proynov, P. A. Pieniazek, 
 Y. M. Rhee, J. Ritchie, E. Rosta, C. D. Sherrill, 
 A. C. Simmonett, J. E. Subotnik, H. L. Woodcock III,
 W. Zhang, A. T. Bell, A. K. Chakraborty, D. M. Chipman,
 F. J. Keil, A. Warshel, W. J. Hehre, H. F. Schaefer III,
 J. Kong, A. I. Krylov, P. M. W. Gill, M. Head-Gordon,
 Q-Chem, Version 3.1, Q-Chem, Inc., Pittsburgh, PA (2007).

 Additional authors for Version 3.1: 
 Z. Gan, Y. Zhao, N. E. Schultz, D. Truhlar, E. Epifanovsky and M. Oana.

 Additional authors for Version 3.2: 
 R. Baer, B. R. Brooks, D. Casanova, J.-D. Chai, C.-L. Cheng, 
 C. Cramer, D. Crittenden, A. Ghysels, G. Hawkins, E. G. Hohenstein, 
 C. Kelley, W. Kurlancheek, D. Liotard, E. Livshits, P. Manohar, 
 A. Marenich, D. Neuhauser, R. Olson, M. A. Rohrdanz, K. S. Thanthiriwatte, 
 A. J. W. Thom, V. Vanovschi, C. F. Williams, Q. Wu and Z.-Q. You. 


 Intel X86 Linux Version

 Q-chem begins on Fri Apr 15 15:41:46 2011  

 Parallel job on  1  processors
Processing $rem in /usr/local/qchem/config/preferences.

theFileMan(): MAXOPENFILES=974 MAX_SUB_FILE_NUM=16
Maximum size of a physical file is 2.0 GB, maximum size of a tmp-file is 32.0 GB


--------------------------------------------------------------
User input:
--------------------------------------------------------------

$molecule
1,2
Si
F,1,sif
F,1,sif,2,109.47122063
F,1,sif,2,109.47122063,3,120.,0
F,1,sif,2,109.47122063,3,-120.,0

 sif=1.57895122

$end

$comment
positive
$end

$xc_functional
   X HF 1.0
   X BNL 1.0
   C LYP 1.0
$end

$rem
SYMMETRY_DECOMPOSITION	0
exchange 		general
BASIS                   g3large
omega			590
separate_jk		true
mem_static              760
max_scf_cycles          200
scf_final_print         1
sym_ignore              true
$end

--------------------------------------------------------------
 Writing REM_CC_EA            5
 ----------------------------------------------------
       Standard Nuclear Orientation (Angstroms)
    I     Atom         X            Y            Z
 ----------------------------------------------------
    1      Si      0.000000     0.000000     0.000000
    2      F       0.000000     0.000000     1.578951
    3      F       1.488649     0.000000    -0.526317
    4      F      -0.744325    -1.289208    -0.526317
    5      F      -0.744325     1.289208    -0.526317
 ----------------------------------------------------
 Nuclear Repulsion Energy =   268.6563891850 hartrees
 There are       25 alpha and       24 beta electrons
 Requested basis set is G3large
 There are 59 shells and 234 basis functions

Total QAlloc Memory Limit   2000 MB
Mega-Array Size       743 MB
MEM_STATIC part       760 MB

                       Distance Matrix (Angstroms)
             Si(  1)   F (  2)   F (  3)   F (  4)
   F (  2)  1.578951
   F (  3)  1.578951  2.578417
   F (  4)  1.578951  2.578417  2.578417
   F (  5)  1.578951  2.578417  2.578417  2.578417
 
 A cutoff of  1.0D-08 yielded   1420 shell pairs
 There are  23083 function pairs ( 31060 Cartesian)
Evaluating contribution to one-electron hamiltonian from nuclear
 Smallest overlap matrix eigenvalue = 1.53E-04
 Multipole matrices computed through 2nd order

  Scale SEOQF with 1.000000e-01/1.000000e-01/1.000000e-01

 Standard Electronic Orientation quadrupole field applied
 Guess from superposition of atomic densities
 Warning:  Energy on first SCF cycle will be non-variational
 An unrestricted hybrid HF-DFT SCF calculation will be
 performed using Pulay DIIS extrapolation
 Exchange:     1.0000 Hartree-Fock + 1.0000 BNL
 Correlation:  1.0000 LYP
 Using SG-1 standard quadrature grid
 SCF converges when DIIS error is below 1.0E-05
 Warning!  Inaccurate integrated density:
   Number of electrons =    49
   Numerical integral  =    50.000108853607
   Relative error      =     2.0410384767 %
 ---------------------------------------
  Cycle       Energy         DIIS Error
 ---------------------------------------
    1    -685.5252319238      2.86E-02
    2    -684.2635235985      6.26E-03
    3    -684.0798713401      1.01E-02
    4    -684.4797227582      1.15E-03
    5    -684.4862238684      5.63E-04
    6    -684.4880651515      2.50E-04
    7    -684.4888828935      1.67E-04
    8    -684.4896435779      1.48E-04
    9    -684.4903839172      1.21E-04
   10    -684.4916009308      9.54E-05
   11    -684.4919402842      6.59E-05
   12    -684.4921818236      3.85E-05
   13    -684.4923466549      2.23E-05
   14    -684.4924561444      2.01E-05
   15    -684.4925679901      1.55E-05
   16    -684.4926481098      1.61E-05
   17    -684.4926926436      1.44E-05
   18    -684.4927883556      1.06E-05
   19    -684.4928572066      9.69E-06 Convergence criterion met
 ---------------------------------------
 One-Electron    Energy = -1477.6001755316
 Total Coulomb   Energy =   582.5490591784
 Alpha Exchange  Energy =    -7.3789701849
 Beta  Exchange  Energy =    -6.9790349060
 DFT   Exchange  Energy =   -41.8252387565
 DFT Correlation Energy =    -1.9148861911
 Nuclear Repu.   Energy =   268.6563891850
 Nuclear Attr.   Energy = -2159.9669647109
 Kinetic         Energy =   682.3667891794
 <S^2> = 0.7624
 SCF time:  CPU 340.31 s  wall 388.41 s
 Final Alpha MO Eigenvalues
            1           2           3           4           5           6
    1 -65.8720270 -24.8046675 -24.8023276 -24.6795033 -24.6762086  -5.7848383
            7           8           9          10          11          12
    1  -4.2069117  -4.2055221  -4.2041052  -1.8114780  -1.7880908  -1.6977164
           13          14          15          16          17          18
    1  -1.6792580  -1.1246048  -1.0724020  -1.0709554  -1.0387682  -1.0305054
           19          20          21          22          23          24
    1  -1.0108562  -0.9926727  -0.9516947  -0.9285396  -0.9248486  -0.9072278
           25          26          27          28          29          30
    1  -0.8886396  -0.1732822  -0.1006231  -0.0997017  -0.0989647  -0.0485475
 Final Beta MO Eigenvalues
            1           2           3           4           5           6
    1 -65.8723034 -24.7893538 -24.7872438 -24.6758464 -24.6729227  -5.7852481
            7           8           9          10          11          12
    1  -4.2074608  -4.2060666  -4.2044479  -1.7794239  -1.7490009  -1.6875538
           13          14          15          16          17          18
    1  -1.6712534  -1.1093461  -1.0515656  -1.0229359  -0.9977629  -0.9919509
           19          20          21          22          23          24
    1  -0.9452873  -0.9221897  -0.9044580  -0.8965264  -0.8801612  -0.8690705
           25          26          27          28          29
    1  -0.6321492  -0.1703523  -0.0984755  -0.0937054  -0.0922664
 Analysis of SCF Wavefunction
 
 --------------------------------------------------------------
                    Orbital Energies (a.u.)
 --------------------------------------------------------------
 
 Alpha MOs
 -- Occupied --
-65.872 -24.805 -24.802 -24.680 -24.676  -5.785  -4.207  -4.206
 -4.204  -1.811  -1.788  -1.698  -1.679  -1.125  -1.072  -1.071
 -1.039  -1.031  -1.011  -0.993  -0.952  -0.929  -0.925  -0.907
 -0.889
 -- Virtual --
 -0.173  -0.101  -0.100  -0.099  -0.049  -0.031  -0.025  -0.023
  0.055   0.062   0.068   0.077   0.078   0.101   0.103   0.110
  0.116   0.161   0.174   0.180   0.190   0.201   0.204   0.206
  0.207   0.219   0.270   0.270   0.272   0.432   0.438   0.442
  0.497   0.514   0.515   0.515   0.577   0.579   0.585   0.643
  0.644   0.708   0.763   0.781   0.799   1.165   1.171   1.186
  1.199   1.220   1.234   1.240   1.263   1.276   1.279   1.280
  1.312   1.395   1.403   1.415   1.523   1.546   1.561   1.754
  1.761   1.780   1.828   1.838   1.891   1.905   1.906   1.925
  1.937   1.943   1.966   2.060   2.077   2.094   2.273   2.282
  2.289   2.471   2.482   2.483   2.691   2.710   2.724   2.917
  2.946   2.985   3.136   3.553   3.556   4.015   4.019   4.026
  5.762   5.903   5.926   5.967   6.023   6.059   6.089   6.092
  6.107   6.191   6.201   6.236   6.362   6.377   6.383   6.397
  6.400   6.403   6.403   6.412   6.423   6.474   6.510   6.513
  6.515   6.517   6.522   6.526   6.536   6.545   6.549   6.578
  6.642   6.647   6.712   6.767   6.778   6.919   6.923   6.941
  7.312   8.791   8.809   8.812   8.860   8.902   8.957   8.989
  8.992   9.088   9.124   9.136   9.140   9.208   9.228   9.251
  9.275   9.451   9.493   9.547   9.890  11.984  11.993  11.999
 17.362  17.441  17.556  17.635  17.718  21.941  21.948  21.953
 21.957  21.964  21.965  22.026  49.708  49.732  49.739  49.764
 49.819  49.826  49.833  49.843  49.856  49.881  49.920  49.929
 49.972  49.997  50.002  50.010  50.083  50.085  50.160  50.180
 55.393  55.403  55.421  55.466  55.529  55.565  55.570  55.579
 55.621  55.632  55.732  55.756  66.645  66.677  66.770  66.835
141.942
 
 Beta MOs
 -- Occupied --
-65.872 -24.789 -24.787 -24.676 -24.673  -5.785  -4.207  -4.206
 -4.204  -1.779  -1.749  -1.688  -1.671  -1.109  -1.052  -1.023
 -0.998  -0.992  -0.945  -0.922  -0.904  -0.897  -0.880  -0.869
 -- Virtual --
 -0.632  -0.170  -0.098  -0.094  -0.092  -0.043  -0.030  -0.019
 -0.018   0.060   0.065   0.070   0.079   0.079   0.102   0.104
  0.111   0.117   0.166   0.175   0.181   0.194   0.204   0.207
  0.207   0.209   0.222   0.272   0.272   0.272   0.435   0.439
  0.443   0.499   0.517   0.518   0.519   0.580   0.581   0.587
  0.644   0.644   0.709   0.769   0.785   0.800   1.177   1.185
  1.206   1.212   1.226   1.240   1.247   1.265   1.279   1.282
  1.283   1.315   1.399   1.410   1.420   1.537   1.548   1.562
  1.761   1.770   1.782   1.851   1.857   1.910   1.915   1.921
  1.930   1.952   1.952   1.971   2.074   2.088   2.103   2.285
  2.291   2.295   2.477   2.489   2.491   2.702   2.714   2.726
  2.928   2.953   2.988   3.140   3.554   3.556   4.018   4.021
  4.027   5.767   5.941   5.945   6.015   6.039   6.071   6.100
  6.106   6.112   6.207   6.217   6.242   6.379   6.401   6.410
  6.422   6.430   6.433   6.433   6.445   6.447   6.480   6.518
  6.522   6.525   6.527   6.532   6.535   6.544   6.552   6.560
  6.583   6.651   6.661   6.737   6.774   6.782   6.930   6.934
  6.946   7.318   8.838   8.852   8.859   8.897   8.915   8.979
  9.006   9.014   9.123   9.141   9.154   9.182   9.217   9.242
  9.264   9.281   9.475   9.509   9.552   9.901  11.986  11.993
 12.000  17.361  17.440  17.556  17.635  17.718  21.941  21.948
 21.953  21.957  21.963  21.965  22.026  49.747  49.769  49.779
 49.801  49.849  49.852  49.864  49.867  49.869  49.895  49.932
 49.939  49.977  50.007  50.012  50.014  50.107  50.109  50.165
 50.185  55.413  55.421  55.451  55.477  55.536  55.570  55.573
 55.587  55.632  55.643  55.735  55.758  66.663  66.693  66.774
 66.841 141.941
 --------------------------------------------------------------
 
          Ground-State Mulliken Net Atomic Charges

     Atom                 Charge (a.u.)    Spin (a.u.)
  --------------------------------------------------------
      1 Si                    1.971480      -0.128723
      2 F                    -0.346010       0.099341
      3 F                    -0.341507       0.108604
      4 F                    -0.140858       0.462700
      5 F                    -0.143105       0.458078
  --------------------------------------------------------
  Sum of atomic charges =     1.000000
  Sum of spin   charges =     1.000000

 -----------------------------------------------------------------
                    Cartesian Multipole Moments
 -----------------------------------------------------------------
    Charge (ESU x 10^10)
                 4.8032
    Dipole Moment (Debye)
         X      -1.5376      Y      -0.0155      Z      -1.1279
       Tot       1.9070
    Quadrupole Moments (Debye-Ang)
        XX     -27.4493     XY       0.0344     YY     -24.7261
        XZ       1.0124     YZ      -0.0204     ZZ     -28.2431
    Octapole Moments (Debye-Ang^2)
       XXX      -3.7857    XXY      -0.0102    XYY      -0.8840
       YYY      -0.0400    XXZ       0.0075    XYZ      -0.0099
       YYZ      -0.6576    XZZ      -0.9315    YZZ      -0.0080
       ZZZ      -3.4662
    Hexadecapole Moments (Debye-Ang^3)
      XXXX    -113.7562   XXXY      -0.1323   XXYY     -36.3448
      XYYY       0.1388   YYYY    -103.1223   XXXZ       1.7857
      XXYZ      -0.0111   XYYZ       0.9527   YYYZ      -0.1475
      XXZZ     -37.9977   XYZZ       0.1329   YYZZ     -37.0552
      XZZZ       1.3762   YZZZ       0.0971   ZZZZ    -116.2787
 -----------------------------------------------------------------
 Total job time:  395.30s(wall), 340.64s(cpu) 
 Fri Apr 15 15:48:21 2011

        *************************************************************
        *                                                           *
        *  Thank you very much for using Q-Chem.  Have a nice day.  *
        *                                                           *
        *************************************************************


0 sent ACK to 0 
now end server 0 ... 
