Process 0 of 1 is on cl087.stfx.acenet.ca - thread support 1
initial socket setup ...start
initial socket setup ...done 
now start server 0 ... 

cmd = /usr/bin/ssh clhead /usr/local/qchem/bin/get_hostid 382915054 > /scratch/tmp/5956623.1.short.q/qchem2897/lic.dat
                  Welcome to Q-Chem
     A Quantum Leap Into The Future Of Chemistry

 Y. Shao, L. Fusti-Molnar, Y. Jung, J. Kussmann, C. Ochsenfeld,
 S. T. Brown, A. T. B. Gilbert, L. V. Slipchenko,S. V. Levchenko,
 D. P. O'Neill, R. A. DiStasio Jr., R. C. Lochan, T. Wang,
 G. J. O. Beran, N. A. Besley, J. M. Herbert, C. Y. Lin,
 T. Van Voorhis, S. H. Chien, A. Sodt, R. P. Steele, 
 V. A. Rassolov, P. E. Maslen, P. P. Korambath, R. D. Adamson,
 B. Austin, J. Baker, E. F. C. Byrd, H. Dachsel, R. J. Doerksen,
 A. Dreuw, B. D. Dunietz, A. D. Dutoi, T. R. Furlani,
 S. R. Gwaltney, A. Heyden, S. Hirata, C.-P. Hsu, G. Kedziora,
 R. Z. Khaliullin, P. Klunzinger, A. M. Lee, M. S. Lee, W. Liang,
 I. Lotan, N. Nair, B. Peters, E. I. Proynov, P. A. Pieniazek, 
 Y. M. Rhee, J. Ritchie, E. Rosta, C. D. Sherrill, 
 A. C. Simmonett, J. E. Subotnik, H. L. Woodcock III,
 W. Zhang, A. T. Bell, A. K. Chakraborty, D. M. Chipman,
 F. J. Keil, A. Warshel, W. J. Hehre, H. F. Schaefer III,
 J. Kong, A. I. Krylov, P. M. W. Gill, M. Head-Gordon,
 Q-Chem, Version 3.1, Q-Chem, Inc., Pittsburgh, PA (2007).

 Additional authors for Version 3.1: 
 Z. Gan, Y. Zhao, N. E. Schultz, D. Truhlar, E. Epifanovsky and M. Oana.

 Additional authors for Version 3.2: 
 R. Baer, B. R. Brooks, D. Casanova, J.-D. Chai, C.-L. Cheng, 
 C. Cramer, D. Crittenden, A. Ghysels, G. Hawkins, E. G. Hohenstein, 
 C. Kelley, W. Kurlancheek, D. Liotard, E. Livshits, P. Manohar, 
 A. Marenich, D. Neuhauser, R. Olson, M. A. Rohrdanz, K. S. Thanthiriwatte, 
 A. J. W. Thom, V. Vanovschi, C. F. Williams, Q. Wu and Z.-Q. You. 


 Intel X86 Linux Version

 Q-chem begins on Tue Apr 30 23:03:33 2013  

 Parallel job on  1  processors
Processing $rem in /usr/local/qchem/config/preferences.

theFileMan(): MAXOPENFILES=974 MAX_SUB_FILE_NUM=16
Maximum size of a physical file is 2.0 GB, maximum size of a tmp-file is 32.0 GB


--------------------------------------------------------------
User input:
--------------------------------------------------------------

$molecule
-1,2
S
C,1,rcs
C,1,rcs,2,a1
C,2,rcdc,1,a2,3,0.,0
C,3,rcdc,1,a2,2,0.,0
H,2,r2h,1,a2h,3,180.,0
H,3,r2h,1,a2h,2,180.,0
H,4,r4h,2,a4h,1,180.,0
H,5,r4h,3,a4h,1,180.,0

rcs=1.7360563
rcdc=1.36739579
r2h=1.08161314
r4h=1.08474673
a1=91.51094962
a2=111.49586594
a2h=120.09583864
a4h=123.32881129

$end

$comment
negative
$end

$xc_functional
C PBE   1.00
X wPBE  1.00
$end

$rem
SYMMETRY_DECOMPOSITION	0
exchange 		general
LRC_DFT                 true
BASIS                   g3large
omega			280
mem_static              760
max_scf_cycles          200
scf_final_print         1
sym_ignore              true
$end

--------------------------------------------------------------
 Writing REM_CC_EA            9
 ----------------------------------------------------
       Standard Nuclear Orientation (Angstroms)
    I     Atom         X            Y            Z
 ----------------------------------------------------
    1      S       0.000000     0.000000     0.000000
    2      C       0.000000     0.000000     1.736056
    3      C       1.735453     0.000000    -0.045776
    4      C       1.272285     0.000000     2.237117
    5      C       2.269887     0.000000     1.212855
    6      H      -0.935799     0.000000     2.278429
    7      H       2.252962     0.000000    -0.995551
    8      H       1.494722     0.000000     3.298812
    9      H       3.337078     0.000000     1.407219
 ----------------------------------------------------
 Nuclear Repulsion Energy =   201.6744840342 hartrees
 There are       23 alpha and       22 beta electrons
 Requested basis set is G3large
 There are 83 shells and 274 basis functions

Total QAlloc Memory Limit   2000 MB
Mega-Array Size       743 MB
MEM_STATIC part       760 MB

                       Distance Matrix (Angstroms)
             S (  1)   C (  2)   C (  3)   C (  4)   C (  5)   H (  6)
   C (  2)  1.736056
   C (  3)  1.736056  2.487312
   C (  4)  2.573597  1.367396  2.329404
   C (  5)  2.573597  2.329404  1.367396  1.429798
   H (  6)  2.463119  1.081613  3.540835  2.208470  3.378145
   H (  7)  2.463119  3.540835  1.081613  3.378145  2.208470  4.570244
   H (  8)  3.621651  2.162499  3.353241  1.084747  2.225331  2.636022
   H (  9)  3.621651  3.353241  2.162499  2.225331  1.084747  4.360789
             H (  7)   H (  8)
   H (  8)  4.360789
   H (  9)  2.636022  2.640530
 
 A cutoff of  1.0D-08 yielded   3139 shell pairs
 There are  34972 function pairs ( 45281 Cartesian)
Evaluating contribution to one-electron hamiltonian from nuclear
 Smallest overlap matrix eigenvalue = 5.83E-06

 Q-Chem warning in module mkSTV.C, line 194:

 Overlap eigenvalue is smaller than square root of threshold

 Multipole matrices computed through 2nd order

  Scale SEOQF with 1.000000e-01/1.000000e-01/1.000000e-01

 Standard Electronic Orientation quadrupole field applied
 Nucleus-field energy     =    -0.0000000054 hartrees
 Guess from superposition of atomic densities
 Warning:  Energy on first SCF cycle will be non-variational
 Long-range K will be added via erf
 Coulomb attenuation parameter = 0.28 bohr**(-1)
 An unrestricted Kohn-Sham SCF calculation will be
 performed using Pulay DIIS extrapolation
 Exchange:  wPBE + LR-HF      Correlation:  PBE
 Using SG-1 standard quadrature grid
 SCF converges when DIIS error is below 1.0E-05
 Requested basis set is G3large
 There are 83 shells and 274 basis functions
 A cutoff of  1.0D-08 yielded   3139 shell pairs
 There are  34972 function pairs ( 45281 Cartesian)
 Warning!  Inaccurate integrated density:
   Number of electrons =    45
   Numerical integral  =    44.000436424003
   Relative error      =    -2.2212523911 %
 ---------------------------------------
  Cycle       Energy         DIIS Error
 ---------------------------------------
    1    -554.2416813502      2.79E-02
    2    -552.5808957103      3.54E-03
    3    -552.6096497769      3.56E-03
    4    -552.7311542139      3.77E-04
    5    -552.7330081196      1.15E-04
    6    -552.7334216594      4.45E-05
    7    -552.7335256066      2.34E-05
    8    -552.7335746471      1.23E-05
    9    -552.7336038936      8.02E-06 Convergence criterion met
 ---------------------------------------
 One-Electron    Energy = -1167.0578199308
 Total Coulomb   Energy =   461.5023009616
 Alpha Exchange  Energy =    -3.3771333189
 Beta  Exchange  Energy =    -3.2406718413
 DFT   Exchange  Energy =   -40.6620944623
 DFT Correlation Energy =    -1.5726693308
 Nuclear Repu.   Energy =   201.6744840289
 Nuclear Attr.   Energy = -1718.8001224486
 Kinetic         Energy =   551.7423025178
 <S^2> = 0.7643
 SCF time:  CPU 375.02 s  wall 378.66 s
 Final Alpha MO Eigenvalues
            1           2           3           4           5           6
    1 -88.0042582  -9.8361048  -9.8359411  -9.8346274  -9.8342485  -7.6383812
            7           8           9          10          11          12
    1  -5.6575892  -5.6532916  -5.6502967  -0.7530043  -0.6138162  -0.6045640
           13          14          15          16          17          18
    1  -0.4508517  -0.4379223  -0.4053391  -0.2925112  -0.2775656  -0.2722322
           19          20          21          22          23          24
    1  -0.2635413  -0.2241087  -0.1480232  -0.1366762   0.0444085   0.1506787
           25          26          27          28
    1   0.1518745   0.1596267   0.1677287   0.2164869
 Final Beta MO Eigenvalues
            1           2           3           4           5           6
    1 -88.0036322  -9.8344998  -9.8340854  -9.8309596  -9.8307546  -7.6377541
            7           8           9          10          11          12
    1  -5.6574016  -5.6530833  -5.6481051  -0.7482863  -0.6098467  -0.5964664
           13          14          15          16          17          18
    1  -0.4394209  -0.4341982  -0.4024597  -0.2899436  -0.2695977  -0.2624505
           19          20          21          22          23          24
    1  -0.2605940  -0.2181697  -0.1266225  -0.1039452   0.1513855   0.1520588
           25          26          27
    1   0.1604328   0.1680273   0.2177811
 Analysis of SCF Wavefunction
 
 --------------------------------------------------------------
                    Orbital Energies (a.u.)
 --------------------------------------------------------------
 
 Alpha MOs
 -- Occupied --
-88.004  -9.836  -9.836  -9.835  -9.834  -7.638  -5.658  -5.653
 -5.650  -0.753  -0.614  -0.605  -0.451  -0.438  -0.405  -0.293
 -0.278  -0.272  -0.264  -0.224  -0.148  -0.137   0.044
 -- Virtual --
  0.151   0.152   0.160   0.168   0.216   0.243   0.247   0.252
  0.272   0.274   0.282   0.286   0.292   0.303   0.307   0.312
  0.316   0.319   0.326   0.346   0.352   0.361   0.364   0.381
  0.398   0.408   0.411   0.452   0.503   0.517   0.521   0.522
  0.539   0.580   0.584   0.597   0.626   0.663   0.667   0.673
  0.698   0.732   0.768   0.775   0.779   0.793   0.822   0.842
  0.860   0.869   0.878   0.896   0.904   0.928   0.944   0.946
  0.980   0.981   0.981   0.990   1.001   1.020   1.042   1.074
  1.110   1.117   1.133   1.166   1.192   1.216   1.233   1.257
  1.271   1.292   1.323   1.333   1.361   1.373   1.383   1.406
  1.445   1.456   1.498   1.506   1.507   1.536   1.576   1.582
  1.594   1.603   1.621   1.665   1.668   1.693   1.694   1.732
  1.735   1.777   1.777   1.866   1.927   1.965   2.041   2.070
  2.105   2.134   2.160   2.185   2.428   2.570   2.762   2.844
  2.852   2.913   2.929   2.950   2.968   2.969   3.018   3.020
  3.088   3.091   3.109   3.111   3.145   3.158   3.174   3.200
  3.209   3.245   3.287   3.359   3.410   3.428   3.431   3.465
  3.466   3.518   3.520   3.521   3.535   3.603   3.625   3.650
  3.669   3.671   3.680   3.757   3.759   3.826   3.833   3.858
  3.866   3.870   3.885   3.885   3.935   3.938   3.969   3.974
  3.992   4.045   4.059   4.077   4.120   4.138   4.264   4.310
  4.343   4.360   4.398   4.410   4.461   4.487   4.566   4.665
  4.668   4.713   4.759   4.808   4.841   4.873   4.912   4.996
  5.022   5.035   5.160   5.252   5.254   5.305   5.537   5.574
  5.677   5.827   5.894   6.056   6.062   6.488   8.836  17.254
 17.655  17.716  23.701  23.725  23.731  23.869  23.918  23.948
 24.246  24.637  24.896  27.380  27.453  27.568  27.718  28.086
 28.220  28.269  28.348  28.446  28.573  28.702  28.766  31.043
 31.050  31.055  31.056  31.063  31.089  31.092  41.005  41.047
 41.075  41.098  41.139  41.194  41.204  41.281  41.283  41.290
 41.302  41.313  41.323  41.344  41.365  41.373  41.389  41.478
 41.548  41.653 189.385
 
 Beta MOs
 -- Occupied --
-88.004  -9.834  -9.834  -9.831  -9.831  -7.638  -5.657  -5.653
 -5.648  -0.748  -0.610  -0.596  -0.439  -0.434  -0.402  -0.290
 -0.270  -0.262  -0.261  -0.218  -0.127  -0.104
 -- Virtual --
  0.151   0.152   0.160   0.168   0.218   0.244   0.244   0.254
  0.258   0.277   0.278   0.285   0.287   0.293   0.304   0.308
  0.313   0.317   0.328   0.340   0.349   0.356   0.362   0.376
  0.382   0.402   0.408   0.417   0.453   0.506   0.521   0.523
  0.524   0.551   0.581   0.599   0.601   0.630   0.665   0.672
  0.675   0.701   0.738   0.777   0.780   0.781   0.806   0.827
  0.857   0.866   0.876   0.891   0.900   0.906   0.933   0.949
  0.955   0.983   0.984   0.988   1.001   1.006   1.024   1.046
  1.077   1.120   1.125   1.138   1.172   1.194   1.222   1.237
  1.263   1.274   1.301   1.329   1.336   1.363   1.375   1.387
  1.411   1.446   1.463   1.506   1.511   1.515   1.544   1.585
  1.586   1.595   1.608   1.625   1.670   1.681   1.695   1.704
  1.736   1.738   1.782   1.785   1.867   1.933   1.969   2.044
  2.075   2.114   2.138   2.165   2.190   2.430   2.571   2.766
  2.847   2.860   2.924   2.935   2.962   2.972   2.974   3.027
  3.034   3.093   3.110   3.116   3.118   3.158   3.171   3.179
  3.213   3.221   3.251   3.302   3.370   3.416   3.433   3.438
  3.471   3.473   3.524   3.529   3.530   3.540   3.614   3.628
  3.666   3.675   3.678   3.685   3.760   3.778   3.837   3.851
  3.862   3.872   3.878   3.891   3.898   3.942   3.946   3.978
  3.979   3.998   4.049   4.068   4.085   4.122   4.141   4.268
  4.313   4.346   4.365   4.404   4.418   4.468   4.489   4.572
  4.666   4.672   4.716   4.770   4.810   4.842   4.876   4.923
  4.998   5.027   5.039   5.162   5.253   5.257   5.307   5.540
  5.577   5.678   5.828   5.896   6.058   6.064   6.489   8.837
 17.258  17.655  17.716  23.703  23.726  23.732  23.870  23.919
 23.951  24.249  24.640  24.898  27.386  27.465  27.578  27.723
 28.087  28.223  28.272  28.350  28.448  28.574  28.703  28.767
 31.044  31.051  31.056  31.057  31.064  31.089  31.092  41.011
 41.055  41.081  41.102  41.140  41.195  41.207  41.286  41.286
 41.293  41.307  41.321  41.331  41.346  41.371  41.378  41.390
 41.480  41.549  41.653 189.385
 --------------------------------------------------------------
 
          Ground-State Mulliken Net Atomic Charges

     Atom                 Charge (a.u.)    Spin (a.u.)
  --------------------------------------------------------
      1 S                    -0.482811       0.230001
      2 C                    -0.108445       0.308071
      3 C                    -0.114963       0.315259
      4 C                    -0.297155       0.088519
      5 C                    -0.272260       0.068401
      6 H                     0.051499      -0.000850
      7 H                     0.052502      -0.002229
      8 H                     0.089662      -0.007377
      9 H                     0.081970       0.000206
  --------------------------------------------------------
  Sum of atomic charges =    -1.000000
  Sum of spin   charges =     1.000000

 -----------------------------------------------------------------
                    Cartesian Multipole Moments
 -----------------------------------------------------------------
    Charge (ESU x 10^10)
                -4.8032
    Dipole Moment (Debye)
         X      -4.0360      Y       0.0604      Z      -3.8959
       Tot       5.6099
    Quadrupole Moments (Debye-Ang)
        XX     -50.7700     XY      -0.0131     YY     -48.3268
        XZ      -5.8777     YZ       0.5823     ZZ     -50.1477
    Octapole Moments (Debye-Ang^2)
       XXX    -128.7234    XXY       0.3382    XYY     -43.4800
       YYY       0.5328    XXZ     -45.4508    XYZ       0.8858
       YYZ     -42.2021    XZZ     -46.2016    YZZ       1.3470
       ZZZ    -123.9819
    Hexadecapole Moments (Debye-Ang^3)
      XXXX    -558.9078   XXXY       1.2817   XXYY    -122.6332
      XYYY       0.2068   YYYY     -87.8039   XXXZ    -134.0708
      XXYZ       5.9852   XYYZ     -47.4350   YYYZ       3.8257
      XXZZ    -193.4649   XYZZ       0.0181   YYZZ    -119.0999
      XZZZ    -132.8645   YZZZ       6.3489   ZZZZ    -535.7097
 -----------------------------------------------------------------
 Total job time:  379.11s(wall), 375.45s(cpu) 
 Tue Apr 30 23:09:53 2013

        *************************************************************
        *                                                           *
        *  Thank you very much for using Q-Chem.  Have a nice day.  *
        *                                                           *
        *************************************************************


0 sent ACK to 0 
now end server 0 ... 
 
**********************************************************************
Job 2 of 3 
**********************************************************************
 
Process 0 of 1 is on cl087.stfx.acenet.ca - thread support 1
initial socket setup ...start
initial socket setup ...done 
now start server 0 ... 

cmd = /usr/bin/ssh clhead /usr/local/qchem/bin/get_hostid 1253247141 > /scratch/tmp/5956623.1.short.q/qchem2897/lic.dat
                  Welcome to Q-Chem
     A Quantum Leap Into The Future Of Chemistry

 Y. Shao, L. Fusti-Molnar, Y. Jung, J. Kussmann, C. Ochsenfeld,
 S. T. Brown, A. T. B. Gilbert, L. V. Slipchenko,S. V. Levchenko,
 D. P. O'Neill, R. A. DiStasio Jr., R. C. Lochan, T. Wang,
 G. J. O. Beran, N. A. Besley, J. M. Herbert, C. Y. Lin,
 T. Van Voorhis, S. H. Chien, A. Sodt, R. P. Steele, 
 V. A. Rassolov, P. E. Maslen, P. P. Korambath, R. D. Adamson,
 B. Austin, J. Baker, E. F. C. Byrd, H. Dachsel, R. J. Doerksen,
 A. Dreuw, B. D. Dunietz, A. D. Dutoi, T. R. Furlani,
 S. R. Gwaltney, A. Heyden, S. Hirata, C.-P. Hsu, G. Kedziora,
 R. Z. Khaliullin, P. Klunzinger, A. M. Lee, M. S. Lee, W. Liang,
 I. Lotan, N. Nair, B. Peters, E. I. Proynov, P. A. Pieniazek, 
 Y. M. Rhee, J. Ritchie, E. Rosta, C. D. Sherrill, 
 A. C. Simmonett, J. E. Subotnik, H. L. Woodcock III,
 W. Zhang, A. T. Bell, A. K. Chakraborty, D. M. Chipman,
 F. J. Keil, A. Warshel, W. J. Hehre, H. F. Schaefer III,
 J. Kong, A. I. Krylov, P. M. W. Gill, M. Head-Gordon,
 Q-Chem, Version 3.1, Q-Chem, Inc., Pittsburgh, PA (2007).

 Additional authors for Version 3.1: 
 Z. Gan, Y. Zhao, N. E. Schultz, D. Truhlar, E. Epifanovsky and M. Oana.

 Additional authors for Version 3.2: 
 R. Baer, B. R. Brooks, D. Casanova, J.-D. Chai, C.-L. Cheng, 
 C. Cramer, D. Crittenden, A. Ghysels, G. Hawkins, E. G. Hohenstein, 
 C. Kelley, W. Kurlancheek, D. Liotard, E. Livshits, P. Manohar, 
 A. Marenich, D. Neuhauser, R. Olson, M. A. Rohrdanz, K. S. Thanthiriwatte, 
 A. J. W. Thom, V. Vanovschi, C. F. Williams, Q. Wu and Z.-Q. You. 


 Intel X86 Linux Version

 Q-chem begins on Tue Apr 30 23:09:55 2013  

 Parallel job on  1  processors
Processing $rem in /usr/local/qchem/config/preferences.

theFileMan(): MAXOPENFILES=974 MAX_SUB_FILE_NUM=16
Maximum size of a physical file is 2.0 GB, maximum size of a tmp-file is 32.0 GB


--------------------------------------------------------------
User input:
--------------------------------------------------------------

$molecule
0,1
S
C,1,rcs
C,1,rcs,2,a1
C,2,rcdc,1,a2,3,0.,0
C,3,rcdc,1,a2,2,0.,0
H,2,r2h,1,a2h,3,180.,0
H,3,r2h,1,a2h,2,180.,0
H,4,r4h,2,a4h,1,180.,0
H,5,r4h,3,a4h,1,180.,0

rcs=1.7360563
rcdc=1.36739579
r2h=1.08161314
r4h=1.08474673
a1=91.51094962
a2=111.49586594
a2h=120.09583864
a4h=123.32881129

$end

$comment
neutral
$end

$xc_functional
C PBE   1.00
X wPBE  1.00
$end


$rem
SYMMETRY_DECOMPOSITION	0
LRC_DFT                 true
exchange 		general
BASIS                   g3large
omega			280
mem_static              760
max_scf_cycles          200
scf_final_print         1
sym_ignore              true
$end

--------------------------------------------------------------
 Writing REM_CC_EA            9
 ----------------------------------------------------
       Standard Nuclear Orientation (Angstroms)
    I     Atom         X            Y            Z
 ----------------------------------------------------
    1      S       0.000000     0.000000     0.000000
    2      C       0.000000     0.000000     1.736056
    3      C       1.735453     0.000000    -0.045776
    4      C       1.272285     0.000000     2.237117
    5      C       2.269887     0.000000     1.212855
    6      H      -0.935799     0.000000     2.278429
    7      H       2.252962     0.000000    -0.995551
    8      H       1.494722     0.000000     3.298812
    9      H       3.337078     0.000000     1.407219
 ----------------------------------------------------
 Nuclear Repulsion Energy =   201.6744840342 hartrees
 There are       22 alpha and       22 beta electrons
 Requested basis set is G3large
 There are 83 shells and 274 basis functions

Total QAlloc Memory Limit   2000 MB
Mega-Array Size       743 MB
MEM_STATIC part       760 MB

                       Distance Matrix (Angstroms)
             S (  1)   C (  2)   C (  3)   C (  4)   C (  5)   H (  6)
   C (  2)  1.736056
   C (  3)  1.736056  2.487312
   C (  4)  2.573597  1.367396  2.329404
   C (  5)  2.573597  2.329404  1.367396  1.429798
   H (  6)  2.463119  1.081613  3.540835  2.208470  3.378145
   H (  7)  2.463119  3.540835  1.081613  3.378145  2.208470  4.570244
   H (  8)  3.621651  2.162499  3.353241  1.084747  2.225331  2.636022
   H (  9)  3.621651  3.353241  2.162499  2.225331  1.084747  4.360789
             H (  7)   H (  8)
   H (  8)  4.360789
   H (  9)  2.636022  2.640530
 
 A cutoff of  1.0D-08 yielded   3139 shell pairs
 There are  34972 function pairs ( 45281 Cartesian)
Evaluating contribution to one-electron hamiltonian from nuclear
 Smallest overlap matrix eigenvalue = 5.83E-06

 Q-Chem warning in module mkSTV.C, line 194:

 Overlap eigenvalue is smaller than square root of threshold

 Multipole matrices computed through 2nd order

  Scale SEOQF with 1.000000e-01/1.000000e-01/1.000000e-01

 Standard Electronic Orientation quadrupole field applied
 Nucleus-field energy     =    -0.0000000054 hartrees
 Guess from superposition of atomic densities
 Warning:  Energy on first SCF cycle will be non-variational
 Long-range K will be added via erf
 Coulomb attenuation parameter = 0.28 bohr**(-1)
 A restricted Kohn-Sham SCF calculation will be
 performed using Pulay DIIS extrapolation
 Exchange:  wPBE + LR-HF      Correlation:  PBE
 Using SG-1 standard quadrature grid
 SCF converges when DIIS error is below 1.0E-05
 Requested basis set is G3large
 There are 83 shells and 274 basis functions
 A cutoff of  1.0D-08 yielded   3139 shell pairs
 There are  34972 function pairs ( 45281 Cartesian)
 ---------------------------------------
  Cycle       Energy         DIIS Error
 ---------------------------------------
    1    -554.2416813502      2.79E-02
    2    -552.7068497866      2.57E-03
    3    -552.7284420701      2.29E-03
    4    -552.7768723009      4.20E-04
    5    -552.7788089834      1.40E-04
    6    -552.7790726375      5.79E-05
    7    -552.7791087491      1.69E-05
    8    -552.7791148094      5.47E-06 Convergence criterion met
 ---------------------------------------
 One-Electron    Energy = -1157.7168444192
 Total Coulomb   Energy =   451.8522461910
 Alpha Exchange  Energy =    -3.2494742339
 Beta  Exchange  Energy =    -3.2494742339
 DFT   Exchange  Energy =   -40.5460648639
 DFT Correlation Energy =    -1.5439872784
 Nuclear Repu.   Energy =   201.6744840289
 Nuclear Attr.   Energy = -1709.1781091468
 Kinetic         Energy =   551.4612647276
 SCF time:  CPU 257.25 s  wall 259.66 s
 Final Alpha MO Eigenvalues
            1           2           3           4           5           6
    1 -88.2242311 -10.0684523 -10.0683887 -10.0459410 -10.0457041  -7.8580640
            7           8           9          10          11          12
    1  -5.8771042  -5.8725578  -5.8703750  -0.9673850  -0.8247734  -0.8153988
           13          14          15          16          17          18
    1  -0.6571105  -0.6439240  -0.6097674  -0.5001147  -0.4832628  -0.4810082
           19          20          21          22          23          24
    1  -0.4718603  -0.4308436  -0.3406474  -0.3311841   0.0380433   0.0445905
           25          26          27
    1   0.0457450   0.0541489   0.0644044
 Analysis of SCF Wavefunction
 
 --------------------------------------------------------------
                    Orbital Energies (a.u.)
 --------------------------------------------------------------
 
 Alpha MOs
 -- Occupied --
-88.224 -10.068 -10.068 -10.046 -10.046  -7.858  -5.877  -5.873
 -5.870  -0.967  -0.825  -0.815  -0.657  -0.644  -0.610  -0.500
 -0.483  -0.481  -0.472  -0.431  -0.341  -0.331
 -- Virtual --
  0.038   0.045   0.046   0.054   0.064   0.089   0.097   0.108
  0.108   0.111   0.138   0.142   0.146   0.152   0.167   0.171
  0.174   0.181   0.184   0.188   0.205   0.205   0.207   0.216
  0.226   0.255   0.256   0.270   0.288   0.337   0.339   0.350
  0.366   0.370   0.395   0.411   0.425   0.451   0.487   0.488
  0.495   0.515   0.549   0.585   0.595   0.599   0.611   0.646
  0.659   0.677   0.689   0.689   0.715   0.721   0.744   0.751
  0.763   0.790   0.793   0.806   0.814   0.817   0.836   0.856
  0.883   0.916   0.927   0.944   0.973   1.007   1.024   1.039
  1.060   1.082   1.101   1.130   1.141   1.163   1.191   1.201
  1.216   1.252   1.261   1.306   1.313   1.319   1.340   1.378
  1.387   1.400   1.409   1.435   1.473   1.474   1.501   1.507
  1.534   1.554   1.585   1.588   1.674   1.734   1.773   1.848
  1.876   1.901   1.938   1.962   1.989   2.221   2.367   2.565
  2.641   2.645   2.703   2.721   2.743   2.764   2.767   2.808
  2.813   2.880   2.882   2.900   2.909   2.934   2.950   2.965
  2.992   3.000   3.033   3.078   3.151   3.201   3.219   3.224
  3.255   3.258   3.314   3.314   3.316   3.329   3.395   3.419
  3.440   3.464   3.470   3.475   3.548   3.552   3.616   3.622
  3.652   3.657   3.660   3.676   3.677   3.724   3.734   3.757
  3.769   3.784   3.840   3.849   3.865   3.910   3.932   4.054
  4.100   4.144   4.156   4.192   4.204   4.258   4.278   4.362
  4.457   4.458   4.504   4.547   4.598   4.633   4.669   4.700
  4.789   4.806   4.819   4.949   5.042   5.042   5.099   5.328
  5.362   5.468   5.618   5.685   5.844   5.855   6.282   8.619
 17.036  17.437  17.498  23.481  23.505  23.511  23.650  23.699
 23.728  24.022  24.417  24.679  27.160  27.229  27.348  27.503
 27.872  27.990  28.043  28.124  28.226  28.352  28.480  28.554
 30.823  30.830  30.835  30.836  30.843  30.870  30.872  40.784
 40.823  40.846  40.869  40.924  40.981  40.985  41.059  41.061
 41.071  41.078  41.084  41.100  41.131  41.144  41.154  41.167
 41.250  41.325  41.438 189.165
 --------------------------------------------------------------
 
          Ground-State Mulliken Net Atomic Charges

     Atom                 Charge (a.u.)
  ----------------------------------------
      1 S                    -0.227310
      2 C                     0.015628
      3 C                     0.016726
      4 C                    -0.174159
      5 C                    -0.175849
      6 H                     0.135066
      7 H                     0.135190
      8 H                     0.137424
      9 H                     0.137284
  ----------------------------------------
  Sum of atomic charges =     0.000000

 -----------------------------------------------------------------
                    Cartesian Multipole Moments
 -----------------------------------------------------------------
    Charge (ESU x 10^10)
                 0.0000
    Dipole Moment (Debye)
         X       0.4057      Y       0.0004      Z       0.3946
       Tot       0.5660
    Quadrupole Moments (Debye-Ang)
        XX     -32.3134     XY       0.0010     YY     -40.3103
        XZ      -1.0294     YZ      -0.0002     ZZ     -32.2593
    Octapole Moments (Debye-Ang^2)
       XXX     -84.3381    XXY       0.0003    XYY     -36.1589
       YYY       0.0001    XXZ     -27.0343    XYZ       0.0006
       YYZ     -35.2176    XZZ     -27.7849    YZZ       0.0013
       ZZZ     -82.1699
    Hexadecapole Moments (Debye-Ang^3)
      XXXX    -383.5617   XXXY       0.0039   XXYY     -89.8130
      XYYY       0.0018   YYYY     -50.9862   XXXZ     -88.1876
      XXYZ       0.0017   XYYZ     -36.8414   YYYZ      -0.0008
      XXZZ    -122.7465   XYZZ       0.0003   YYZZ     -87.8691
      XZZZ     -88.4698   YZZZ      -0.0009   ZZZZ    -374.2412
 -----------------------------------------------------------------
 Total job time:  260.08s(wall), 257.66s(cpu) 
 Tue Apr 30 23:14:16 2013

        *************************************************************
        *                                                           *
        *  Thank you very much for using Q-Chem.  Have a nice day.  *
        *                                                           *
        *************************************************************


0 sent ACK to 0 
now end server 0 ... 
 
**********************************************************************
Job 3 of 3 
**********************************************************************
 
Process 0 of 1 is on cl087.stfx.acenet.ca - thread support 1
initial socket setup ...start
initial socket setup ...done 
now start server 0 ... 

cmd = /usr/bin/ssh clhead /usr/local/qchem/bin/get_hostid 712247695 > /scratch/tmp/5956623.1.short.q/qchem2897/lic.dat
                  Welcome to Q-Chem
     A Quantum Leap Into The Future Of Chemistry

 Y. Shao, L. Fusti-Molnar, Y. Jung, J. Kussmann, C. Ochsenfeld,
 S. T. Brown, A. T. B. Gilbert, L. V. Slipchenko,S. V. Levchenko,
 D. P. O'Neill, R. A. DiStasio Jr., R. C. Lochan, T. Wang,
 G. J. O. Beran, N. A. Besley, J. M. Herbert, C. Y. Lin,
 T. Van Voorhis, S. H. Chien, A. Sodt, R. P. Steele, 
 V. A. Rassolov, P. E. Maslen, P. P. Korambath, R. D. Adamson,
 B. Austin, J. Baker, E. F. C. Byrd, H. Dachsel, R. J. Doerksen,
 A. Dreuw, B. D. Dunietz, A. D. Dutoi, T. R. Furlani,
 S. R. Gwaltney, A. Heyden, S. Hirata, C.-P. Hsu, G. Kedziora,
 R. Z. Khaliullin, P. Klunzinger, A. M. Lee, M. S. Lee, W. Liang,
 I. Lotan, N. Nair, B. Peters, E. I. Proynov, P. A. Pieniazek, 
 Y. M. Rhee, J. Ritchie, E. Rosta, C. D. Sherrill, 
 A. C. Simmonett, J. E. Subotnik, H. L. Woodcock III,
 W. Zhang, A. T. Bell, A. K. Chakraborty, D. M. Chipman,
 F. J. Keil, A. Warshel, W. J. Hehre, H. F. Schaefer III,
 J. Kong, A. I. Krylov, P. M. W. Gill, M. Head-Gordon,
 Q-Chem, Version 3.1, Q-Chem, Inc., Pittsburgh, PA (2007).

 Additional authors for Version 3.1: 
 Z. Gan, Y. Zhao, N. E. Schultz, D. Truhlar, E. Epifanovsky and M. Oana.

 Additional authors for Version 3.2: 
 R. Baer, B. R. Brooks, D. Casanova, J.-D. Chai, C.-L. Cheng, 
 C. Cramer, D. Crittenden, A. Ghysels, G. Hawkins, E. G. Hohenstein, 
 C. Kelley, W. Kurlancheek, D. Liotard, E. Livshits, P. Manohar, 
 A. Marenich, D. Neuhauser, R. Olson, M. A. Rohrdanz, K. S. Thanthiriwatte, 
 A. J. W. Thom, V. Vanovschi, C. F. Williams, Q. Wu and Z.-Q. You. 


 Intel X86 Linux Version

 Q-chem begins on Tue Apr 30 23:14:18 2013  

 Parallel job on  1  processors
Processing $rem in /usr/local/qchem/config/preferences.

theFileMan(): MAXOPENFILES=974 MAX_SUB_FILE_NUM=16
Maximum size of a physical file is 2.0 GB, maximum size of a tmp-file is 32.0 GB


--------------------------------------------------------------
User input:
--------------------------------------------------------------

$molecule
1,2
S
C,1,rcs
C,1,rcs,2,a1
C,2,rcdc,1,a2,3,0.,0
C,3,rcdc,1,a2,2,0.,0
H,2,r2h,1,a2h,3,180.,0
H,3,r2h,1,a2h,2,180.,0
H,4,r4h,2,a4h,1,180.,0
H,5,r4h,3,a4h,1,180.,0

rcs=1.7360563
rcdc=1.36739579
r2h=1.08161314
r4h=1.08474673
a1=91.51094962
a2=111.49586594
a2h=120.09583864
a4h=123.32881129

$end

$comment
positive
$end

$xc_functional
C PBE   1.00
X wPBE  1.00
$end

$rem
SYMMETRY_DECOMPOSITION	0
LRC_DFT                 true
exchange 		general
BASIS                   g3large
omega			280
mem_static              760
max_scf_cycles          200
scf_final_print         1
sym_ignore              true
$end

--------------------------------------------------------------
 Writing REM_CC_EA            9
 ----------------------------------------------------
       Standard Nuclear Orientation (Angstroms)
    I     Atom         X            Y            Z
 ----------------------------------------------------
    1      S       0.000000     0.000000     0.000000
    2      C       0.000000     0.000000     1.736056
    3      C       1.735453     0.000000    -0.045776
    4      C       1.272285     0.000000     2.237117
    5      C       2.269887     0.000000     1.212855
    6      H      -0.935799     0.000000     2.278429
    7      H       2.252962     0.000000    -0.995551
    8      H       1.494722     0.000000     3.298812
    9      H       3.337078     0.000000     1.407219
 ----------------------------------------------------
 Nuclear Repulsion Energy =   201.6744840342 hartrees
 There are       22 alpha and       21 beta electrons
 Requested basis set is G3large
 There are 83 shells and 274 basis functions

Total QAlloc Memory Limit   2000 MB
Mega-Array Size       743 MB
MEM_STATIC part       760 MB

                       Distance Matrix (Angstroms)
             S (  1)   C (  2)   C (  3)   C (  4)   C (  5)   H (  6)
   C (  2)  1.736056
   C (  3)  1.736056  2.487312
   C (  4)  2.573597  1.367396  2.329404
   C (  5)  2.573597  2.329404  1.367396  1.429798
   H (  6)  2.463119  1.081613  3.540835  2.208470  3.378145
   H (  7)  2.463119  3.540835  1.081613  3.378145  2.208470  4.570244
   H (  8)  3.621651  2.162499  3.353241  1.084747  2.225331  2.636022
   H (  9)  3.621651  3.353241  2.162499  2.225331  1.084747  4.360789
             H (  7)   H (  8)
   H (  8)  4.360789
   H (  9)  2.636022  2.640530
 
 A cutoff of  1.0D-08 yielded   3139 shell pairs
 There are  34972 function pairs ( 45281 Cartesian)
Evaluating contribution to one-electron hamiltonian from nuclear
 Smallest overlap matrix eigenvalue = 5.83E-06

 Q-Chem warning in module mkSTV.C, line 194:

 Overlap eigenvalue is smaller than square root of threshold

 Multipole matrices computed through 2nd order

  Scale SEOQF with 1.000000e-01/1.000000e-01/1.000000e-01

 Standard Electronic Orientation quadrupole field applied
 Nucleus-field energy     =    -0.0000000054 hartrees
 Guess from superposition of atomic densities
 Warning:  Energy on first SCF cycle will be non-variational
 Long-range K will be added via erf
 Coulomb attenuation parameter = 0.28 bohr**(-1)
 An unrestricted Kohn-Sham SCF calculation will be
 performed using Pulay DIIS extrapolation
 Exchange:  wPBE + LR-HF      Correlation:  PBE
 Using SG-1 standard quadrature grid
 SCF converges when DIIS error is below 1.0E-05
 Requested basis set is G3large
 There are 83 shells and 274 basis functions
 A cutoff of  1.0D-08 yielded   3139 shell pairs
 There are  34972 function pairs ( 45281 Cartesian)
 Warning!  Inaccurate integrated density:
   Number of electrons =    43
   Numerical integral  =    44.000436424003
   Relative error      =     2.3265963349 %
 ---------------------------------------
  Cycle       Energy         DIIS Error
 ---------------------------------------
    1    -554.2416813502      2.79E-02
    2    -552.3849539958      2.02E-03
    3    -552.4239398859      1.50E-03
    4    -552.4440438988      3.17E-04
    5    -552.4462320431      1.28E-04
    6    -552.4465835322      4.35E-05
    7    -552.4467036754      2.44E-05
    8    -552.4467428980      1.21E-05
    9    -552.4467613370      5.66E-06 Convergence criterion met
 ---------------------------------------
 One-Electron    Energy = -1147.1892022141
 Total Coulomb   Energy =   441.3734296397
 Alpha Exchange  Energy =    -3.2573562776
 Beta  Exchange  Energy =    -3.1140198007
 DFT   Exchange  Energy =   -40.4298093355
 DFT Correlation Energy =    -1.5042873777
 Nuclear Repu.   Energy =   201.6744840289
 Nuclear Attr.   Energy = -1698.5341176715
 Kinetic         Energy =   551.3449154574
 <S^2> = 0.7690
 SCF time:  CPU 364.15 s  wall 367.78 s
 Final Alpha MO Eigenvalues
            1           2           3           4           5           6
    1 -88.4548802 -10.3411841 -10.3395064 -10.2922422 -10.2880742  -8.0886076
            7           8           9          10          11          12
    1  -6.1081523  -6.1028535  -6.1003708  -1.2198295  -1.0747380  -1.0604712
           13          14          15          16          17          18
    1  -0.8992403  -0.8819699  -0.8402646  -0.7412908  -0.7369416  -0.7185342
           19          20          21          22          23          24
    1  -0.7059517  -0.6561993  -0.6038410  -0.5670071  -0.1993416  -0.1223982
           25          26          27
    1  -0.1172012  -0.0955382  -0.0734591
 Final Beta MO Eigenvalues
            1           2           3           4           5           6
    1 -88.4553715 -10.3341654 -10.3323293 -10.2909688 -10.2875480  -8.0890168
            7           8           9          10          11          12
    1  -6.1086041  -6.1032916  -6.1012762  -1.2092344  -1.0587468  -1.0513951
           13          14          15          16          17          18
    1  -0.8896779  -0.8747638  -0.8380583  -0.7358534  -0.7157246  -0.7021811
           19          20          21          22          23          24
    1  -0.6938870  -0.6551071  -0.5674009  -0.3327801  -0.1565694  -0.1175561
           25          26
    1  -0.0946782  -0.0912674
 Analysis of SCF Wavefunction
 
 --------------------------------------------------------------
                    Orbital Energies (a.u.)
 --------------------------------------------------------------
 
 Alpha MOs
 -- Occupied --
-88.455 -10.341 -10.340 -10.292 -10.288  -8.089  -6.108  -6.103
 -6.100  -1.220  -1.075  -1.060  -0.899  -0.882  -0.840  -0.741
 -0.737  -0.719  -0.706  -0.656  -0.604  -0.567
 -- Virtual --
 -0.199  -0.122  -0.117  -0.096  -0.073  -0.068  -0.065  -0.053
 -0.045  -0.044  -0.010  -0.005  -0.005   0.006   0.015   0.019
  0.032   0.035   0.038   0.045   0.049   0.053   0.053   0.069
  0.080   0.100   0.113   0.126   0.128   0.137   0.141   0.159
  0.180   0.202   0.209   0.233   0.247   0.266   0.290   0.300
  0.309   0.323   0.351   0.375   0.395   0.397   0.399   0.446
  0.453   0.466   0.473   0.486   0.520   0.523   0.527   0.539
  0.563   0.566   0.585   0.601   0.611   0.625   0.640   0.658
  0.671   0.692   0.715   0.738   0.760   0.804   0.814   0.827
  0.846   0.879   0.889   0.914   0.939   0.948   0.990   1.001
  1.005   1.036   1.042   1.098   1.102   1.116   1.120   1.151
  1.174   1.183   1.195   1.222   1.248   1.261   1.282   1.304
  1.317   1.354   1.365   1.378   1.468   1.520   1.559   1.631
  1.661   1.682   1.715   1.739   1.767   1.995   2.149   2.339
  2.385   2.420   2.451   2.478   2.487   2.525   2.541   2.544
  2.559   2.614   2.637   2.652   2.674   2.675   2.693   2.722
  2.739   2.750   2.791   2.826   2.901   2.957   2.982   2.983
  3.011   3.016   3.064   3.074   3.079   3.094   3.145   3.181
  3.188   3.223   3.238   3.239   3.296   3.314   3.357   3.387
  3.417   3.420   3.421   3.422   3.434   3.482   3.499   3.516
  3.538   3.549   3.603   3.604   3.621   3.674   3.698   3.819
  3.864   3.915   3.922   3.954   3.969   4.026   4.046   4.129
  4.216   4.225   4.263   4.288   4.358   4.400   4.428   4.452
  4.553   4.574   4.584   4.713   4.805   4.811   4.869   5.089
  5.122   5.237   5.383   5.449   5.607   5.622   6.050   8.391
 16.807  17.207  17.268  23.246  23.275  23.281  23.415  23.463
 23.480  23.763  24.160  24.428  26.897  26.957  27.086  27.249
 27.625  27.725  27.779  27.865  27.969  28.098  28.223  28.310
 30.593  30.600  30.604  30.606  30.613  30.639  30.642  40.518
 40.551  40.581  40.606  40.673  40.728  40.738  40.792  40.802
 40.802  40.806  40.811  40.848  40.885  40.888  40.900  40.911
 40.987  41.070  41.191 188.935
 
 Beta MOs
 -- Occupied --
-88.455 -10.334 -10.332 -10.291 -10.288  -8.089  -6.109  -6.103
 -6.101  -1.209  -1.059  -1.051  -0.890  -0.875  -0.838  -0.736
 -0.716  -0.702  -0.694  -0.655  -0.567
 -- Virtual --
 -0.333  -0.157  -0.118  -0.095  -0.091  -0.073  -0.066  -0.065
 -0.049  -0.044  -0.043  -0.005  -0.004  -0.004   0.007   0.016
  0.021   0.034   0.036   0.041   0.048   0.050   0.056   0.057
  0.070   0.081   0.102   0.115   0.127   0.129   0.144   0.147
  0.161   0.188   0.203   0.211   0.237   0.248   0.268   0.293
  0.300   0.311   0.329   0.358   0.383   0.399   0.406   0.416
  0.454   0.461   0.478   0.486   0.494   0.521   0.528   0.535
  0.543   0.567   0.582   0.589   0.608   0.618   0.631   0.645
  0.662   0.676   0.707   0.720   0.739   0.765   0.810   0.817
  0.829   0.849   0.882   0.893   0.921   0.942   0.949   0.993
  1.002   1.011   1.044   1.051   1.101   1.103   1.119   1.130
  1.164   1.176   1.186   1.199   1.229   1.262   1.266   1.291
  1.307   1.322   1.358   1.376   1.383   1.469   1.528   1.566
  1.636   1.665   1.683   1.722   1.745   1.775   1.998   2.150
  2.346   2.403   2.424   2.469   2.488   2.511   2.534   2.545
  2.571   2.580   2.649   2.650   2.665   2.684   2.698   2.718
  2.732   2.761   2.769   2.797   2.847   2.920   2.968   2.988
  2.994   3.020   3.028   3.082   3.085   3.089   3.098   3.165
  3.187   3.209   3.236   3.247   3.248   3.317   3.321   3.385
  3.390   3.424   3.429   3.430   3.444   3.444   3.492   3.505
  3.527   3.543   3.554   3.610   3.614   3.632   3.677   3.704
  3.824   3.867   3.925   3.928   3.965   3.978   4.034   4.048
  4.137   4.221   4.227   4.268   4.309   4.362   4.402   4.442
  4.466   4.557   4.576   4.588   4.716   4.808   4.812   4.871
  5.095   5.127   5.238   5.385   5.452   5.609   5.624   6.052
  8.391  16.806  17.206  17.267  23.246  23.274  23.281  23.416
 23.464  23.483  23.768  24.165  24.432  26.910  26.974  27.097
 27.256  27.626  27.729  27.783  27.868  27.972  28.100  28.226
 28.311  30.592  30.600  30.604  30.606  30.613  30.639  30.642
 40.532  40.567  40.586  40.609  40.677  40.731  40.740  40.803
 40.807  40.815  40.820  40.824  40.852  40.887  40.894  40.905
 40.912  40.990  41.072  41.192 188.934
 --------------------------------------------------------------
 
          Ground-State Mulliken Net Atomic Charges

     Atom                 Charge (a.u.)    Spin (a.u.)
  --------------------------------------------------------
      1 S                    -0.119104      -0.060168
      2 C                     0.253011       0.472464
      3 C                     0.256544       0.484136
      4 C                    -0.085179       0.095861
      5 C                    -0.099609       0.043389
      6 H                     0.202957      -0.013955
      7 H                     0.202499      -0.014455
      8 H                     0.195244      -0.004456
      9 H                     0.193638      -0.002817
  --------------------------------------------------------
  Sum of atomic charges =     1.000000
  Sum of spin   charges =     1.000000

 -----------------------------------------------------------------
                    Cartesian Multipole Moments
 -----------------------------------------------------------------
    Charge (ESU x 10^10)
                 4.8032
    Dipole Moment (Debye)
         X       5.1668      Y       0.0004      Z       5.0868
       Tot       7.2506
    Quadrupole Moments (Debye-Ang)
        XX     -16.9565     XY       0.0004     YY     -35.2432
        XZ       2.4653     YZ       0.0006     ZZ     -16.7817
    Octapole Moments (Debye-Ang^2)
       XXX     -47.5625    XXY       0.0009    XYY     -31.3924
       YYY       0.0002    XXZ     -14.7648    XYZ       0.0020
       YYZ     -30.5351    XZZ     -14.9949    YZZ       0.0008
       ZZZ     -45.4662
    Hexadecapole Moments (Debye-Ang^3)
      XXXX    -261.2858   XXXY       0.0025   XXYY     -75.6395
      XYYY      -0.0001   YYYY     -38.3726   XXXZ     -58.2747
      XXYZ       0.0038   XYYZ     -33.3887   YYYZ       0.0008
      XXZZ     -83.5516   XYZZ       0.0043   YYZZ     -73.5651
      XZZZ     -57.5741   YZZZ       0.0028   ZZZZ    -252.3968
 -----------------------------------------------------------------
 Total job time:  368.21s(wall), 364.56s(cpu) 
 Tue Apr 30 23:20:26 2013

        *************************************************************
        *                                                           *
        *  Thank you very much for using Q-Chem.  Have a nice day.  *
        *                                                           *
        *************************************************************


0 sent ACK to 0 
now end server 0 ... 
