Process 0 of 1 is on cl248.stfx.acenet.ca - thread support 1
initial socket setup ...start
initial socket setup ...done 
now start server 0 ... 

cmd = /usr/bin/ssh clhead /usr/local/qchem/bin/get_hostid 1403509291 > /globalscratch/itamblyn/bnl/g297_b3lyp_neut_g03Large_worked/g2g71005/omega2000/qchem26080/lic.dat
                  Welcome to Q-Chem
     A Quantum Leap Into The Future Of Chemistry

 Y. Shao, L. Fusti-Molnar, Y. Jung, J. Kussmann, C. Ochsenfeld,
 S. T. Brown, A. T. B. Gilbert, L. V. Slipchenko,S. V. Levchenko,
 D. P. O'Neill, R. A. DiStasio Jr., R. C. Lochan, T. Wang,
 G. J. O. Beran, N. A. Besley, J. M. Herbert, C. Y. Lin,
 T. Van Voorhis, S. H. Chien, A. Sodt, R. P. Steele, 
 V. A. Rassolov, P. E. Maslen, P. P. Korambath, R. D. Adamson,
 B. Austin, J. Baker, E. F. C. Byrd, H. Dachsel, R. J. Doerksen,
 A. Dreuw, B. D. Dunietz, A. D. Dutoi, T. R. Furlani,
 S. R. Gwaltney, A. Heyden, S. Hirata, C.-P. Hsu, G. Kedziora,
 R. Z. Khaliullin, P. Klunzinger, A. M. Lee, M. S. Lee, W. Liang,
 I. Lotan, N. Nair, B. Peters, E. I. Proynov, P. A. Pieniazek, 
 Y. M. Rhee, J. Ritchie, E. Rosta, C. D. Sherrill, 
 A. C. Simmonett, J. E. Subotnik, H. L. Woodcock III,
 W. Zhang, A. T. Bell, A. K. Chakraborty, D. M. Chipman,
 F. J. Keil, A. Warshel, W. J. Hehre, H. F. Schaefer III,
 J. Kong, A. I. Krylov, P. M. W. Gill, M. Head-Gordon,
 Q-Chem, Version 3.1, Q-Chem, Inc., Pittsburgh, PA (2007).

 Additional authors for Version 3.1: 
 Z. Gan, Y. Zhao, N. E. Schultz, D. Truhlar, E. Epifanovsky and M. Oana.

 Additional authors for Version 3.2: 
 R. Baer, B. R. Brooks, D. Casanova, J.-D. Chai, C.-L. Cheng, 
 C. Cramer, D. Crittenden, A. Ghysels, G. Hawkins, E. G. Hohenstein, 
 C. Kelley, W. Kurlancheek, D. Liotard, E. Livshits, P. Manohar, 
 A. Marenich, D. Neuhauser, R. Olson, M. A. Rohrdanz, K. S. Thanthiriwatte, 
 A. J. W. Thom, V. Vanovschi, C. F. Williams, Q. Wu and Z.-Q. You. 


 Intel X86 Linux Version

 Q-chem begins on Tue Apr 12 20:21:43 2011  

 Parallel job on  1  processors
Processing $rem in /usr/local/qchem/config/preferences.

theFileMan(): MAXOPENFILES=974 MAX_SUB_FILE_NUM=16
Maximum size of a physical file is 2.0 GB, maximum size of a tmp-file is 32.0 GB


--------------------------------------------------------------
User input:
--------------------------------------------------------------

$molecule
-1,1
C
H,1,CH
H,1,CH,2,120.
H,1,CH,2,120.,3,180.,0

CH=1.08274368

$end

$comment
negative
$end

$xc_functional
   X HF 1.0
   X BNL 1.0
   C LYP 1.0
$end

$rem
SYMMETRY_DECOMPOSITION	0
exchange 		general
BASIS                   g3large
omega			2000
separate_jk		true
mem_static              760
max_scf_cycles          200
scf_final_print         1
sym_ignore              true
$end

--------------------------------------------------------------
 Writing REM_CC_EA            4
 ----------------------------------------------------
       Standard Nuclear Orientation (Angstroms)
    I     Atom         X            Y            Z
 ----------------------------------------------------
    1      C       0.000000     0.000000     0.000000
    2      H       0.000000     0.000000     1.082744
    3      H       0.937684     0.000000    -0.541372
    4      H      -0.937684     0.000000    -0.541372
 ----------------------------------------------------
 Nuclear Repulsion Energy =     9.6437890173 hartrees
 There are        5 alpha and        5 beta electrons
 Requested basis set is G3large
 There are 28 shells and 72 basis functions

Total QAlloc Memory Limit   2000 MB
Mega-Array Size       743 MB
MEM_STATIC part       760 MB

                       Distance Matrix (Angstroms)
             C (  1)   H (  2)   H (  3)
   H (  2)  1.082744
   H (  3)  1.082744  1.875367
   H (  4)  1.082744  1.875367  1.875367
 
 A cutoff of  1.0D-08 yielded    406 shell pairs
 There are   2724 function pairs (  3216 Cartesian)
Evaluating contribution to one-electron hamiltonian from nuclear
 Smallest overlap matrix eigenvalue = 2.92E-03
 Multipole matrices computed through 2nd order

  Scale SEOQF with 1.000000e-01/1.000000e-01/1.000000e-01

 Standard Electronic Orientation quadrupole field applied
 Nucleus-field energy     =    -0.0000000001 hartrees
 Guess from superposition of atomic densities
 Warning:  Energy on first SCF cycle will be non-variational
 A restricted hybrid HF-DFT SCF calculation will be
 performed using Pulay DIIS extrapolation
 Exchange:     1.0000 Hartree-Fock + 1.0000 BNL
 Correlation:  1.0000 LYP
 Using SG-1 standard quadrature grid
 SCF converges when DIIS error is below 1.0E-05
 Warning!  Inaccurate integrated density:
   Number of electrons =    10
   Numerical integral  =     8.999995709326
   Relative error      =   -10.0000429067 %
 ---------------------------------------
  Cycle       Energy         DIIS Error
 ---------------------------------------
    1     -39.5772804779      4.12E-02
    2     -39.5373529112      9.31E-03
    3     -39.5979406839      5.50E-03
    4     -39.6182801470      7.48E-04
    5     -39.6198742174      2.96E-04
    6     -39.6202136759      7.70E-05
    7     -39.6202466936      1.56E-05
    8     -39.6202487163      5.13E-06 Convergence criterion met
 ---------------------------------------
 One-Electron    Energy =   -74.1594958373
 Total Coulomb   Energy =    31.3208443314
 Alpha Exchange  Energy =    -2.2181529762
 Beta  Exchange  Energy =    -2.2181529762
 DFT   Exchange  Energy =    -1.7001433474
 DFT Correlation Energy =    -0.2889369277
 Nuclear Repu.   Energy =     9.6437890172
 Nuclear Attr.   Energy =  -113.3157216733
 Kinetic         Energy =    39.1562258361
 SCF time:  CPU 7.88 s  wall 12.20 s
 Final Alpha MO Eigenvalues
            1           2           3           4           5           6
    1 -10.4409989  -0.6375159  -0.3180582  -0.3180527  -0.0247986   0.1804912
            7           8           9          10
    1   0.2022415   0.2022427   0.3119845   0.3119914
 Analysis of SCF Wavefunction
 
 --------------------------------------------------------------
                    Orbital Energies (a.u.)
 --------------------------------------------------------------
 
 Alpha MOs
 -- Occupied --
-10.441  -0.638  -0.318  -0.318  -0.025
 -- Virtual --
  0.180   0.202   0.202   0.312   0.312   0.317   0.358   0.449
  0.483   0.483   0.775   0.775   0.878   0.978   0.978   0.980
  0.980   0.985   1.025   1.238   1.332   1.366   1.366   1.401
  1.516   1.516   1.751   1.751   1.893   1.893   2.020   2.934
  3.014   3.014   3.300   3.438   3.438   3.486   3.598   3.680
  3.680   3.717   3.765   3.765   3.966   3.966   4.330   4.330
  4.571   4.721   4.722   4.754   4.754   4.759   5.414   5.904
  6.165   6.165  25.160  28.185  29.062  29.062  41.905  41.953
 42.072  42.072  42.189
 --------------------------------------------------------------
 
          Ground-State Mulliken Net Atomic Charges

     Atom                 Charge (a.u.)
  ----------------------------------------
      1 C                    -1.108051
      2 H                     0.036011
      3 H                     0.036019
      4 H                     0.036021
  ----------------------------------------
  Sum of atomic charges =    -1.000000

 -----------------------------------------------------------------
                    Cartesian Multipole Moments
 -----------------------------------------------------------------
    Charge (ESU x 10^10)
                -4.8032
    Dipole Moment (Debye)
         X       0.0000      Y       0.0002      Z       0.0000
       Tot       0.0003
    Quadrupole Moments (Debye-Ang)
        XX     -12.1512     XY       0.0056     YY     -20.2342
        XZ       0.0000     YZ      -0.0002     ZZ     -12.1512
    Octapole Moments (Debye-Ang^2)
       XXX       0.0000    XXY       0.0005    XYY       0.0000
       YYY       0.0015    XXZ      -0.4037    XYZ      -0.0017
       YYZ       0.0000    XZZ       0.0000    YZZ       0.0004
       ZZZ       0.4038
    Hexadecapole Moments (Debye-Ang^3)
      XXXX     -31.8422   XXXY       0.0313   XXYY     -18.0380
      XYYY       0.0302   YYYY     -74.0733   XXXZ       0.0000
      XXYZ      -0.0004   XYYZ       0.0000   YYYZ      -0.0012
      XXZZ     -10.6140   XYZZ       0.0104   YYZZ     -18.0380
      XZZZ       0.0000   YZZZ      -0.0012   ZZZZ     -31.8420
 -----------------------------------------------------------------
 Total job time:  13.12s(wall), 7.96s(cpu) 
 Tue Apr 12 20:21:56 2011

        *************************************************************
        *                                                           *
        *  Thank you very much for using Q-Chem.  Have a nice day.  *
        *                                                           *
        *************************************************************


0 sent ACK to 0 
now end server 0 ... 
 
**********************************************************************
Job 2 of 3 
**********************************************************************
 
Process 0 of 1 is on cl248.stfx.acenet.ca - thread support 1
initial socket setup ...start
initial socket setup ...done 
now start server 0 ... 

cmd = /usr/bin/ssh clhead /usr/local/qchem/bin/get_hostid 1903506648 > /globalscratch/itamblyn/bnl/g297_b3lyp_neut_g03Large_worked/g2g71005/omega2000/qchem26080/lic.dat
                  Welcome to Q-Chem
     A Quantum Leap Into The Future Of Chemistry

 Y. Shao, L. Fusti-Molnar, Y. Jung, J. Kussmann, C. Ochsenfeld,
 S. T. Brown, A. T. B. Gilbert, L. V. Slipchenko,S. V. Levchenko,
 D. P. O'Neill, R. A. DiStasio Jr., R. C. Lochan, T. Wang,
 G. J. O. Beran, N. A. Besley, J. M. Herbert, C. Y. Lin,
 T. Van Voorhis, S. H. Chien, A. Sodt, R. P. Steele, 
 V. A. Rassolov, P. E. Maslen, P. P. Korambath, R. D. Adamson,
 B. Austin, J. Baker, E. F. C. Byrd, H. Dachsel, R. J. Doerksen,
 A. Dreuw, B. D. Dunietz, A. D. Dutoi, T. R. Furlani,
 S. R. Gwaltney, A. Heyden, S. Hirata, C.-P. Hsu, G. Kedziora,
 R. Z. Khaliullin, P. Klunzinger, A. M. Lee, M. S. Lee, W. Liang,
 I. Lotan, N. Nair, B. Peters, E. I. Proynov, P. A. Pieniazek, 
 Y. M. Rhee, J. Ritchie, E. Rosta, C. D. Sherrill, 
 A. C. Simmonett, J. E. Subotnik, H. L. Woodcock III,
 W. Zhang, A. T. Bell, A. K. Chakraborty, D. M. Chipman,
 F. J. Keil, A. Warshel, W. J. Hehre, H. F. Schaefer III,
 J. Kong, A. I. Krylov, P. M. W. Gill, M. Head-Gordon,
 Q-Chem, Version 3.1, Q-Chem, Inc., Pittsburgh, PA (2007).

 Additional authors for Version 3.1: 
 Z. Gan, Y. Zhao, N. E. Schultz, D. Truhlar, E. Epifanovsky and M. Oana.

 Additional authors for Version 3.2: 
 R. Baer, B. R. Brooks, D. Casanova, J.-D. Chai, C.-L. Cheng, 
 C. Cramer, D. Crittenden, A. Ghysels, G. Hawkins, E. G. Hohenstein, 
 C. Kelley, W. Kurlancheek, D. Liotard, E. Livshits, P. Manohar, 
 A. Marenich, D. Neuhauser, R. Olson, M. A. Rohrdanz, K. S. Thanthiriwatte, 
 A. J. W. Thom, V. Vanovschi, C. F. Williams, Q. Wu and Z.-Q. You. 


 Intel X86 Linux Version

 Q-chem begins on Tue Apr 12 20:21:58 2011  

 Parallel job on  1  processors
Processing $rem in /usr/local/qchem/config/preferences.

theFileMan(): MAXOPENFILES=974 MAX_SUB_FILE_NUM=16
Maximum size of a physical file is 2.0 GB, maximum size of a tmp-file is 32.0 GB


--------------------------------------------------------------
User input:
--------------------------------------------------------------

$molecule
0,2
C
H,1,CH
H,1,CH,2,120.
H,1,CH,2,120.,3,180.,0

CH=1.08274368

$end

$comment
neutral
$end

$xc_functional
   X HF 1.0
   X BNL 1.0
   C LYP 1.0
$end

$rem
SYMMETRY_DECOMPOSITION	0
exchange 		general
BASIS                   g3large
omega			2000
separate_jk		true
mem_static              760
max_scf_cycles          200
scf_final_print         1
sym_ignore              true
$end

--------------------------------------------------------------
 Writing REM_CC_EA            4
 ----------------------------------------------------
       Standard Nuclear Orientation (Angstroms)
    I     Atom         X            Y            Z
 ----------------------------------------------------
    1      C       0.000000     0.000000     0.000000
    2      H       0.000000     0.000000     1.082744
    3      H       0.937684     0.000000    -0.541372
    4      H      -0.937684     0.000000    -0.541372
 ----------------------------------------------------
 Nuclear Repulsion Energy =     9.6437890173 hartrees
 There are        5 alpha and        4 beta electrons
 Requested basis set is G3large
 There are 28 shells and 72 basis functions

Total QAlloc Memory Limit   2000 MB
Mega-Array Size       743 MB
MEM_STATIC part       760 MB

                       Distance Matrix (Angstroms)
             C (  1)   H (  2)   H (  3)
   H (  2)  1.082744
   H (  3)  1.082744  1.875367
   H (  4)  1.082744  1.875367  1.875367
 
 A cutoff of  1.0D-08 yielded    406 shell pairs
 There are   2724 function pairs (  3216 Cartesian)
Evaluating contribution to one-electron hamiltonian from nuclear
 Smallest overlap matrix eigenvalue = 2.92E-03
 Multipole matrices computed through 2nd order

  Scale SEOQF with 1.000000e-01/1.000000e-01/1.000000e-01

 Standard Electronic Orientation quadrupole field applied
 Nucleus-field energy     =    -0.0000000001 hartrees
 Guess from superposition of atomic densities
 Warning:  Energy on first SCF cycle will be non-variational
 An unrestricted hybrid HF-DFT SCF calculation will be
 performed using Pulay DIIS extrapolation
 Exchange:     1.0000 Hartree-Fock + 1.0000 BNL
 Correlation:  1.0000 LYP
 Using SG-1 standard quadrature grid
 SCF converges when DIIS error is below 1.0E-05
 ---------------------------------------
  Cycle       Energy         DIIS Error
 ---------------------------------------
    1     -39.5772804779      4.12E-02
    2     -39.6141769979      3.61E-03
    3     -39.6390657809      1.22E-03
    4     -39.6456673608      4.71E-04
    5     -39.6471229143      1.87E-04
    6     -39.6474192070      5.38E-05
    7     -39.6474485254      1.62E-05
    8     -39.6474511933      4.24E-06 Convergence criterion met
 ---------------------------------------
 One-Electron    Energy =   -71.5844186938
 Total Coulomb   Energy =    28.5716667173
 Alpha Exchange  Energy =    -2.3444281740
 Beta  Exchange  Energy =    -1.9703077143
 DFT   Exchange  Energy =    -1.7065057761
 DFT Correlation Energy =    -0.2572465696
 Nuclear Repu.   Energy =     9.6437890172
 Nuclear Attr.   Energy =  -110.7554233844
 Kinetic         Energy =    39.1710046906
 <S^2> = 0.7568
 SCF time:  CPU 9.10 s  wall 18.43 s
 Final Alpha MO Eigenvalues
            1           2           3           4           5           6
    1 -10.7450344  -0.9615315  -0.6076409  -0.6076357  -0.4024851   0.0391957
            7           8           9          10
    1   0.0694557   0.0694626   0.1215291   0.1450140
 Final Beta MO Eigenvalues
            1           2           3           4           5           6
    1 -10.7275296  -0.8859002  -0.5968852  -0.5968832   0.0378324   0.0387518
            7           8           9
    1   0.0686190   0.0686275   0.1420919
 Analysis of SCF Wavefunction
 
 --------------------------------------------------------------
                    Orbital Energies (a.u.)
 --------------------------------------------------------------
 
 Alpha MOs
 -- Occupied --
-10.745  -0.962  -0.608  -0.608  -0.402
 -- Virtual --
  0.039   0.069   0.069   0.122   0.145   0.145   0.180   0.237
  0.276   0.276   0.537   0.537   0.615   0.679   0.697   0.697
  0.729   0.729   0.777   0.987   1.048   1.110   1.110   1.135
  1.239   1.239   1.495   1.495   1.632   1.632   1.750   2.662
  2.731   2.731   2.965   3.132   3.132   3.207   3.284   3.373
  3.373   3.391   3.479   3.479   3.645   3.645   4.051   4.051
  4.289   4.444   4.445   4.465   4.465   4.475   5.136   5.617
  5.884   5.884  24.859  27.875  28.765  28.765  41.595  41.656
 41.765  41.765  41.893
 
 Beta MOs
 -- Occupied --
-10.728  -0.886  -0.597  -0.597
 -- Virtual --
  0.038   0.039   0.069   0.069   0.142   0.142   0.176   0.179
  0.249   0.279   0.279   0.534   0.534   0.641   0.732   0.732
  0.734   0.734   0.753   0.784   0.985   1.069   1.108   1.108
  1.140   1.250   1.250   1.496   1.496   1.636   1.636   1.759
  2.659   2.736   2.736   3.015   3.154   3.154   3.208   3.300
  3.386   3.386   3.431   3.483   3.484   3.677   3.677   4.053
  4.053   4.290   4.445   4.445   4.471   4.471   4.475   5.136
  5.621   5.885   5.885  24.871  27.893  28.771  28.772  41.618
 41.664  41.784  41.784  41.900
 --------------------------------------------------------------
 
          Ground-State Mulliken Net Atomic Charges

     Atom                 Charge (a.u.)    Spin (a.u.)
  --------------------------------------------------------
      1 C                    -0.252016       1.129744
      2 H                     0.084015      -0.043254
      3 H                     0.084002      -0.043241
      4 H                     0.083999      -0.043249
  --------------------------------------------------------
  Sum of atomic charges =     0.000000
  Sum of spin   charges =     1.000000

 -----------------------------------------------------------------
                    Cartesian Multipole Moments
 -----------------------------------------------------------------
    Charge (ESU x 10^10)
                 0.0000
    Dipole Moment (Debye)
         X       0.0000      Y       0.0000      Z       0.0000
       Tot       0.0000
    Quadrupole Moments (Debye-Ang)
        XX      -7.0799     XY       0.0000     YY      -8.9580
        XZ       0.0000     YZ       0.0000     ZZ      -7.0798
    Octapole Moments (Debye-Ang^2)
       XXX       0.0000    XXY       0.0000    XYY       0.0000
       YYY       0.0000    XXZ      -0.9972    XYZ       0.0001
       YYZ       0.0000    XZZ       0.0000    YZZ       0.0000
       ZZZ       0.9972
    Hexadecapole Moments (Debye-Ang^3)
      XXXX     -14.2618   XXXY      -0.0001   XXYY      -4.6540
      XYYY       0.0000   YYYY     -10.9374   XXXZ       0.0000
      XXYZ       0.0000   XYYZ       0.0000   YYYZ       0.0000
      XXZZ      -4.7539   XYZZ       0.0000   YYZZ      -4.6540
      XZZZ       0.0000   YZZZ       0.0000   ZZZZ     -14.2616
 -----------------------------------------------------------------
 Total job time:  19.38s(wall), 9.18s(cpu) 
 Tue Apr 12 20:22:18 2011

        *************************************************************
        *                                                           *
        *  Thank you very much for using Q-Chem.  Have a nice day.  *
        *                                                           *
        *************************************************************


0 sent ACK to 0 
now end server 0 ... 
 
**********************************************************************
Job 3 of 3 
**********************************************************************
 
Process 0 of 1 is on cl248.stfx.acenet.ca - thread support 1
initial socket setup ...start
initial socket setup ...done 
now start server 0 ... 

cmd = /usr/bin/ssh clhead /usr/local/qchem/bin/get_hostid 277367884 > /globalscratch/itamblyn/bnl/g297_b3lyp_neut_g03Large_worked/g2g71005/omega2000/qchem26080/lic.dat
                  Welcome to Q-Chem
     A Quantum Leap Into The Future Of Chemistry

 Y. Shao, L. Fusti-Molnar, Y. Jung, J. Kussmann, C. Ochsenfeld,
 S. T. Brown, A. T. B. Gilbert, L. V. Slipchenko,S. V. Levchenko,
 D. P. O'Neill, R. A. DiStasio Jr., R. C. Lochan, T. Wang,
 G. J. O. Beran, N. A. Besley, J. M. Herbert, C. Y. Lin,
 T. Van Voorhis, S. H. Chien, A. Sodt, R. P. Steele, 
 V. A. Rassolov, P. E. Maslen, P. P. Korambath, R. D. Adamson,
 B. Austin, J. Baker, E. F. C. Byrd, H. Dachsel, R. J. Doerksen,
 A. Dreuw, B. D. Dunietz, A. D. Dutoi, T. R. Furlani,
 S. R. Gwaltney, A. Heyden, S. Hirata, C.-P. Hsu, G. Kedziora,
 R. Z. Khaliullin, P. Klunzinger, A. M. Lee, M. S. Lee, W. Liang,
 I. Lotan, N. Nair, B. Peters, E. I. Proynov, P. A. Pieniazek, 
 Y. M. Rhee, J. Ritchie, E. Rosta, C. D. Sherrill, 
 A. C. Simmonett, J. E. Subotnik, H. L. Woodcock III,
 W. Zhang, A. T. Bell, A. K. Chakraborty, D. M. Chipman,
 F. J. Keil, A. Warshel, W. J. Hehre, H. F. Schaefer III,
 J. Kong, A. I. Krylov, P. M. W. Gill, M. Head-Gordon,
 Q-Chem, Version 3.1, Q-Chem, Inc., Pittsburgh, PA (2007).

 Additional authors for Version 3.1: 
 Z. Gan, Y. Zhao, N. E. Schultz, D. Truhlar, E. Epifanovsky and M. Oana.

 Additional authors for Version 3.2: 
 R. Baer, B. R. Brooks, D. Casanova, J.-D. Chai, C.-L. Cheng, 
 C. Cramer, D. Crittenden, A. Ghysels, G. Hawkins, E. G. Hohenstein, 
 C. Kelley, W. Kurlancheek, D. Liotard, E. Livshits, P. Manohar, 
 A. Marenich, D. Neuhauser, R. Olson, M. A. Rohrdanz, K. S. Thanthiriwatte, 
 A. J. W. Thom, V. Vanovschi, C. F. Williams, Q. Wu and Z.-Q. You. 


 Intel X86 Linux Version

 Q-chem begins on Tue Apr 12 20:22:21 2011  

 Parallel job on  1  processors
Processing $rem in /usr/local/qchem/config/preferences.

theFileMan(): MAXOPENFILES=974 MAX_SUB_FILE_NUM=16
Maximum size of a physical file is 2.0 GB, maximum size of a tmp-file is 32.0 GB


--------------------------------------------------------------
User input:
--------------------------------------------------------------

$molecule
1,1
C
H,1,CH
H,1,CH,2,120.
H,1,CH,2,120.,3,180.,0

CH=1.08274368

$end

$comment
positive
$end

$xc_functional
   X HF 1.0
   X BNL 1.0
   C LYP 1.0
$end

$rem
SYMMETRY_DECOMPOSITION	0
exchange 		general
BASIS                   g3large
omega			2000
separate_jk		true
mem_static              760
max_scf_cycles          200
scf_final_print         1
sym_ignore              true
$end

--------------------------------------------------------------
 Writing REM_CC_EA            4
 ----------------------------------------------------
       Standard Nuclear Orientation (Angstroms)
    I     Atom         X            Y            Z
 ----------------------------------------------------
    1      C       0.000000     0.000000     0.000000
    2      H       0.000000     0.000000     1.082744
    3      H       0.937684     0.000000    -0.541372
    4      H      -0.937684     0.000000    -0.541372
 ----------------------------------------------------
 Nuclear Repulsion Energy =     9.6437890173 hartrees
 There are        4 alpha and        4 beta electrons
 Requested basis set is G3large
 There are 28 shells and 72 basis functions

Total QAlloc Memory Limit   2000 MB
Mega-Array Size       743 MB
MEM_STATIC part       760 MB

                       Distance Matrix (Angstroms)
             C (  1)   H (  2)   H (  3)
   H (  2)  1.082744
   H (  3)  1.082744  1.875367
   H (  4)  1.082744  1.875367  1.875367
 
 A cutoff of  1.0D-08 yielded    406 shell pairs
 There are   2724 function pairs (  3216 Cartesian)
Evaluating contribution to one-electron hamiltonian from nuclear
 Smallest overlap matrix eigenvalue = 2.92E-03
 Multipole matrices computed through 2nd order

  Scale SEOQF with 1.000000e-01/1.000000e-01/1.000000e-01

 Standard Electronic Orientation quadrupole field applied
 Nucleus-field energy     =    -0.0000000001 hartrees
 Guess from superposition of atomic densities
 Warning:  Energy on first SCF cycle will be non-variational
 A restricted hybrid HF-DFT SCF calculation will be
 performed using Pulay DIIS extrapolation
 Exchange:     1.0000 Hartree-Fock + 1.0000 BNL
 Correlation:  1.0000 LYP
 Using SG-1 standard quadrature grid
 SCF converges when DIIS error is below 1.0E-05
 Warning!  Inaccurate integrated density:
   Number of electrons =     8
   Numerical integral  =     8.999995709326
   Relative error      =    12.4999463666 %
 ---------------------------------------
  Cycle       Energy         DIIS Error
 ---------------------------------------
    1     -39.5772804779      4.12E-02
    2     -39.2114856689      7.54E-03
    3     -39.2782243717      2.60E-03
    4     -39.2871476552      1.11E-03
    5     -39.2912769396      5.18E-04
    6     -39.2924480443      9.01E-05
    7     -39.2924717863      7.94E-06 Convergence criterion met
 ---------------------------------------
 One-Electron    Energy =   -68.0858502139
 Total Coulomb   Energy =    25.1248968031
 Alpha Exchange  Energy =    -2.0227951595
 Beta  Exchange  Energy =    -2.0227951595
 DFT   Exchange  Energy =    -1.6953792809
 DFT Correlation Energy =    -0.2343377929
 Nuclear Repu.   Energy =     9.6437890172
 Nuclear Attr.   Energy =  -106.9576831221
 Kinetic         Energy =    38.8718329082
 SCF time:  CPU 6.85 s  wall 16.23 s
 Final Alpha MO Eigenvalues
            1           2           3           4           5           6
    1 -11.1960182  -1.3031177  -0.9850907  -0.9850869  -0.3202696  -0.1407455
            7           8           9
    1  -0.0912340  -0.0912326  -0.0567372
 Analysis of SCF Wavefunction
 
 --------------------------------------------------------------
                    Orbital Energies (a.u.)
 --------------------------------------------------------------
 
 Alpha MOs
 -- Occupied --
-11.196  -1.303  -0.985  -0.985
 -- Virtual --
 -0.320  -0.141  -0.091  -0.091  -0.057  -0.050  -0.050  -0.014
  0.011   0.045   0.045   0.261   0.261   0.340   0.383   0.383
  0.397   0.435   0.435   0.491   0.683   0.728   0.800   0.800
  0.824   0.917   0.917   1.184   1.184   1.307   1.307   1.421
  2.314   2.374   2.374   2.564   2.748   2.748   2.842   2.889
  2.978   2.978   2.999   3.100   3.100   3.243   3.243   3.678
  3.678   3.920   4.081   4.081   4.096   4.096   4.110   4.775
  5.239   5.509   5.509  24.409  27.413  28.317  28.317  41.134
 41.208  41.307  41.307  41.445
 --------------------------------------------------------------
 
          Ground-State Mulliken Net Atomic Charges

     Atom                 Charge (a.u.)
  ----------------------------------------
      1 C                     0.402410
      2 H                     0.199187
      3 H                     0.199206
      4 H                     0.199196
  ----------------------------------------
  Sum of atomic charges =     1.000000

 -----------------------------------------------------------------
                    Cartesian Multipole Moments
 -----------------------------------------------------------------
    Charge (ESU x 10^10)
                 4.8032
    Dipole Moment (Debye)
         X       0.0000      Y       0.0000      Z      -0.0001
       Tot       0.0001
    Quadrupole Moments (Debye-Ang)
        XX      -3.9879     XY       0.0000     YY      -4.9649
        XZ       0.0000     YZ       0.0000     ZZ      -3.9880
    Octapole Moments (Debye-Ang^2)
       XXX       0.0001    XXY       0.0000    XYY       0.0000
       YYY       0.0000    XXZ      -1.7886    XYZ       0.0000
       YYZ       0.0000    XZZ       0.0000    YZZ       0.0000
       ZZZ       1.7884
    Hexadecapole Moments (Debye-Ang^3)
      XXXX      -7.5194   XXXY      -0.0001   XXYY      -2.4362
      XYYY       0.0000   YYYY      -3.3270   XXXZ      -0.0001
      XXYZ       0.0000   XYYZ       0.0000   YYYZ       0.0000
      XXZZ      -2.5065   XYZZ       0.0000   YYZZ      -2.4362
      XZZZ      -0.0001   YZZZ       0.0000   ZZZZ      -7.5198
 -----------------------------------------------------------------
 Total job time:  17.35s(wall), 6.94s(cpu) 
 Tue Apr 12 20:22:38 2011

        *************************************************************
        *                                                           *
        *  Thank you very much for using Q-Chem.  Have a nice day.  *
        *                                                           *
        *************************************************************


0 sent ACK to 0 
now end server 0 ... 
