Process 0 of 1 is on cl238.stfx.acenet.ca - thread support 1
initial socket setup ...start
initial socket setup ...done 
now start server 0 ... 

cmd = /usr/bin/ssh clhead /usr/local/qchem/bin/get_hostid 1915543443 > /scratch/tmp/6063781.1.long.q/qchem20536/lic.dat
                  Welcome to Q-Chem
     A Quantum Leap Into The Future Of Chemistry

 Y. Shao, L. Fusti-Molnar, Y. Jung, J. Kussmann, C. Ochsenfeld,
 S. T. Brown, A. T. B. Gilbert, L. V. Slipchenko,S. V. Levchenko,
 D. P. O'Neill, R. A. DiStasio Jr., R. C. Lochan, T. Wang,
 G. J. O. Beran, N. A. Besley, J. M. Herbert, C. Y. Lin,
 T. Van Voorhis, S. H. Chien, A. Sodt, R. P. Steele, 
 V. A. Rassolov, P. E. Maslen, P. P. Korambath, R. D. Adamson,
 B. Austin, J. Baker, E. F. C. Byrd, H. Dachsel, R. J. Doerksen,
 A. Dreuw, B. D. Dunietz, A. D. Dutoi, T. R. Furlani,
 S. R. Gwaltney, A. Heyden, S. Hirata, C.-P. Hsu, G. Kedziora,
 R. Z. Khaliullin, P. Klunzinger, A. M. Lee, M. S. Lee, W. Liang,
 I. Lotan, N. Nair, B. Peters, E. I. Proynov, P. A. Pieniazek, 
 Y. M. Rhee, J. Ritchie, E. Rosta, C. D. Sherrill, 
 A. C. Simmonett, J. E. Subotnik, H. L. Woodcock III,
 W. Zhang, A. T. Bell, A. K. Chakraborty, D. M. Chipman,
 F. J. Keil, A. Warshel, W. J. Hehre, H. F. Schaefer III,
 J. Kong, A. I. Krylov, P. M. W. Gill, M. Head-Gordon,
 Q-Chem, Version 3.1, Q-Chem, Inc., Pittsburgh, PA (2007).

 Additional authors for Version 3.1: 
 Z. Gan, Y. Zhao, N. E. Schultz, D. Truhlar, E. Epifanovsky and M. Oana.

 Additional authors for Version 3.2: 
 R. Baer, B. R. Brooks, D. Casanova, J.-D. Chai, C.-L. Cheng, 
 C. Cramer, D. Crittenden, A. Ghysels, G. Hawkins, E. G. Hohenstein, 
 C. Kelley, W. Kurlancheek, D. Liotard, E. Livshits, P. Manohar, 
 A. Marenich, D. Neuhauser, R. Olson, M. A. Rohrdanz, K. S. Thanthiriwatte, 
 A. J. W. Thom, V. Vanovschi, C. F. Williams, Q. Wu and Z.-Q. You. 


 Intel X86 Linux Version

 Q-chem begins on Sun Jul  7 08:42:18 2013  

 Parallel job on  1  processors
Processing $rem in /usr/local/qchem/config/preferences.

theFileMan(): MAXOPENFILES=974 MAX_SUB_FILE_NUM=16
Maximum size of a physical file is 2.0 GB, maximum size of a tmp-file is 32.0 GB


--------------------------------------------------------------
User input:
--------------------------------------------------------------

$molecule
-1,1
N          0.00399        0.00000        0.00166
O          0.00042        0.00000        1.19663
O          0.86345        0.00000       -0.82843
$end

$comment
negative
$end

$xc_functional
C PBE   1.00
X wPBE  1.00
$end

$rem
SYMMETRY_DECOMPOSITION	0
exchange 		general
LRC_DFT                 true
BASIS                   g3large
omega			2000
mem_static              760
max_scf_cycles          200
scf_final_print         1
sym_ignore              true
$end

--------------------------------------------------------------
 Writing REM_CC_EA            3
 ----------------------------------------------------
       Standard Nuclear Orientation (Angstroms)
    I     Atom         X            Y            Z
 ----------------------------------------------------
    1      N       0.003990     0.000000     0.001660
    2      O       0.000420     0.000000     1.196630
    3      O       0.863450     0.000000    -0.828430
 ----------------------------------------------------
 Nuclear Repulsion Energy =    64.9848850742 hartrees
 There are       12 alpha and       12 beta electrons
 Requested basis set is G3large
 There are 30 shells and 126 basis functions

Total QAlloc Memory Limit   2000 MB
Mega-Array Size       743 MB
MEM_STATIC part       760 MB

                       Distance Matrix (Angstroms)
             N (  1)   O (  2)
   O (  2)  1.194975
   O (  3)  1.194873  2.201293
 
 A cutoff of  1.0D-08 yielded    433 shell pairs
 There are   7808 function pairs ( 10265 Cartesian)
Evaluating contribution to one-electron hamiltonian from nuclear
 Smallest overlap matrix eigenvalue = 1.55E-03
 Multipole matrices computed through 2nd order

  Scale SEOQF with 1.000000e-01/1.000000e-01/1.000000e-01

 Standard Electronic Orientation quadrupole field applied
 Nucleus-field energy     =    -0.0000000016 hartrees
 Guess from superposition of atomic densities
 Warning:  Energy on first SCF cycle will be non-variational
 Long-range K will be added via erf
 Coulomb attenuation parameter = 2 bohr**(-1)
 A restricted Kohn-Sham SCF calculation will be
 performed using Pulay DIIS extrapolation
 Exchange:  wPBE + LR-HF      Correlation:  PBE
 Using SG-1 standard quadrature grid
 SCF converges when DIIS error is below 1.0E-05
 Requested basis set is G3large
 There are 30 shells and 126 basis functions
 A cutoff of  1.0D-08 yielded    433 shell pairs
 There are   7808 function pairs ( 10265 Cartesian)
 Warning!  Inaccurate integrated density:
   Number of electrons =    24
   Numerical integral  =    23.000032766208
   Relative error      =    -4.1665301408 %
 ---------------------------------------
  Cycle       Energy         DIIS Error
 ---------------------------------------
    1    -205.7195901272      4.89E-02
    2    -204.8354548379      8.76E-03
    3    -204.9019222708      5.98E-03
    4    -204.9462290069      7.75E-04
    5    -204.9482702499      2.48E-04
    6    -204.9486483288      8.93E-05
    7    -204.9487037729      3.96E-05
    8    -204.9487146041      2.13E-05
    9    -204.9487174203      9.94E-06 Convergence criterion met
 ---------------------------------------
 One-Electron    Energy =  -416.5470436332
 Total Coulomb   Energy =   170.7207650941
 Alpha Exchange  Energy =    -7.0049602371
 Beta  Exchange  Energy =    -7.0049602371
 DFT   Exchange  Energy =    -9.2784219455
 DFT Correlation Energy =    -0.8189815341
 Nuclear Repu.   Energy =    64.9848850726
 Nuclear Attr.   Energy =  -621.0156701231
 Kinetic         Energy =   204.4686264899
 SCF time:  CPU 22.57 s  wall 24.53 s
 Final Alpha MO Eigenvalues
            1           2           3           4           5           6
    1 -19.4876752 -19.4875529 -14.8553935  -1.3435013  -1.1659029  -0.6314088
            7           8           9          10          11          12
    1  -0.4928256  -0.4916927  -0.4591464  -0.2784648  -0.2470285  -0.1260894
           13          14          15          16          17
    1   0.2922754   0.3097877   0.3440390   0.3490249   0.3733481
 Analysis of SCF Wavefunction
 
 --------------------------------------------------------------
                    Orbital Energies (a.u.)
 --------------------------------------------------------------
 
 Alpha MOs
 -- Occupied --
-19.488 -19.488 -14.855  -1.344  -1.166  -0.631  -0.493  -0.492
 -0.459  -0.278  -0.247  -0.126
 -- Virtual --
  0.292   0.310   0.344   0.349   0.373   0.448   0.449   0.467
  0.486   0.518   0.521   0.631   0.678   0.779   0.948   1.133
  1.152   1.204   1.285   1.390   1.390   1.449   1.452   1.454
  1.519   1.528   1.540   1.585   1.902   1.970   1.979   2.012
  2.062   2.097   2.206   2.374   2.554   2.724   2.792   2.945
  2.974   3.139   4.047   4.061   4.236   4.238   4.298   4.321
  4.606   4.606   4.994   5.028   5.104   5.127   5.291   5.305
  5.350   5.625   5.634   5.642   5.648   5.670   5.700   5.710
  5.769   5.962   6.053   6.106   6.132   6.186   6.362   6.824
  7.111   7.449   7.455   7.478   7.502   7.564   7.719   7.775
  7.821   7.845   7.912   8.111   8.286   8.486   8.829  36.835
 38.218  38.415  39.265  41.291  41.351  41.415  41.589  41.662
 44.638  44.650  44.677  44.688  44.740  44.780  44.786  44.825
 44.924  44.970  46.656  46.660  46.671  46.811  47.292  47.631
 51.069  51.136
 --------------------------------------------------------------
 
          Ground-State Mulliken Net Atomic Charges

     Atom                 Charge (a.u.)
  ----------------------------------------
      1 N                    -0.344405
      2 O                    -0.327839
      3 O                    -0.327755
  ----------------------------------------
  Sum of atomic charges =    -1.000000

 -----------------------------------------------------------------
                    Cartesian Multipole Moments
 -----------------------------------------------------------------
    Charge (ESU x 10^10)
                -4.8032
    Dipole Moment (Debye)
         X      -1.5653      Y       0.0008      Z      -0.6677
       Tot       1.7017
    Quadrupole Moments (Debye-Ang)
        XX     -21.6442     XY      -0.0036     YY     -17.3763
        XZ       1.5010     YZ      -0.0012     ZZ     -24.5273
    Octapole Moments (Debye-Ang^2)
       XXX     -18.5800    XXY      -0.0023    XYY      -5.1129
       YYY      -0.0005    XXZ      -0.6144    XYZ       0.0008
       YYZ      -2.1797    XZZ      -7.2751    YZZ      -0.0031
       ZZZ     -10.4071
    Hexadecapole Moments (Debye-Ang^3)
      XXXX     -52.3898   XXXY      -0.0070   XXYY     -10.9041
      XYYY      -0.0041   YYYY     -16.5758   XXXZ      13.5134
      XXYZ       0.0011   XYYZ       4.0591   YYYZ      -0.0009
      XXZZ     -25.7206   XYZZ      -0.0033   YYZZ     -18.6997
      XZZZ      12.3795   YZZZ      -0.0039   ZZZZ    -102.1177
 -----------------------------------------------------------------
 Total job time:  24.72s(wall), 22.70s(cpu) 
 Sun Jul  7 08:42:43 2013

        *************************************************************
        *                                                           *
        *  Thank you very much for using Q-Chem.  Have a nice day.  *
        *                                                           *
        *************************************************************


0 sent ACK to 0 
now end server 0 ... 
 
**********************************************************************
Job 2 of 3 
**********************************************************************
 
Process 0 of 1 is on cl238.stfx.acenet.ca - thread support 1
initial socket setup ...start
initial socket setup ...done 
now start server 0 ... 

cmd = /usr/bin/ssh clhead /usr/local/qchem/bin/get_hostid 145615751 > /scratch/tmp/6063781.1.long.q/qchem20536/lic.dat
                  Welcome to Q-Chem
     A Quantum Leap Into The Future Of Chemistry

 Y. Shao, L. Fusti-Molnar, Y. Jung, J. Kussmann, C. Ochsenfeld,
 S. T. Brown, A. T. B. Gilbert, L. V. Slipchenko,S. V. Levchenko,
 D. P. O'Neill, R. A. DiStasio Jr., R. C. Lochan, T. Wang,
 G. J. O. Beran, N. A. Besley, J. M. Herbert, C. Y. Lin,
 T. Van Voorhis, S. H. Chien, A. Sodt, R. P. Steele, 
 V. A. Rassolov, P. E. Maslen, P. P. Korambath, R. D. Adamson,
 B. Austin, J. Baker, E. F. C. Byrd, H. Dachsel, R. J. Doerksen,
 A. Dreuw, B. D. Dunietz, A. D. Dutoi, T. R. Furlani,
 S. R. Gwaltney, A. Heyden, S. Hirata, C.-P. Hsu, G. Kedziora,
 R. Z. Khaliullin, P. Klunzinger, A. M. Lee, M. S. Lee, W. Liang,
 I. Lotan, N. Nair, B. Peters, E. I. Proynov, P. A. Pieniazek, 
 Y. M. Rhee, J. Ritchie, E. Rosta, C. D. Sherrill, 
 A. C. Simmonett, J. E. Subotnik, H. L. Woodcock III,
 W. Zhang, A. T. Bell, A. K. Chakraborty, D. M. Chipman,
 F. J. Keil, A. Warshel, W. J. Hehre, H. F. Schaefer III,
 J. Kong, A. I. Krylov, P. M. W. Gill, M. Head-Gordon,
 Q-Chem, Version 3.1, Q-Chem, Inc., Pittsburgh, PA (2007).

 Additional authors for Version 3.1: 
 Z. Gan, Y. Zhao, N. E. Schultz, D. Truhlar, E. Epifanovsky and M. Oana.

 Additional authors for Version 3.2: 
 R. Baer, B. R. Brooks, D. Casanova, J.-D. Chai, C.-L. Cheng, 
 C. Cramer, D. Crittenden, A. Ghysels, G. Hawkins, E. G. Hohenstein, 
 C. Kelley, W. Kurlancheek, D. Liotard, E. Livshits, P. Manohar, 
 A. Marenich, D. Neuhauser, R. Olson, M. A. Rohrdanz, K. S. Thanthiriwatte, 
 A. J. W. Thom, V. Vanovschi, C. F. Williams, Q. Wu and Z.-Q. You. 


 Intel X86 Linux Version

 Q-chem begins on Sun Jul  7 08:42:46 2013  

 Parallel job on  1  processors
Processing $rem in /usr/local/qchem/config/preferences.

theFileMan(): MAXOPENFILES=974 MAX_SUB_FILE_NUM=16
Maximum size of a physical file is 2.0 GB, maximum size of a tmp-file is 32.0 GB


--------------------------------------------------------------
User input:
--------------------------------------------------------------

$molecule
0,2
N          0.00399        0.00000        0.00166
O          0.00042        0.00000        1.19663
O          0.86345        0.00000       -0.82843
$end

$comment
neutral
$end

$xc_functional
C PBE   1.00
X wPBE  1.00
$end


$rem
SYMMETRY_DECOMPOSITION	0
LRC_DFT                 true
exchange 		general
BASIS                   g3large
omega			2000
mem_static              760
max_scf_cycles          200
scf_final_print         1
sym_ignore              true
$end

--------------------------------------------------------------
 Writing REM_CC_EA            3
 ----------------------------------------------------
       Standard Nuclear Orientation (Angstroms)
    I     Atom         X            Y            Z
 ----------------------------------------------------
    1      N       0.003990     0.000000     0.001660
    2      O       0.000420     0.000000     1.196630
    3      O       0.863450     0.000000    -0.828430
 ----------------------------------------------------
 Nuclear Repulsion Energy =    64.9848850742 hartrees
 There are       12 alpha and       11 beta electrons
 Requested basis set is G3large
 There are 30 shells and 126 basis functions

Total QAlloc Memory Limit   2000 MB
Mega-Array Size       743 MB
MEM_STATIC part       760 MB

                       Distance Matrix (Angstroms)
             N (  1)   O (  2)
   O (  2)  1.194975
   O (  3)  1.194873  2.201293
 
 A cutoff of  1.0D-08 yielded    433 shell pairs
 There are   7808 function pairs ( 10265 Cartesian)
Evaluating contribution to one-electron hamiltonian from nuclear
 Smallest overlap matrix eigenvalue = 1.55E-03
 Multipole matrices computed through 2nd order

  Scale SEOQF with 1.000000e-01/1.000000e-01/1.000000e-01

 Standard Electronic Orientation quadrupole field applied
 Nucleus-field energy     =    -0.0000000016 hartrees
 Guess from superposition of atomic densities
 Warning:  Energy on first SCF cycle will be non-variational
 Long-range K will be added via erf
 Coulomb attenuation parameter = 2 bohr**(-1)
 An unrestricted Kohn-Sham SCF calculation will be
 performed using Pulay DIIS extrapolation
 Exchange:  wPBE + LR-HF      Correlation:  PBE
 Using SG-1 standard quadrature grid
 SCF converges when DIIS error is below 1.0E-05
 Requested basis set is G3large
 There are 30 shells and 126 basis functions
 A cutoff of  1.0D-08 yielded    433 shell pairs
 There are   7808 function pairs ( 10265 Cartesian)
 ---------------------------------------
  Cycle       Energy         DIIS Error
 ---------------------------------------
    1    -205.7195901272      4.89E-02
    2    -204.7249066631      9.38E-03
    3    -204.8041619245      7.07E-03
    4    -204.8753935361      1.05E-03
    5    -204.8789299517      3.87E-04
    6    -204.8804933632      1.63E-04
    7    -204.8808630709      6.38E-05
    8    -204.8809398419      5.14E-05
    9    -204.8809817158      2.71E-05
   10    -204.8810135410      2.07E-05
   11    -204.8810341788      1.43E-05
   12    -204.8810487186      8.00E-06 Convergence criterion met
 ---------------------------------------
 One-Electron    Energy =  -408.5874170062
 Total Coulomb   Energy =   162.4276686416
 Alpha Exchange  Energy =    -7.1492063885
 Beta  Exchange  Energy =    -6.5200588907
 DFT   Exchange  Energy =    -9.2529478468
 DFT Correlation Energy =    -0.7839723004
 Nuclear Repu.   Energy =    64.9848850726
 Nuclear Attr.   Energy =  -612.5233043904
 Kinetic         Energy =   203.9358873841
 <S^2> = 0.7681
 SCF time:  CPU 35.35 s  wall 37.99 s
 Final Alpha MO Eigenvalues
            1           2           3           4           5           6
    1 -19.8546088 -19.8531297 -15.2647318  -1.7101035  -1.5291500  -1.0030969
            7           8           9          10          11          12
    1  -0.8732097  -0.8432115  -0.8094034  -0.6349415  -0.5725644  -0.5373426
           13          14          15          16          17
    1   0.0304698   0.0981856   0.1361112   0.1488400   0.1539191
 Final Beta MO Eigenvalues
            1           2           3           4           5           6
    1 -19.8437897 -19.8437151 -15.2491425  -1.6727818  -1.4927931  -0.9247011
            7           8           9          10          11          12
    1  -0.7975641  -0.7939851  -0.7628052  -0.5702029  -0.5412823  -0.0191583
           13          14          15          16
    1   0.0572782   0.1138581   0.1378364   0.1536882
 Analysis of SCF Wavefunction
 
 --------------------------------------------------------------
                    Orbital Energies (a.u.)
 --------------------------------------------------------------
 
 Alpha MOs
 -- Occupied --
-19.855 -19.853 -15.265  -1.710  -1.529  -1.003  -0.873  -0.843
 -0.809  -0.635  -0.573  -0.537
 -- Virtual --
  0.030   0.098   0.136   0.149   0.154   0.249   0.253   0.270
  0.283   0.307   0.330   0.393   0.457   0.457   0.614   0.818
  0.851   0.899   0.981   1.056   1.100   1.137   1.166   1.171
  1.224   1.233   1.251   1.261   1.581   1.658   1.686   1.716
  1.725   1.769   1.879   2.038   2.241   2.381   2.470   2.629
  2.656   2.799   3.678   3.695   3.870   3.889   3.902   3.975
  4.247   4.253   4.620   4.671   4.744   4.766   4.892   4.919
  4.957   5.287   5.292   5.300   5.314   5.338   5.357   5.367
  5.409   5.618   5.698   5.772   5.786   5.840   6.008   6.455
  6.765   7.098   7.101   7.117   7.147   7.211   7.362   7.412
  7.487   7.497   7.572   7.759   7.945   8.137   8.456  36.430
 37.818  37.998  38.867  40.875  40.937  41.019  41.182  41.257
 44.270  44.281  44.311  44.317  44.367  44.420  44.422  44.453
 44.556  44.602  46.288  46.301  46.312  46.442  46.926  47.268
 50.705  50.771
 
 Beta MOs
 -- Occupied --
-19.844 -19.844 -15.249  -1.673  -1.493  -0.925  -0.798  -0.794
 -0.763  -0.570  -0.541
 -- Virtual --
 -0.019   0.057   0.114   0.138   0.154   0.155   0.254   0.255
  0.270   0.292   0.309   0.331   0.400   0.461   0.471   0.666
  0.858   0.860   0.900   1.011   1.075   1.108   1.169   1.175
  1.179   1.248   1.253   1.258   1.264   1.594   1.664   1.694
  1.728   1.759   1.796   1.890   2.061   2.243   2.404   2.482
  2.644   2.667   2.826   3.698   3.713   3.885   3.897   3.957
  3.981   4.261   4.262   4.650   4.681   4.753   4.775   4.936
  4.964   4.996   5.298   5.311   5.313   5.324   5.342   5.373
  5.382   5.438   5.639   5.713   5.777   5.799   5.853   6.019
  6.481   6.771   7.119   7.127   7.148   7.174   7.222   7.394
  7.424   7.491   7.507   7.584   7.785   7.957   8.153   8.479
 36.447  37.825  38.018  38.874  40.898  40.959  41.022  41.196
 41.269  44.287  44.299  44.326  44.338  44.389  44.425  44.433
 44.475  44.570  44.617  46.299  46.303  46.314  46.455  46.934
 47.274  50.715  50.781
 --------------------------------------------------------------
 
          Ground-State Mulliken Net Atomic Charges

     Atom                 Charge (a.u.)    Spin (a.u.)
  --------------------------------------------------------
      1 N                     0.140520       0.497081
      2 O                    -0.071937       0.231171
      3 O                    -0.068583       0.271748
  --------------------------------------------------------
  Sum of atomic charges =     0.000000
  Sum of spin   charges =     1.000000

 -----------------------------------------------------------------
                    Cartesian Multipole Moments
 -----------------------------------------------------------------
    Charge (ESU x 10^10)
                 0.0000
    Dipole Moment (Debye)
         X      -0.6116      Y      -0.0001      Z      -0.2700
       Tot       0.6686
    Quadrupole Moments (Debye-Ang)
        XX     -16.0253     XY       0.0005     YY     -14.7134
        XZ       0.9101     YZ       0.0006     ZZ     -17.7962
    Octapole Moments (Debye-Ang^2)
       XXX     -13.8726    XXY       0.0003    XYY      -4.4526
       YYY       0.0001    XXZ      -1.6704    XYZ       0.0001
       YYZ      -1.8924    XZZ      -4.7991    YZZ       0.0006
       ZZZ      -6.3219
    Hexadecapole Moments (Debye-Ang^3)
      XXXX     -34.9391   XXXY       0.0007   XXYY      -7.5538
      XYYY       0.0002   YYYY     -10.6870   XXXZ      11.3304
      XXYZ       0.0000   XYYZ       3.8298   YYYZ       0.0004
      XXZZ     -19.0506   XYZZ       0.0002   YYZZ     -14.9057
      XZZZ      11.6683   YZZZ       0.0019   ZZZZ     -79.1976
 -----------------------------------------------------------------
 Total job time:  38.14s(wall), 35.47s(cpu) 
 Sun Jul  7 08:43:24 2013

        *************************************************************
        *                                                           *
        *  Thank you very much for using Q-Chem.  Have a nice day.  *
        *                                                           *
        *************************************************************


0 sent ACK to 0 
now end server 0 ... 
 
**********************************************************************
Job 3 of 3 
**********************************************************************
 
Process 0 of 1 is on cl238.stfx.acenet.ca - thread support 1
initial socket setup ...start
initial socket setup ...done 
now start server 0 ... 

cmd = /usr/bin/ssh clhead /usr/local/qchem/bin/get_hostid 1639354060 > /scratch/tmp/6063781.1.long.q/qchem20536/lic.dat
                  Welcome to Q-Chem
     A Quantum Leap Into The Future Of Chemistry

 Y. Shao, L. Fusti-Molnar, Y. Jung, J. Kussmann, C. Ochsenfeld,
 S. T. Brown, A. T. B. Gilbert, L. V. Slipchenko,S. V. Levchenko,
 D. P. O'Neill, R. A. DiStasio Jr., R. C. Lochan, T. Wang,
 G. J. O. Beran, N. A. Besley, J. M. Herbert, C. Y. Lin,
 T. Van Voorhis, S. H. Chien, A. Sodt, R. P. Steele, 
 V. A. Rassolov, P. E. Maslen, P. P. Korambath, R. D. Adamson,
 B. Austin, J. Baker, E. F. C. Byrd, H. Dachsel, R. J. Doerksen,
 A. Dreuw, B. D. Dunietz, A. D. Dutoi, T. R. Furlani,
 S. R. Gwaltney, A. Heyden, S. Hirata, C.-P. Hsu, G. Kedziora,
 R. Z. Khaliullin, P. Klunzinger, A. M. Lee, M. S. Lee, W. Liang,
 I. Lotan, N. Nair, B. Peters, E. I. Proynov, P. A. Pieniazek, 
 Y. M. Rhee, J. Ritchie, E. Rosta, C. D. Sherrill, 
 A. C. Simmonett, J. E. Subotnik, H. L. Woodcock III,
 W. Zhang, A. T. Bell, A. K. Chakraborty, D. M. Chipman,
 F. J. Keil, A. Warshel, W. J. Hehre, H. F. Schaefer III,
 J. Kong, A. I. Krylov, P. M. W. Gill, M. Head-Gordon,
 Q-Chem, Version 3.1, Q-Chem, Inc., Pittsburgh, PA (2007).

 Additional authors for Version 3.1: 
 Z. Gan, Y. Zhao, N. E. Schultz, D. Truhlar, E. Epifanovsky and M. Oana.

 Additional authors for Version 3.2: 
 R. Baer, B. R. Brooks, D. Casanova, J.-D. Chai, C.-L. Cheng, 
 C. Cramer, D. Crittenden, A. Ghysels, G. Hawkins, E. G. Hohenstein, 
 C. Kelley, W. Kurlancheek, D. Liotard, E. Livshits, P. Manohar, 
 A. Marenich, D. Neuhauser, R. Olson, M. A. Rohrdanz, K. S. Thanthiriwatte, 
 A. J. W. Thom, V. Vanovschi, C. F. Williams, Q. Wu and Z.-Q. You. 


 Intel X86 Linux Version

 Q-chem begins on Sun Jul  7 08:43:27 2013  

 Parallel job on  1  processors
Processing $rem in /usr/local/qchem/config/preferences.

theFileMan(): MAXOPENFILES=974 MAX_SUB_FILE_NUM=16
Maximum size of a physical file is 2.0 GB, maximum size of a tmp-file is 32.0 GB


--------------------------------------------------------------
User input:
--------------------------------------------------------------

$molecule
1,1
N          0.00399        0.00000        0.00166
O          0.00042        0.00000        1.19663
O          0.86345        0.00000       -0.82843
$end

$comment
positive
$end

$xc_functional
C PBE   1.00
X wPBE  1.00
$end

$rem
SYMMETRY_DECOMPOSITION	0
LRC_DFT                 true
exchange 		general
BASIS                   g3large
omega			2000
mem_static              760
max_scf_cycles          200
scf_final_print         1
sym_ignore              true
$end

--------------------------------------------------------------
 Writing REM_CC_EA            3
 ----------------------------------------------------
       Standard Nuclear Orientation (Angstroms)
    I     Atom         X            Y            Z
 ----------------------------------------------------
    1      N       0.003990     0.000000     0.001660
    2      O       0.000420     0.000000     1.196630
    3      O       0.863450     0.000000    -0.828430
 ----------------------------------------------------
 Nuclear Repulsion Energy =    64.9848850742 hartrees
 There are       11 alpha and       11 beta electrons
 Requested basis set is G3large
 There are 30 shells and 126 basis functions

Total QAlloc Memory Limit   2000 MB
Mega-Array Size       743 MB
MEM_STATIC part       760 MB

                       Distance Matrix (Angstroms)
             N (  1)   O (  2)
   O (  2)  1.194975
   O (  3)  1.194873  2.201293
 
 A cutoff of  1.0D-08 yielded    433 shell pairs
 There are   7808 function pairs ( 10265 Cartesian)
Evaluating contribution to one-electron hamiltonian from nuclear
 Smallest overlap matrix eigenvalue = 1.55E-03
 Multipole matrices computed through 2nd order

  Scale SEOQF with 1.000000e-01/1.000000e-01/1.000000e-01

 Standard Electronic Orientation quadrupole field applied
 Nucleus-field energy     =    -0.0000000016 hartrees
 Guess from superposition of atomic densities
 Warning:  Energy on first SCF cycle will be non-variational
 Long-range K will be added via erf
 Coulomb attenuation parameter = 2 bohr**(-1)
 A restricted Kohn-Sham SCF calculation will be
 performed using Pulay DIIS extrapolation
 Exchange:  wPBE + LR-HF      Correlation:  PBE
 Using SG-1 standard quadrature grid
 SCF converges when DIIS error is below 1.0E-05
 Requested basis set is G3large
 There are 30 shells and 126 basis functions
 A cutoff of  1.0D-08 yielded    433 shell pairs
 There are   7808 function pairs ( 10265 Cartesian)
 Warning!  Inaccurate integrated density:
   Number of electrons =    22
   Numerical integral  =    23.000032766208
   Relative error      =     4.5456034828 %
 ---------------------------------------
  Cycle       Energy         DIIS Error
 ---------------------------------------
    1    -205.7195901272      4.89E-02
    2    -204.1442331691      1.21E-02
    3    -204.2682194522      9.54E-03
    4    -204.3854650545      1.94E-03
    5    -204.3905125898      4.29E-04
    6    -204.3916979616      2.23E-04
    7    -204.3921027169      1.56E-04
    8    -204.3921835527      6.14E-05
    9    -204.3922306815      3.98E-05
   10    -204.3922589121      3.13E-05
   11    -204.3922999348      1.78E-05
   12    -204.3923163898      4.07E-06 Convergence criterion met
 ---------------------------------------
 One-Electron    Energy =  -399.6347470593
 Total Coulomb   Energy =   153.3958061966
 Alpha Exchange  Energy =    -6.5969992415
 Beta  Exchange  Energy =    -6.5969992415
 DFT   Exchange  Energy =    -9.1952817074
 DFT Correlation Energy =    -0.7489804093
 Nuclear Repu.   Energy =    64.9848850726
 Nuclear Attr.   Energy =  -602.6647974191
 Kinetic         Energy =   203.0300503598
 SCF time:  CPU 29.72 s  wall 32.07 s
 Final Alpha MO Eigenvalues
            1           2           3           4           5           6
    1 -20.2793392 -20.2792308 -15.7020580  -2.0807532  -1.9004148  -1.3199736
            7           8           9          10          11          12
    1  -1.1881997  -1.1839665  -1.1819087  -0.9457076  -0.9292650  -0.4400311
           13          14          15          16
    1  -0.3284266  -0.1061593  -0.0532791  -0.0493496
 Analysis of SCF Wavefunction
 
 --------------------------------------------------------------
                    Orbital Energies (a.u.)
 --------------------------------------------------------------
 
 Alpha MOs
 -- Occupied --
-20.279 -20.279 -15.702  -2.081  -1.900  -1.320  -1.188  -1.184
 -1.182  -0.946  -0.929
 -- Virtual --
 -0.440  -0.328  -0.106  -0.053  -0.049  -0.047   0.029   0.049
  0.066   0.072   0.100   0.109   0.133   0.177   0.234   0.295
  0.533   0.551   0.590   0.682   0.720   0.801   0.838   0.870
  0.879   0.899   0.938   0.939   0.963   1.244   1.320   1.373
  1.391   1.407   1.439   1.529   1.698   1.900   2.038   2.134
  2.297   2.318   2.459   3.307   3.325   3.490   3.521   3.536
  3.603   3.870   3.875   4.244   4.287   4.354   4.383   4.511
  4.539   4.576   4.915   4.921   4.922   4.945   4.969   4.986
  4.994   5.033   5.250   5.320   5.401   5.413   5.463   5.627
  6.070   6.383   6.715   6.719   6.734   6.765   6.829   6.982
  7.018   7.110   7.115   7.195   7.381   7.571   7.754   8.061
 35.999  37.382  37.557  38.432  40.441  40.502  40.583  40.746
 40.821  43.851  43.863  43.893  43.898  43.948  44.001  44.002
 44.033  44.135  44.182  45.861  45.877  45.889  46.014  46.500
 46.844  50.283  50.349
 --------------------------------------------------------------
 
          Ground-State Mulliken Net Atomic Charges

     Atom                 Charge (a.u.)
  ----------------------------------------
      1 N                     0.344440
      2 O                     0.327688
      3 O                     0.327872
  ----------------------------------------
  Sum of atomic charges =     1.000000

 -----------------------------------------------------------------
                    Cartesian Multipole Moments
 -----------------------------------------------------------------
    Charge (ESU x 10^10)
                 4.8032
    Dipole Moment (Debye)
         X       0.6927      Y       0.0000      Z       0.2943
       Tot       0.7526
    Quadrupole Moments (Debye-Ang)
        XX     -11.8704     XY       0.0000     YY     -13.0018
        XZ      -0.2603     YZ      -0.0001     ZZ     -11.3709
    Octapole Moments (Debye-Ang^2)
       XXX     -10.0716    XXY       0.0001    XYY      -3.9343
       YYY       0.0000    XXZ      -2.7333    XYZ      -0.0001
       YYZ      -1.6771    XZZ      -2.6621    YZZ      -0.0001
       ZZZ      -2.6952
    Hexadecapole Moments (Debye-Ang^3)
      XXXX     -25.6510   XXXY       0.0002   XXYY      -6.0455
      XYYY       0.0000   YYYY      -8.2894   XXXZ       8.4075
      XXYZ      -0.0001   XYYZ       3.3627   YYYZ      -0.0001
      XXZZ     -14.4593   XYZZ      -0.0001   YYZZ     -12.5032
      XZZZ       9.9237   YZZZ      -0.0002   ZZZZ     -60.8535
 -----------------------------------------------------------------
 Total job time:  32.23s(wall), 29.83s(cpu) 
 Sun Jul  7 08:43:59 2013

        *************************************************************
        *                                                           *
        *  Thank you very much for using Q-Chem.  Have a nice day.  *
        *                                                           *
        *************************************************************


0 sent ACK to 0 
now end server 0 ... 
