Process 0 of 1 is on cl225.stfx.acenet.ca - thread support 1
initial socket setup ...start
initial socket setup ...done 
now start server 0 ... 

cmd = /usr/bin/ssh clhead /usr/local/qchem/bin/get_hostid 1053152114 > /scratch/tmp/4825539.1.medium.q/qchem23703/lic.dat
                  Welcome to Q-Chem
     A Quantum Leap Into The Future Of Chemistry

 Y. Shao, L. Fusti-Molnar, Y. Jung, J. Kussmann, C. Ochsenfeld,
 S. T. Brown, A. T. B. Gilbert, L. V. Slipchenko,S. V. Levchenko,
 D. P. O'Neill, R. A. DiStasio Jr., R. C. Lochan, T. Wang,
 G. J. O. Beran, N. A. Besley, J. M. Herbert, C. Y. Lin,
 T. Van Voorhis, S. H. Chien, A. Sodt, R. P. Steele, 
 V. A. Rassolov, P. E. Maslen, P. P. Korambath, R. D. Adamson,
 B. Austin, J. Baker, E. F. C. Byrd, H. Dachsel, R. J. Doerksen,
 A. Dreuw, B. D. Dunietz, A. D. Dutoi, T. R. Furlani,
 S. R. Gwaltney, A. Heyden, S. Hirata, C.-P. Hsu, G. Kedziora,
 R. Z. Khaliullin, P. Klunzinger, A. M. Lee, M. S. Lee, W. Liang,
 I. Lotan, N. Nair, B. Peters, E. I. Proynov, P. A. Pieniazek, 
 Y. M. Rhee, J. Ritchie, E. Rosta, C. D. Sherrill, 
 A. C. Simmonett, J. E. Subotnik, H. L. Woodcock III,
 W. Zhang, A. T. Bell, A. K. Chakraborty, D. M. Chipman,
 F. J. Keil, A. Warshel, W. J. Hehre, H. F. Schaefer III,
 J. Kong, A. I. Krylov, P. M. W. Gill, M. Head-Gordon,
 Q-Chem, Version 3.1, Q-Chem, Inc., Pittsburgh, PA (2007).

 Additional authors for Version 3.1: 
 Z. Gan, Y. Zhao, N. E. Schultz, D. Truhlar, E. Epifanovsky and M. Oana.

 Additional authors for Version 3.2: 
 R. Baer, B. R. Brooks, D. Casanova, J.-D. Chai, C.-L. Cheng, 
 C. Cramer, D. Crittenden, A. Ghysels, G. Hawkins, E. G. Hohenstein, 
 C. Kelley, W. Kurlancheek, D. Liotard, E. Livshits, P. Manohar, 
 A. Marenich, D. Neuhauser, R. Olson, M. A. Rohrdanz, K. S. Thanthiriwatte, 
 A. J. W. Thom, V. Vanovschi, C. F. Williams, Q. Wu and Z.-Q. You. 


 Intel X86 Linux Version

 Q-chem begins on Mon Nov 14 19:15:16 2011  

 Parallel job on  1  processors
Processing $rem in /usr/local/qchem/config/preferences.

theFileMan(): MAXOPENFILES=974 MAX_SUB_FILE_NUM=16
Maximum size of a physical file is 2.0 GB, maximum size of a tmp-file is 32.0 GB


--------------------------------------------------------------
User input:
--------------------------------------------------------------

$molecule
-1,1
C
C,1,CC
H,1,CH1,2,H1CC
X,1,1.,2,XCC,3,180.,0
H,1,CH2,4,HCX,2,90.,0
H,1,CH2,4,HCX,2,-90.,0
X,2,1.,1,90.,3,0.,0
O,2,CO,7,OCX,1,180.,0

CC=1.51705372
CH1=1.09673202
CH2=1.0950498
CO=1.18915198
H1CC=111.51713621
XCC=122.84016015
HCX=53.57981779
OCX=37.87178741

$end

$comment
negative
$end

$xc_functional
   X HF 1.0
   X BNL 1.0
   C LYP 1.0
$end

$rem
SYMMETRY_DECOMPOSITION	0
exchange 		general
BASIS                   g3large
omega			41
separate_jk		true
mem_static              760
max_scf_cycles          200
scf_final_print         1
sym_ignore              true
$end

--------------------------------------------------------------
 Writing REM_CC_EA            6
 ----------------------------------------------------
       Standard Nuclear Orientation (Angstroms)
    I     Atom         X            Y            Z
 ----------------------------------------------------
    1      C       0.000000     0.000000     0.000000
    2      C       0.000000     0.000000     1.517054
    3      H       1.020298     0.000000    -0.402259
    4      H      -0.546234    -0.881170    -0.352566
    5      H      -0.546234     0.881170    -0.352566
    6      O       0.938700     0.000000     2.247070
 ----------------------------------------------------
 Nuclear Repulsion Energy =    62.6720648786 hartrees
 There are       12 alpha and       12 beta electrons
 Requested basis set is G3large
 There are 48 shells and 156 basis functions

Total QAlloc Memory Limit   2000 MB
Mega-Array Size       743 MB
MEM_STATIC part       760 MB

                       Distance Matrix (Angstroms)
             C (  1)   C (  2)   H (  3)   H (  4)   H (  5)
   C (  2)  1.517054
   H (  3)  1.096732  2.173654
   H (  4)  1.095050  2.137828  1.798041
   H (  5)  1.095050  2.137828  1.798041  1.762340
   O (  6)  2.435258  1.189152  2.650585  3.120833  3.120833
 
 A cutoff of  1.0D-08 yielded   1110 shell pairs
 There are  11796 function pairs ( 14731 Cartesian)
Evaluating contribution to one-electron hamiltonian from nuclear
 Smallest overlap matrix eigenvalue = 1.57E-04
 Multipole matrices computed through 2nd order

  Scale SEOQF with 1.000000e-01/1.000000e-01/1.000000e-01

 Standard Electronic Orientation quadrupole field applied
 Nucleus-field energy     =    -0.0000000054 hartrees
 Guess from superposition of atomic densities
 Warning:  Energy on first SCF cycle will be non-variational
 A restricted hybrid HF-DFT SCF calculation will be
 performed using Pulay DIIS extrapolation
 Exchange:     1.0000 Hartree-Fock + 1.0000 BNL
 Correlation:  1.0000 LYP
 Using SG-1 standard quadrature grid
 SCF converges when DIIS error is below 1.0E-05
 Warning!  Inaccurate integrated density:
   Number of electrons =    24
   Numerical integral  =    22.999961579296
   Relative error      =    -4.1668267529 %
 ---------------------------------------
  Cycle       Energy         DIIS Error
 ---------------------------------------
    1    -151.4117723691      3.43E-02
    2    -150.9970468243      8.09E-03
    3    -150.0868988835      1.70E-02
    4    -151.2104286625      3.52E-03
    5    -151.2433432560      2.31E-03
    6    -151.2455173538      1.56E-03
    7    -151.2549677134      5.87E-04
    8    -151.2559119980      2.87E-04
    9    -151.2562337589      2.68E-05
   10    -151.2562348568      5.99E-06 Convergence criterion met
 ---------------------------------------
 One-Electron    Energy =  -335.5575169895
 Total Coulomb   Energy =   140.1528819591
 Alpha Exchange  Energy =    -0.2766921159
 Beta  Exchange  Energy =    -0.2766921159
 DFT   Exchange  Energy =   -17.1802587824
 DFT Correlation Energy =    -0.7900216853
 Nuclear Repu.   Energy =    62.6720648732
 Nuclear Attr.   Energy =  -486.6348389269
 Kinetic         Energy =   151.0773219374
 SCF time:  CPU 53.82 s  wall 115.62 s
 Final Alpha MO Eigenvalues
            1           2           3           4           5           6
    1 -18.4247612  -9.6475874  -9.5950350  -0.7959762  -0.5010532  -0.2977233
            7           8           9          10          11          12
    1  -0.2343139  -0.2282884  -0.2246796  -0.1714596  -0.1448945   0.0479847
           13          14          15          16          17
    1   0.1291428   0.1493677   0.1517879   0.1603248   0.1809310
 Analysis of SCF Wavefunction
 
 --------------------------------------------------------------
                    Orbital Energies (a.u.)
 --------------------------------------------------------------
 
 Alpha MOs
 -- Occupied --
-18.425  -9.648  -9.595  -0.796  -0.501  -0.298  -0.234  -0.228
 -0.225  -0.171  -0.145   0.048
 -- Virtual --
  0.129   0.149   0.152   0.160   0.181   0.214   0.221   0.229
  0.234   0.236   0.256   0.289   0.316   0.320   0.371   0.387
  0.400   0.414   0.433   0.444   0.575   0.576   0.619   0.646
  0.651   0.689   0.696   0.710   0.763   0.777   0.787   0.809
  0.913   0.918   0.963   0.996   1.087   1.132   1.167   1.211
  1.215   1.250   1.254   1.276   1.289   1.318   1.401   1.484
  1.503   1.531   1.554   1.564   1.654   1.661   1.757   1.812
  1.864   2.106   2.278   2.493   2.560   2.598   2.645   2.813
  2.838   2.860   2.954   2.997   3.039   3.040   3.085   3.193
  3.221   3.249   3.274   3.282   3.340   3.459   3.487   3.526
  3.545   3.580   3.709   3.726   3.747   3.893   3.938   3.970
  4.065   4.186   4.207   4.262   4.329   4.353   4.491   4.527
  4.592   4.633   4.750   5.060   5.164   5.172   5.191   5.220
  5.491   5.586   5.706   5.737   5.765   6.441   6.636   6.885
  6.890   7.021   7.279   7.373   7.662  24.345  24.587  27.376
 27.514  27.865  28.153  28.162  28.516  40.833  40.908  40.930
 41.017  41.162  41.246  41.252  41.292  41.333  41.360  43.637
 43.711  43.772  43.820  43.961  45.787  45.858  46.608  50.252
 --------------------------------------------------------------
 
          Ground-State Mulliken Net Atomic Charges

     Atom                 Charge (a.u.)
  ----------------------------------------
      1 C                     2.663150
      2 C                    -1.563675
      3 H                    -0.851953
      4 H                    -0.527332
      5 H                    -0.526683
      6 O                    -0.193507
  ----------------------------------------
  Sum of atomic charges =    -1.000000

 -----------------------------------------------------------------
                    Cartesian Multipole Moments
 -----------------------------------------------------------------
    Charge (ESU x 10^10)
                -4.8032
    Dipole Moment (Debye)
         X      -0.8012      Y       0.0002      Z      -4.5732
       Tot       4.6429
    Quadrupole Moments (Debye-Ang)
        XX     -36.8817     XY      -0.0011     YY     -29.9861
        XZ       0.9239     YZ      -0.0017     ZZ     -44.0192
    Octapole Moments (Debye-Ang^2)
       XXX     -20.4229    XXY       0.0031    XYY      -3.5207
       YYY       0.0086    XXZ     -27.6582    XYZ       0.0005
       YYZ     -20.0581    XZZ      -8.5867    YZZ       0.0017
       ZZZ     -86.6869
    Hexadecapole Moments (Debye-Ang^3)
      XXXX    -208.2404   XXXY      -0.0092   XXYY     -55.0673
      XYYY      -0.0097   YYYY    -130.0070   XXXZ     -21.3642
      XXYZ      -0.0028   XYYZ      -5.3116   YYYZ      -0.0089
      XXZZ    -120.2296   XYZZ      -0.0028   YYZZ     -90.6635
      XZZZ     -28.9996   YZZZ      -0.0105   ZZZZ    -466.2361
 -----------------------------------------------------------------
 Total job time:  115.96s(wall), 53.98s(cpu) 
 Mon Nov 14 19:17:12 2011

        *************************************************************
        *                                                           *
        *  Thank you very much for using Q-Chem.  Have a nice day.  *
        *                                                           *
        *************************************************************


0 sent ACK to 0 
now end server 0 ... 
 
**********************************************************************
Job 2 of 3 
**********************************************************************
 
Process 0 of 1 is on cl225.stfx.acenet.ca - thread support 1
initial socket setup ...start
initial socket setup ...done 
now start server 0 ... 

cmd = /usr/bin/ssh clhead /usr/local/qchem/bin/get_hostid 2137546498 > /scratch/tmp/4825539.1.medium.q/qchem23703/lic.dat
                  Welcome to Q-Chem
     A Quantum Leap Into The Future Of Chemistry

 Y. Shao, L. Fusti-Molnar, Y. Jung, J. Kussmann, C. Ochsenfeld,
 S. T. Brown, A. T. B. Gilbert, L. V. Slipchenko,S. V. Levchenko,
 D. P. O'Neill, R. A. DiStasio Jr., R. C. Lochan, T. Wang,
 G. J. O. Beran, N. A. Besley, J. M. Herbert, C. Y. Lin,
 T. Van Voorhis, S. H. Chien, A. Sodt, R. P. Steele, 
 V. A. Rassolov, P. E. Maslen, P. P. Korambath, R. D. Adamson,
 B. Austin, J. Baker, E. F. C. Byrd, H. Dachsel, R. J. Doerksen,
 A. Dreuw, B. D. Dunietz, A. D. Dutoi, T. R. Furlani,
 S. R. Gwaltney, A. Heyden, S. Hirata, C.-P. Hsu, G. Kedziora,
 R. Z. Khaliullin, P. Klunzinger, A. M. Lee, M. S. Lee, W. Liang,
 I. Lotan, N. Nair, B. Peters, E. I. Proynov, P. A. Pieniazek, 
 Y. M. Rhee, J. Ritchie, E. Rosta, C. D. Sherrill, 
 A. C. Simmonett, J. E. Subotnik, H. L. Woodcock III,
 W. Zhang, A. T. Bell, A. K. Chakraborty, D. M. Chipman,
 F. J. Keil, A. Warshel, W. J. Hehre, H. F. Schaefer III,
 J. Kong, A. I. Krylov, P. M. W. Gill, M. Head-Gordon,
 Q-Chem, Version 3.1, Q-Chem, Inc., Pittsburgh, PA (2007).

 Additional authors for Version 3.1: 
 Z. Gan, Y. Zhao, N. E. Schultz, D. Truhlar, E. Epifanovsky and M. Oana.

 Additional authors for Version 3.2: 
 R. Baer, B. R. Brooks, D. Casanova, J.-D. Chai, C.-L. Cheng, 
 C. Cramer, D. Crittenden, A. Ghysels, G. Hawkins, E. G. Hohenstein, 
 C. Kelley, W. Kurlancheek, D. Liotard, E. Livshits, P. Manohar, 
 A. Marenich, D. Neuhauser, R. Olson, M. A. Rohrdanz, K. S. Thanthiriwatte, 
 A. J. W. Thom, V. Vanovschi, C. F. Williams, Q. Wu and Z.-Q. You. 


 Intel X86 Linux Version

 Q-chem begins on Mon Nov 14 19:17:16 2011  

 Parallel job on  1  processors
Processing $rem in /usr/local/qchem/config/preferences.

theFileMan(): MAXOPENFILES=974 MAX_SUB_FILE_NUM=16
Maximum size of a physical file is 2.0 GB, maximum size of a tmp-file is 32.0 GB


--------------------------------------------------------------
User input:
--------------------------------------------------------------

$molecule
0,2
C
C,1,CC
H,1,CH1,2,H1CC
X,1,1.,2,XCC,3,180.,0
H,1,CH2,4,HCX,2,90.,0
H,1,CH2,4,HCX,2,-90.,0
X,2,1.,1,90.,3,0.,0
O,2,CO,7,OCX,1,180.,0

CC=1.51705372
CH1=1.09673202
CH2=1.0950498
CO=1.18915198
H1CC=111.51713621
XCC=122.84016015
HCX=53.57981779
OCX=37.87178741

$end

$comment
neutral
$end

$xc_functional
   X HF 1.0
   X BNL 1.0
   C LYP 1.0
$end

$rem
SYMMETRY_DECOMPOSITION	0
exchange 		general
BASIS                   g3large
omega			41
separate_jk		true
mem_static              760
max_scf_cycles          200
scf_final_print         1
sym_ignore              true
$end

--------------------------------------------------------------
 Writing REM_CC_EA            6
 ----------------------------------------------------
       Standard Nuclear Orientation (Angstroms)
    I     Atom         X            Y            Z
 ----------------------------------------------------
    1      C       0.000000     0.000000     0.000000
    2      C       0.000000     0.000000     1.517054
    3      H       1.020298     0.000000    -0.402259
    4      H      -0.546234    -0.881170    -0.352566
    5      H      -0.546234     0.881170    -0.352566
    6      O       0.938700     0.000000     2.247070
 ----------------------------------------------------
 Nuclear Repulsion Energy =    62.6720648786 hartrees
 There are       12 alpha and       11 beta electrons
 Requested basis set is G3large
 There are 48 shells and 156 basis functions

Total QAlloc Memory Limit   2000 MB
Mega-Array Size       743 MB
MEM_STATIC part       760 MB

                       Distance Matrix (Angstroms)
             C (  1)   C (  2)   H (  3)   H (  4)   H (  5)
   C (  2)  1.517054
   H (  3)  1.096732  2.173654
   H (  4)  1.095050  2.137828  1.798041
   H (  5)  1.095050  2.137828  1.798041  1.762340
   O (  6)  2.435258  1.189152  2.650585  3.120833  3.120833
 
 A cutoff of  1.0D-08 yielded   1110 shell pairs
 There are  11796 function pairs ( 14731 Cartesian)
Evaluating contribution to one-electron hamiltonian from nuclear
 Smallest overlap matrix eigenvalue = 1.57E-04
 Multipole matrices computed through 2nd order

  Scale SEOQF with 1.000000e-01/1.000000e-01/1.000000e-01

 Standard Electronic Orientation quadrupole field applied
 Nucleus-field energy     =    -0.0000000054 hartrees
 Guess from superposition of atomic densities
 Warning:  Energy on first SCF cycle will be non-variational
 An unrestricted hybrid HF-DFT SCF calculation will be
 performed using Pulay DIIS extrapolation
 Exchange:     1.0000 Hartree-Fock + 1.0000 BNL
 Correlation:  1.0000 LYP
 Using SG-1 standard quadrature grid
 SCF converges when DIIS error is below 1.0E-05
 ---------------------------------------
  Cycle       Energy         DIIS Error
 ---------------------------------------
    1    -151.4117723691      3.43E-02
    2    -151.1722720657      5.20E-03
    3    -151.1241248735      6.73E-03
    4    -151.2362241671      2.40E-03
    5    -151.2483887815      8.50E-04
    6    -151.2502655741      1.17E-04
    7    -151.2503174383      3.13E-05
    8    -151.2503168658      6.59E-06 Convergence criterion met
 ---------------------------------------
 One-Electron    Energy =  -330.9087842971
 Total Coulomb   Energy =   135.3576114556
 Alpha Exchange  Energy =    -0.2770603057
 Beta  Exchange  Energy =    -0.2539880907
 DFT   Exchange  Energy =   -17.0737299852
 DFT Correlation Energy =    -0.7664305159
 Nuclear Repu.   Energy =    62.6720648732
 Nuclear Attr.   Energy =  -481.8178566467
 Kinetic         Energy =   150.9090723496
 <S^2> = 0.7513
 SCF time:  CPU 50.72 s  wall 90.23 s
 Final Alpha MO Eigenvalues
            1           2           3           4           5           6
    1 -18.6416522  -9.8700291  -9.7979437  -1.0104215  -0.7040533  -0.5032581
            7           8           9          10          11          12
    1  -0.4360768  -0.4336358  -0.4296169  -0.3711667  -0.3563523  -0.1727181
           13          14          15          16          17
    1  -0.0476680   0.0050519   0.0405144   0.0406767   0.0519298
 Final Beta MO Eigenvalues
            1           2           3           4           5           6
    1 -18.6334122  -9.8599380  -9.7946802  -0.9969712  -0.6949983  -0.4895642
            7           8           9          10          11          12
    1  -0.4267999  -0.4190953  -0.4182176  -0.3649254  -0.3353704  -0.0840587
           13          14          15          16
    1  -0.0311754   0.0076343   0.0409064   0.0419528
 Analysis of SCF Wavefunction
 
 --------------------------------------------------------------
                    Orbital Energies (a.u.)
 --------------------------------------------------------------
 
 Alpha MOs
 -- Occupied --
-18.642  -9.870  -9.798  -1.010  -0.704  -0.503  -0.436  -0.434
 -0.430  -0.371  -0.356  -0.173
 -- Virtual --
 -0.048   0.005   0.041   0.041   0.052   0.081   0.091   0.097
  0.105   0.110   0.125   0.158   0.166   0.172   0.221   0.234
  0.258   0.258   0.281   0.288   0.402   0.412   0.442   0.467
  0.469   0.501   0.525   0.539   0.571   0.589   0.605   0.631
  0.717   0.733   0.769   0.815   0.894   0.938   0.991   1.027
  1.032   1.059   1.066   1.087   1.105   1.133   1.213   1.287
  1.314   1.342   1.375   1.378   1.466   1.477   1.555   1.608
  1.656   1.907   2.071   2.294   2.364   2.397   2.453   2.601
  2.629   2.648   2.741   2.783   2.826   2.846   2.878   2.986
  3.010   3.049   3.074   3.083   3.123   3.236   3.277   3.306
  3.332   3.380   3.489   3.521   3.541   3.683   3.739   3.774
  3.864   3.979   4.007   4.055   4.131   4.155   4.294   4.334
  4.397   4.430   4.542   4.853   4.950   4.959   4.974   5.017
  5.285   5.374   5.510   5.545   5.551   6.229   6.416   6.664
  6.671   6.807   7.072   7.155   7.451  24.139  24.366  27.156
 27.291  27.652  27.951  27.961  28.303  40.611  40.690  40.729
 40.808  40.937  41.027  41.049  41.089  41.132  41.136  43.416
 43.488  43.549  43.605  43.742  45.573  45.636  46.393  50.035
 
 Beta MOs
 -- Occupied --
-18.633  -9.860  -9.795  -0.997  -0.695  -0.490  -0.427  -0.419
 -0.418  -0.365  -0.335
 -- Virtual --
 -0.084  -0.031   0.008   0.041   0.042   0.054   0.084   0.093
  0.098   0.107   0.112   0.126   0.161   0.168   0.175   0.226
  0.237   0.260   0.262   0.284   0.292   0.412   0.413   0.449
  0.474   0.475   0.517   0.532   0.544   0.580   0.603   0.615
  0.636   0.731   0.738   0.784   0.816   0.903   0.945   0.998
  1.036   1.036   1.071   1.074   1.093   1.111   1.138   1.221
  1.299   1.320   1.351   1.378   1.385   1.475   1.483   1.568
  1.622   1.675   1.915   2.090   2.306   2.372   2.411   2.460
  2.617   2.646   2.663   2.760   2.802   2.844   2.850   2.892
  3.001   3.027   3.059   3.082   3.093   3.151   3.269   3.295
  3.330   3.353   3.388   3.516   3.532   3.559   3.697   3.747
  3.780   3.873   3.992   4.015   4.069   4.137   4.164   4.300
  4.337   4.402   4.442   4.559   4.863   4.970   4.977   4.999
  5.028   5.293   5.390   5.516   5.548   5.570   6.240   6.439
  6.691   6.696   6.824   7.082   7.181   7.466  24.145  24.379
 27.164  27.306  27.660  27.954  27.963  28.309  40.622  40.702
 40.731  40.815  40.951  41.033  41.052  41.093  41.134  41.149
 43.434  43.509  43.571  43.613  43.757  45.578  45.653  46.399
 50.046
 --------------------------------------------------------------
 
          Ground-State Mulliken Net Atomic Charges

     Atom                 Charge (a.u.)    Spin (a.u.)
  --------------------------------------------------------
      1 C                    -0.243770      -0.025754
      2 C                    -0.099806       0.730789
      3 H                     0.122476       0.070789
      4 H                     0.166969      -0.008661
      5 H                     0.167136      -0.008726
      6 O                    -0.113004       0.241562
  --------------------------------------------------------
  Sum of atomic charges =     0.000000
  Sum of spin   charges =     1.000000

 -----------------------------------------------------------------
                    Cartesian Multipole Moments
 -----------------------------------------------------------------
    Charge (ESU x 10^10)
                 0.0000
    Dipole Moment (Debye)
         X      -0.6325      Y      -0.0004      Z      -2.5168
       Tot       2.5951
    Quadrupole Moments (Debye-Ang)
        XX     -20.2158     XY       0.0009     YY     -17.7300
        XZ      -1.4006     YZ      -0.0015     ZZ     -24.9065
    Octapole Moments (Debye-Ang^2)
       XXX     -14.9486    XXY       0.0003    XYY      -5.5914
       YYY      -0.0006    XXZ     -24.6283    XYZ       0.0020
       YYZ     -19.9627    XZZ      -8.9242    YZZ      -0.0026
       ZZZ     -75.0074
    Hexadecapole Moments (Debye-Ang^3)
      XXXX     -62.0326   XXXY       0.0024   XXYY     -14.1128
      XYYY       0.0013   YYYY     -25.8193   XXXZ     -35.3686
      XXYZ      -0.0002   XYYZ     -10.0385   YYYZ      -0.0031
      XXZZ     -63.6057   XYZZ       0.0037   YYZZ     -48.4570
      XZZZ     -43.3728   YZZZ      -0.0083   ZZZZ    -307.1166
 -----------------------------------------------------------------
 Total job time:  90.79s(wall), 50.87s(cpu) 
 Mon Nov 14 19:18:47 2011

        *************************************************************
        *                                                           *
        *  Thank you very much for using Q-Chem.  Have a nice day.  *
        *                                                           *
        *************************************************************


0 sent ACK to 0 
now end server 0 ... 
 
**********************************************************************
Job 3 of 3 
**********************************************************************
 
Process 0 of 1 is on cl225.stfx.acenet.ca - thread support 1
initial socket setup ...start
initial socket setup ...done 
now start server 0 ... 

cmd = /usr/bin/ssh clhead /usr/local/qchem/bin/get_hostid 1936987327 > /scratch/tmp/4825539.1.medium.q/qchem23703/lic.dat
                  Welcome to Q-Chem
     A Quantum Leap Into The Future Of Chemistry

 Y. Shao, L. Fusti-Molnar, Y. Jung, J. Kussmann, C. Ochsenfeld,
 S. T. Brown, A. T. B. Gilbert, L. V. Slipchenko,S. V. Levchenko,
 D. P. O'Neill, R. A. DiStasio Jr., R. C. Lochan, T. Wang,
 G. J. O. Beran, N. A. Besley, J. M. Herbert, C. Y. Lin,
 T. Van Voorhis, S. H. Chien, A. Sodt, R. P. Steele, 
 V. A. Rassolov, P. E. Maslen, P. P. Korambath, R. D. Adamson,
 B. Austin, J. Baker, E. F. C. Byrd, H. Dachsel, R. J. Doerksen,
 A. Dreuw, B. D. Dunietz, A. D. Dutoi, T. R. Furlani,
 S. R. Gwaltney, A. Heyden, S. Hirata, C.-P. Hsu, G. Kedziora,
 R. Z. Khaliullin, P. Klunzinger, A. M. Lee, M. S. Lee, W. Liang,
 I. Lotan, N. Nair, B. Peters, E. I. Proynov, P. A. Pieniazek, 
 Y. M. Rhee, J. Ritchie, E. Rosta, C. D. Sherrill, 
 A. C. Simmonett, J. E. Subotnik, H. L. Woodcock III,
 W. Zhang, A. T. Bell, A. K. Chakraborty, D. M. Chipman,
 F. J. Keil, A. Warshel, W. J. Hehre, H. F. Schaefer III,
 J. Kong, A. I. Krylov, P. M. W. Gill, M. Head-Gordon,
 Q-Chem, Version 3.1, Q-Chem, Inc., Pittsburgh, PA (2007).

 Additional authors for Version 3.1: 
 Z. Gan, Y. Zhao, N. E. Schultz, D. Truhlar, E. Epifanovsky and M. Oana.

 Additional authors for Version 3.2: 
 R. Baer, B. R. Brooks, D. Casanova, J.-D. Chai, C.-L. Cheng, 
 C. Cramer, D. Crittenden, A. Ghysels, G. Hawkins, E. G. Hohenstein, 
 C. Kelley, W. Kurlancheek, D. Liotard, E. Livshits, P. Manohar, 
 A. Marenich, D. Neuhauser, R. Olson, M. A. Rohrdanz, K. S. Thanthiriwatte, 
 A. J. W. Thom, V. Vanovschi, C. F. Williams, Q. Wu and Z.-Q. You. 


 Intel X86 Linux Version

 Q-chem begins on Mon Nov 14 19:18:51 2011  

 Parallel job on  1  processors
Processing $rem in /usr/local/qchem/config/preferences.

theFileMan(): MAXOPENFILES=974 MAX_SUB_FILE_NUM=16
Maximum size of a physical file is 2.0 GB, maximum size of a tmp-file is 32.0 GB


--------------------------------------------------------------
User input:
--------------------------------------------------------------

$molecule
1,1
C
C,1,CC
H,1,CH1,2,H1CC
X,1,1.,2,XCC,3,180.,0
H,1,CH2,4,HCX,2,90.,0
H,1,CH2,4,HCX,2,-90.,0
X,2,1.,1,90.,3,0.,0
O,2,CO,7,OCX,1,180.,0

CC=1.51705372
CH1=1.09673202
CH2=1.0950498
CO=1.18915198
H1CC=111.51713621
XCC=122.84016015
HCX=53.57981779
OCX=37.87178741

$end

$comment
positive
$end

$xc_functional
   X HF 1.0
   X BNL 1.0
   C LYP 1.0
$end

$rem
SYMMETRY_DECOMPOSITION	0
exchange 		general
BASIS                   g3large
omega			41
separate_jk		true
mem_static              760
max_scf_cycles          200
scf_final_print         1
sym_ignore              true
$end

--------------------------------------------------------------
 Writing REM_CC_EA            6
 ----------------------------------------------------
       Standard Nuclear Orientation (Angstroms)
    I     Atom         X            Y            Z
 ----------------------------------------------------
    1      C       0.000000     0.000000     0.000000
    2      C       0.000000     0.000000     1.517054
    3      H       1.020298     0.000000    -0.402259
    4      H      -0.546234    -0.881170    -0.352566
    5      H      -0.546234     0.881170    -0.352566
    6      O       0.938700     0.000000     2.247070
 ----------------------------------------------------
 Nuclear Repulsion Energy =    62.6720648786 hartrees
 There are       11 alpha and       11 beta electrons
 Requested basis set is G3large
 There are 48 shells and 156 basis functions

Total QAlloc Memory Limit   2000 MB
Mega-Array Size       743 MB
MEM_STATIC part       760 MB

                       Distance Matrix (Angstroms)
             C (  1)   C (  2)   H (  3)   H (  4)   H (  5)
   C (  2)  1.517054
   H (  3)  1.096732  2.173654
   H (  4)  1.095050  2.137828  1.798041
   H (  5)  1.095050  2.137828  1.798041  1.762340
   O (  6)  2.435258  1.189152  2.650585  3.120833  3.120833
 
 A cutoff of  1.0D-08 yielded   1110 shell pairs
 There are  11796 function pairs ( 14731 Cartesian)
Evaluating contribution to one-electron hamiltonian from nuclear
 Smallest overlap matrix eigenvalue = 1.57E-04
 Multipole matrices computed through 2nd order

  Scale SEOQF with 1.000000e-01/1.000000e-01/1.000000e-01

 Standard Electronic Orientation quadrupole field applied
 Nucleus-field energy     =    -0.0000000054 hartrees
 Guess from superposition of atomic densities
 Warning:  Energy on first SCF cycle will be non-variational
 A restricted hybrid HF-DFT SCF calculation will be
 performed using Pulay DIIS extrapolation
 Exchange:     1.0000 Hartree-Fock + 1.0000 BNL
 Correlation:  1.0000 LYP
 Using SG-1 standard quadrature grid
 SCF converges when DIIS error is below 1.0E-05
 Warning!  Inaccurate integrated density:
   Number of electrons =    22
   Numerical integral  =    22.999961579296
   Relative error      =     4.5452799059 %
 ---------------------------------------
  Cycle       Energy         DIIS Error
 ---------------------------------------
    1    -151.4117723691      3.43E-02
    2    -150.8831373579      4.83E-03
    3    -150.7441928810      8.70E-03
    4    -150.9259827876      3.38E-03
    5    -150.9469316232      1.40E-03
    6    -150.9516370411      8.46E-05
    7    -150.9516708122      2.48E-05
    8    -150.9516683413      6.39E-06 Convergence criterion met
 ---------------------------------------
 One-Electron    Energy =  -323.9419928456
 Total Coulomb   Energy =   128.3369777950
 Alpha Exchange  Energy =    -0.2540081709
 Beta  Exchange  Energy =    -0.2540081709
 DFT   Exchange  Energy =   -16.7718000942
 DFT Correlation Energy =    -0.7389017278
 Nuclear Repu.   Energy =    62.6720648732
 Nuclear Attr.   Energy =  -474.3211137356
 Kinetic         Energy =   150.3791208900
 SCF time:  CPU 41.80 s  wall 78.41 s
 Final Alpha MO Eigenvalues
            1           2           3           4           5           6
    1 -18.9962381 -10.2344807 -10.0768501  -1.3371447  -0.9820204  -0.7952651
            7           8           9          10          11          12
    1  -0.7349449  -0.7253273  -0.7171652  -0.6410400  -0.6334899  -0.4282054
           13          14          15          16
    1  -0.3466433  -0.1682516  -0.1257961  -0.1185157
 Analysis of SCF Wavefunction
 
 --------------------------------------------------------------
                    Orbital Energies (a.u.)
 --------------------------------------------------------------
 
 Alpha MOs
 -- Occupied --
-18.996 -10.234 -10.077  -1.337  -0.982  -0.795  -0.735  -0.725
 -0.717  -0.641  -0.633
 -- Virtual --
 -0.428  -0.347  -0.168  -0.126  -0.119  -0.116  -0.109  -0.087
 -0.080  -0.051  -0.046  -0.024  -0.013   0.002   0.007   0.021
  0.041   0.061   0.076   0.096   0.111   0.171   0.212   0.233
  0.235   0.244   0.265   0.311   0.313   0.339   0.349   0.375
  0.430   0.456   0.499   0.524   0.596   0.642   0.684   0.749
  0.780   0.784   0.811   0.828   0.846   0.880   0.897   0.973
  1.027   1.076   1.101   1.142   1.151   1.218   1.229   1.298
  1.325   1.373   1.622   1.786   2.025   2.107   2.117   2.197
  2.299   2.351   2.356   2.452   2.485   2.536   2.584   2.603
  2.709   2.723   2.771   2.814   2.824   2.833   2.938   2.987
  3.007   3.047   3.104   3.191   3.240   3.274   3.390   3.474
  3.514   3.595   3.696   3.739   3.774   3.870   3.901   4.033
  4.086   4.143   4.158   4.265   4.539   4.636   4.647   4.662
  4.740   4.975   5.062   5.241   5.262   5.295   5.908   6.094
  6.342   6.348   6.485   6.755   6.835   7.132  23.846  24.025
 26.795  26.937  27.331  27.674  27.683  27.975  40.250  40.340
 40.451  40.511  40.573  40.664  40.769  40.772  40.810  40.854
 43.068  43.140  43.200  43.257  43.393  45.222  45.282  46.041
 49.685
 --------------------------------------------------------------
 
          Ground-State Mulliken Net Atomic Charges

     Atom                 Charge (a.u.)
  ----------------------------------------
      1 C                    -0.251360
      2 C                     0.358805
      3 H                     0.234165
      4 H                     0.225531
      5 H                     0.225554
      6 O                     0.207306
  ----------------------------------------
  Sum of atomic charges =     1.000000

 -----------------------------------------------------------------
                    Cartesian Multipole Moments
 -----------------------------------------------------------------
    Charge (ESU x 10^10)
                 4.8032
    Dipole Moment (Debye)
         X       0.1005      Y       0.0002      Z       3.3014
       Tot       3.3029
    Quadrupole Moments (Debye-Ang)
        XX     -13.9683     XY       0.0000     YY     -14.5859
        XZ      -0.0369     YZ       0.0002     ZZ      -8.1174
    Octapole Moments (Debye-Ang^2)
       XXX     -11.2471    XXY       0.0001    XYY      -5.8011
       YYY       0.0002    XXZ     -16.5594    XYZ       0.0001
       YYZ     -17.3767    XZZ      -4.0333    YZZ       0.0004
       ZZZ     -37.9657
    Hexadecapole Moments (Debye-Ang^3)
      XXXX     -41.7968   XXXY       0.0000   XXYY     -10.0281
      XYYY       0.0000   YYYY     -18.0079   XXXZ     -29.7915
      XXYZ       0.0001   XYYZ      -9.5291   YYYZ       0.0001
      XXZZ     -41.4913   XYZZ       0.0002   YYZZ     -39.4193
      XZZZ     -29.6394   YZZZ       0.0008   ZZZZ    -199.9842
 -----------------------------------------------------------------
 Total job time:  79.04s(wall), 41.96s(cpu) 
 Mon Nov 14 19:20:10 2011

        *************************************************************
        *                                                           *
        *  Thank you very much for using Q-Chem.  Have a nice day.  *
        *                                                           *
        *************************************************************


0 sent ACK to 0 
now end server 0 ... 
