Process 0 of 1 is on cl013.stfx.acenet.ca - thread support 1
initial socket setup ...start
initial socket setup ...done 
now start server 0 ... 

cmd = /usr/bin/ssh clhead /usr/local/qchem/bin/get_hostid 466667819 > /scratch/tmp/6027522.1.short.q/qchem2508/lic.dat
                  Welcome to Q-Chem
     A Quantum Leap Into The Future Of Chemistry

 Y. Shao, L. Fusti-Molnar, Y. Jung, J. Kussmann, C. Ochsenfeld,
 S. T. Brown, A. T. B. Gilbert, L. V. Slipchenko,S. V. Levchenko,
 D. P. O'Neill, R. A. DiStasio Jr., R. C. Lochan, T. Wang,
 G. J. O. Beran, N. A. Besley, J. M. Herbert, C. Y. Lin,
 T. Van Voorhis, S. H. Chien, A. Sodt, R. P. Steele, 
 V. A. Rassolov, P. E. Maslen, P. P. Korambath, R. D. Adamson,
 B. Austin, J. Baker, E. F. C. Byrd, H. Dachsel, R. J. Doerksen,
 A. Dreuw, B. D. Dunietz, A. D. Dutoi, T. R. Furlani,
 S. R. Gwaltney, A. Heyden, S. Hirata, C.-P. Hsu, G. Kedziora,
 R. Z. Khaliullin, P. Klunzinger, A. M. Lee, M. S. Lee, W. Liang,
 I. Lotan, N. Nair, B. Peters, E. I. Proynov, P. A. Pieniazek, 
 Y. M. Rhee, J. Ritchie, E. Rosta, C. D. Sherrill, 
 A. C. Simmonett, J. E. Subotnik, H. L. Woodcock III,
 W. Zhang, A. T. Bell, A. K. Chakraborty, D. M. Chipman,
 F. J. Keil, A. Warshel, W. J. Hehre, H. F. Schaefer III,
 J. Kong, A. I. Krylov, P. M. W. Gill, M. Head-Gordon,
 Q-Chem, Version 3.1, Q-Chem, Inc., Pittsburgh, PA (2007).

 Additional authors for Version 3.1: 
 Z. Gan, Y. Zhao, N. E. Schultz, D. Truhlar, E. Epifanovsky and M. Oana.

 Additional authors for Version 3.2: 
 R. Baer, B. R. Brooks, D. Casanova, J.-D. Chai, C.-L. Cheng, 
 C. Cramer, D. Crittenden, A. Ghysels, G. Hawkins, E. G. Hohenstein, 
 C. Kelley, W. Kurlancheek, D. Liotard, E. Livshits, P. Manohar, 
 A. Marenich, D. Neuhauser, R. Olson, M. A. Rohrdanz, K. S. Thanthiriwatte, 
 A. J. W. Thom, V. Vanovschi, C. F. Williams, Q. Wu and Z.-Q. You. 


 Intel X86 Linux Version

 Q-chem begins on Mon Jun  3 15:12:05 2013  

 Parallel job on  1  processors
Processing $rem in /usr/local/qchem/config/preferences.

theFileMan(): MAXOPENFILES=974 MAX_SUB_FILE_NUM=16
Maximum size of a physical file is 2.0 GB, maximum size of a tmp-file is 32.0 GB


--------------------------------------------------------------
User input:
--------------------------------------------------------------

$molecule
1,4
O
C1,O,r1
H1,C1,r2,O,a1
H,O,roh,C1,aoh,H1,toh,0
C2,C1,r3a,O,a2a,H1,t1a,0
C3,C1,r3b,O,a2b,H1,-t1b,0
H,C2,r4a,C1,a4a,H1,t2a,0
H,C3,r5a,C1,a5a,H1,-t2b,0
H,C2,r4b,C1,a4b,H1,t3a,0
H,C3,r5b,C1,a5b,H1,-t3b,0
H,C2,r4c,C1,a4c,H1,-t4a,0
H,C3,r5c,C1,a5c,H1,t4b,0

r1=1.43111827
r2=1.9557364
roh=2.07916264
r3a=1.52393712
r3b=1.53017411
r4a=1.09587708
r5a=1.09583825
r4b=1.09448657
r5b=1.09801539
r4c=1.0954512
r5c=1.0964078
a1=28.22171182
aoh=30.02045037
a2a=106.21524706
a2b=111.13113306
a4a=110.2041443
a5a=110.24366741
a4b=110.29321839
a5b=111.03931704
a4c=110.82961388
a5c=111.23833611
toh=-62.32359188
t1a=179.44473237
t1b=57.80032287
t2a=63.0172795
t2b=83.272013
t3a=-56.37337218
t3b=-36.4963859
t4a=176.72748761
t4b=156.21533884


$end

$comment
negative
$end

$rem
   EXCHANGE B3LYP
   UNRESTRICTED TRUE
   BASIS G3large 
   SCF_PRINT 1
   PDB_PRINT 2
   INCDFT false
   VARTHRESH 0
   MAX_SCF_CYCLES 1000
   MEM_STATIC 256
   MEM_TOTAL 3000
   THRESH 140
   ITHRSH 14
   XC_GRID 75000302
   SCF_CONVERGENCE 6
$end

--------------------------------------------------------------
 Writing REM_CC_EA            0
 ----------------------------------------------------
       Standard Nuclear Orientation (Angstroms)
    I     Atom         X            Y            Z
 ----------------------------------------------------
    1      O       0.034109     1.370008    -0.167392
    2      C      -0.001525     0.041888     0.364516
    3      H       0.867326     1.776528     0.117484
    4      H       0.006945     0.085614     1.467389
    5      C      -1.325270    -0.562433    -0.088122
    6      C       1.206533    -0.772368    -0.103476
    7      H      -1.358699    -0.624517    -1.181728
    8      H       1.220670    -0.835210    -1.197419
    9      H      -2.160792     0.061451     0.244403
   10      H       2.145937    -0.307368     0.223531
   11      H      -1.454698    -1.569395     0.323325
   12      H       1.182013    -1.789691     0.304645
 ----------------------------------------------------
 Molecular Point Group                 C1    NOp =  1
 Largest Abelian Subgroup              C1    NOp =  1
 Nuclear Repulsion Energy =   134.3979926221 hartrees
 There are       18 alpha and       15 beta electrons
 Requested basis set is G3large
 There are 88 shells and 248 basis functions

Total QAlloc Memory Limit   3000 MB
Mega-Array Size       251 MB
MEM_STATIC part       256 MB

                       Distance Matrix (Angstroms)
             O (  1)   C (  2)   H (  3)   H (  4)   C (  5)   C (  6)
   C (  2)  1.431118
   H (  3)  0.969878  1.955736
   H (  4)  2.079163  1.103773  2.328453
   C (  5)  2.364005  1.523937  3.212552  2.148110
   C (  6)  2.443039  1.530174  2.580844  2.154707  2.540539
   H (  7)  2.635701  2.162611  3.522521  3.063836  1.095877  2.786558
   H (  8)  2.707742  2.168571  2.945335  3.069568  2.790476  1.095838
   H (  9)  2.588336  2.162693  3.482398  2.489048  1.094487  3.486424
   H ( 10)  2.725111  2.180241  2.447185  2.505376  3.494491  1.098015
   H ( 11)  3.331282  2.170171  4.077912  2.486833  1.095451  2.810617
   H ( 12)  3.394731  2.181519  3.584965  2.499906  2.819024  1.096408
             H (  7)   H (  8)   H (  9)   H ( 10)   H ( 11)
   H (  8)  2.588007
   H (  9)  1.774192  3.783799
   H ( 10)  3.789170  1.775904  4.322543
   H ( 11)  1.779661  3.163745  1.778892  3.816706
   H ( 12)  3.165779  1.780091  3.821610  1.770031  2.645964
 
 A cutoff of  1.0D-14 yielded   3814 shell pairs
 There are  30263 function pairs ( 36497 Cartesian)
Evaluating contribution to one-electron hamiltonian from nuclear
 Smallest overlap matrix eigenvalue = 4.89E-05
 Multipole matrices computed through 2nd order

  Scale SEOQF with 1.000000e-01/1.000000e-01/1.000000e-01

 Standard Electronic Orientation quadrupole field applied
 Nucleus-field energy     =     0.0000000028 hartrees
 Guess from superposition of atomic densities
 Warning:  Energy on first SCF cycle will be non-variational
 An unrestricted hybrid HF-DFT SCF calculation will be
 performed using Pulay DIIS extrapolation
 Exchange:     0.2000 Hartree-Fock + 0.0800 Slater + 0.7200 Becke88
 Correlation:  0.8100 LYP + 0.1900 VWN1RPA
 Using Euler-Maclaurin-Lebedev (75,302) quadrature formula
 SCF converges when DIIS error is below 1.0E-06
 Maximum number of SCF iterations = 1000

NRad = 75 NAng = 302
 Warning!  Inaccurate integrated density:
   Number of electrons =    33
   Numerical integral  =    34.000032008271
   Relative error      =     3.0304000251 %
 ---------------------------------------
  Cycle       Energy         DIIS Error
 ---------------------------------------
    1    -194.8889245372      2.84E-02

NRad = 75 NAng = 302
    2    -193.5672217515      3.63E-03

NRad = 75 NAng = 302
    3    -192.7182511713      1.01E-02

NRad = 75 NAng = 302
    4    -193.7051569026      1.45E-03

NRad = 75 NAng = 302
    5    -193.7187071733      8.06E-04

NRad = 75 NAng = 302
    6    -193.7245794919      3.23E-04

NRad = 75 NAng = 302
    7    -193.7259037069      1.23E-04

NRad = 75 NAng = 302
    8    -193.7264047872      7.10E-05

NRad = 75 NAng = 302
    9    -193.7267862939      4.94E-05

NRad = 75 NAng = 302
   10    -193.7269035306      1.88E-05

NRad = 75 NAng = 302
   11    -193.7269371763      7.82E-06

NRad = 75 NAng = 302
   12    -193.7269444709      7.06E-06

NRad = 75 NAng = 302
   13    -193.7269481648      4.64E-06

NRad = 75 NAng = 302
   14    -193.7269509595      1.59E-06

NRad = 75 NAng = 302
   15    -193.7269517710      8.40E-07 Convergence criterion met
 ---------------------------------------
 One-Electron    Energy =  -518.1282787285
 Total Coulomb   Energy =   217.4109660738
 Alpha Exchange  Energy =    -2.7718129968
 Beta  Exchange  Energy =    -2.4524869707
 DFT   Exchange  Energy =   -20.8066875666
 DFT Correlation Energy =    -1.3766442071
 Nuclear Repu.   Energy =   134.3979926249
 Nuclear Attr.   Energy =  -711.5118730021
 Kinetic         Energy =   193.3835942735
 <S^2> = 3.7565
 SCF time:  CPU 1255.20 s  wall 1260.12 s
 Analysis of SCF Wavefunction
 
 --------------------------------------------------------------
                    Orbital Energies (a.u.)
 --------------------------------------------------------------
 
 Alpha MOs
 -- Occupied --
-19.534 -10.561 -10.464 -10.458  -1.406  -1.099  -0.993  -0.902
 -0.854  -0.790  -0.764  -0.714  -0.684  -0.669  -0.659  -0.654
 -0.632  -0.258
 -- Virtual --
 -0.178  -0.160  -0.156  -0.145  -0.130  -0.122  -0.107  -0.105
 -0.090  -0.087  -0.081  -0.065  -0.059  -0.052  -0.042  -0.034
 -0.024  -0.019  -0.016  -0.008  -0.001   0.005   0.012   0.021
  0.021   0.025   0.050   0.056   0.065   0.105   0.112   0.125
  0.137   0.162   0.199   0.219   0.221   0.235   0.255   0.274
  0.286   0.305   0.310   0.335   0.341   0.347   0.350   0.363
  0.366   0.380   0.395   0.439   0.449   0.466   0.491   0.534
  0.554   0.595   0.600   0.645   0.676   0.684   0.702   0.728
  0.761   0.794   0.808   0.838   0.844   0.860   0.882   0.914
  0.927   0.952   0.974   0.996   1.017   1.024   1.027   1.054
  1.074   1.082   1.098   1.143   1.183   1.196   1.203   1.219
  1.245   1.274   1.279   1.306   1.323   1.332   1.368   1.374
  1.447   1.530   1.714   1.751   1.925   2.029   2.107   2.199
  2.229   2.285   2.288   2.340   2.385   2.400   2.486   2.512
  2.525   2.551   2.618   2.644   2.659   2.680   2.704   2.812
  2.822   2.853   2.865   2.888   2.937   2.995   3.009   3.026
  3.045   3.068   3.106   3.141   3.200   3.245   3.264   3.280
  3.297   3.322   3.359   3.372   3.419   3.469   3.493   3.517
  3.557   3.583   3.668   3.682   3.694   3.709   3.748   3.801
  3.832   3.872   3.903   3.927   3.940   3.963   3.974   3.992
  4.026   4.038   4.141   4.143   4.192   4.261   4.283   4.299
  4.323   4.363   4.415   4.529   4.634   4.798   4.824   4.934
  4.997   5.071   5.116   5.182   5.189   5.312   5.353   5.376
  5.398   5.472   5.573   6.050   6.548   6.777   6.811   6.844
  7.177   7.297  23.847  23.971  24.057  27.305  27.478  27.776
 27.849  27.873  27.898  27.906  28.079  28.184  40.734  40.740
 40.780  40.794  40.818  40.819  40.822  40.826  40.832  40.892
 40.898  40.906  40.915  40.923  40.933  43.376  43.446  43.451
 43.542  43.634  45.376  45.721  46.099  49.640
 
 Beta MOs
 -- Occupied --
-19.503 -10.554 -10.459 -10.453  -1.338  -1.062  -0.965  -0.877
 -0.814  -0.734  -0.723  -0.663  -0.657  -0.650  -0.629
 -- Virtual --
 -0.552  -0.485  -0.189  -0.158  -0.151  -0.143  -0.137  -0.125
 -0.111  -0.100  -0.097  -0.088  -0.080  -0.069  -0.061  -0.045
 -0.042  -0.033  -0.024  -0.018  -0.015  -0.010   0.002   0.007
  0.011   0.019   0.025   0.030   0.037   0.056   0.067   0.075
  0.109   0.123   0.133   0.143   0.171   0.205   0.228   0.236
  0.247   0.264   0.283   0.295   0.317   0.327   0.346   0.351
  0.353   0.356   0.376   0.385   0.394   0.406   0.452   0.457
  0.473   0.504   0.545   0.563   0.604   0.613   0.655   0.684
  0.694   0.717   0.740   0.773   0.806   0.817   0.855   0.867
  0.885   0.894   0.923   0.938   0.966   0.983   1.009   1.029
  1.037   1.043   1.070   1.086   1.094   1.110   1.166   1.201
  1.210   1.211   1.228   1.253   1.286   1.291   1.317   1.334
  1.349   1.383   1.388   1.476   1.574   1.743   1.776   1.963
  2.048   2.118   2.223   2.250   2.299   2.303   2.355   2.405
  2.417   2.510   2.535   2.547   2.575   2.639   2.654   2.672
  2.692   2.723   2.827   2.836   2.871   2.878   2.903   2.948
  3.005   3.030   3.040   3.055   3.083   3.125   3.154   3.215
  3.261   3.274   3.295   3.312   3.337   3.374   3.395   3.437
  3.493   3.511   3.533   3.574   3.597   3.686   3.700   3.710
  3.725   3.764   3.817   3.857   3.893   3.921   3.946   3.955
  3.976   3.995   4.019   4.047   4.057   4.155   4.162   4.204
  4.275   4.302   4.321   4.338   4.380   4.435   4.549   4.734
  4.854   4.880   4.973   5.039   5.093   5.154   5.214   5.243
  5.336   5.368   5.391   5.415   5.509   5.591   6.078   6.649
  6.827   6.890   6.932   7.221   7.326  23.854  23.977  24.064
 27.314  27.485  27.783  27.852  27.877  27.902  27.909  28.086
 28.193  40.740  40.751  40.788  40.803  40.822  40.826  40.828
 40.830  40.839  40.897  40.901  40.909  40.921  40.929  40.942
 43.433  43.501  43.508  43.566  43.650  45.432  45.743  46.115
 49.670
 --------------------------------------------------------------
 
          Ground-State Mulliken Net Atomic Charges

     Atom                 Charge (a.u.)    Spin (a.u.)
  --------------------------------------------------------
      1 O                     0.704274       0.513374
      2 C                    -0.366215       0.664712
      3 H                    -0.231903       0.688634
      4 H                     0.225953       0.208270
      5 C                    -0.403988       0.401774
      6 C                     0.040716      -0.013986
      7 H                     0.202749       0.027291
      8 H                     0.235161       0.026283
      9 H                     0.212981       0.068605
     10 H                     0.150696       0.249964
     11 H                     0.142925       0.041933
     12 H                     0.086649       0.123146
  --------------------------------------------------------
  Sum of atomic charges =     1.000000
  Sum of spin   charges =     3.000000

 -----------------------------------------------------------------
                    Cartesian Multipole Moments
 -----------------------------------------------------------------
    Charge (ESU x 10^10)
                 4.8032
    Dipole Moment (Debye)
         X      -1.1896      Y      -3.6201      Z      -0.5316
       Tot       3.8474
    Quadrupole Moments (Debye-Ang)
        XX     -17.7712     XY      -3.7210     YY     -26.5389
        XZ      -1.4135     YZ      -0.9483     ZZ     -24.9308
    Octapole Moments (Debye-Ang^2)
       XXX     -11.6478    XXY     -13.0524    XYY      -6.2714
       YYY     -14.1767    XXZ      -4.0157    XYZ      -2.2624
       YYZ      -4.0145    XZZ      -4.3593    YZZ      -6.2417
       ZZZ      -7.8530
    Hexadecapole Moments (Debye-Ang^3)
      XXXX    -167.9965   XXXY     -25.4606   XXYY     -71.2718
      XYYY     -22.4793   YYYY    -203.9483   XXXZ      -5.5443
      XXYZ      -3.2088   XYYZ      -5.2483   YYYZ     -12.2628
      XXZZ     -46.9470   XYZZ      -6.8511   YYZZ     -48.5002
      XZZZ      -6.8982   YZZZ      -6.0160   ZZZZ     -66.1338
 -----------------------------------------------------------------
 Total job time:  1260.88s(wall), 1255.89s(cpu) 
 Mon Jun  3 15:33:06 2013

        *************************************************************
        *                                                           *
        *  Thank you very much for using Q-Chem.  Have a nice day.  *
        *                                                           *
        *************************************************************


0 sent ACK to 0 
now end server 0 ... 
