Process 0 of 1 is on cl100.stfx.acenet.ca - thread support 1
initial socket setup ...start
initial socket setup ...done 
now start server 0 ... 

cmd = /usr/bin/ssh clhead /usr/local/qchem/bin/get_hostid 1105934605 > /scratch/tmp/6064843.1.short.q/qchem30855/lic.dat
                  Welcome to Q-Chem
     A Quantum Leap Into The Future Of Chemistry

 Y. Shao, L. Fusti-Molnar, Y. Jung, J. Kussmann, C. Ochsenfeld,
 S. T. Brown, A. T. B. Gilbert, L. V. Slipchenko,S. V. Levchenko,
 D. P. O'Neill, R. A. DiStasio Jr., R. C. Lochan, T. Wang,
 G. J. O. Beran, N. A. Besley, J. M. Herbert, C. Y. Lin,
 T. Van Voorhis, S. H. Chien, A. Sodt, R. P. Steele, 
 V. A. Rassolov, P. E. Maslen, P. P. Korambath, R. D. Adamson,
 B. Austin, J. Baker, E. F. C. Byrd, H. Dachsel, R. J. Doerksen,
 A. Dreuw, B. D. Dunietz, A. D. Dutoi, T. R. Furlani,
 S. R. Gwaltney, A. Heyden, S. Hirata, C.-P. Hsu, G. Kedziora,
 R. Z. Khaliullin, P. Klunzinger, A. M. Lee, M. S. Lee, W. Liang,
 I. Lotan, N. Nair, B. Peters, E. I. Proynov, P. A. Pieniazek, 
 Y. M. Rhee, J. Ritchie, E. Rosta, C. D. Sherrill, 
 A. C. Simmonett, J. E. Subotnik, H. L. Woodcock III,
 W. Zhang, A. T. Bell, A. K. Chakraborty, D. M. Chipman,
 F. J. Keil, A. Warshel, W. J. Hehre, H. F. Schaefer III,
 J. Kong, A. I. Krylov, P. M. W. Gill, M. Head-Gordon,
 Q-Chem, Version 3.1, Q-Chem, Inc., Pittsburgh, PA (2007).

 Additional authors for Version 3.1: 
 Z. Gan, Y. Zhao, N. E. Schultz, D. Truhlar, E. Epifanovsky and M. Oana.

 Additional authors for Version 3.2: 
 R. Baer, B. R. Brooks, D. Casanova, J.-D. Chai, C.-L. Cheng, 
 C. Cramer, D. Crittenden, A. Ghysels, G. Hawkins, E. G. Hohenstein, 
 C. Kelley, W. Kurlancheek, D. Liotard, E. Livshits, P. Manohar, 
 A. Marenich, D. Neuhauser, R. Olson, M. A. Rohrdanz, K. S. Thanthiriwatte, 
 A. J. W. Thom, V. Vanovschi, C. F. Williams, Q. Wu and Z.-Q. You. 


 Intel X86 Linux Version

 Q-chem begins on Mon Jul  8 12:26:19 2013  

 Parallel job on  1  processors
Processing $rem in /usr/local/qchem/config/preferences.

theFileMan(): MAXOPENFILES=974 MAX_SUB_FILE_NUM=16
Maximum size of a physical file is 2.0 GB, maximum size of a tmp-file is 32.0 GB


--------------------------------------------------------------
User input:
--------------------------------------------------------------

$molecule
-1,2
C          0.00153        0.00000       -0.00170
N          0.02691        0.00000        1.45040
H          0.98841        0.00000       -0.48072
H          0.49984       -0.81525        1.81295
H          0.49984        0.81525        1.81295
H         -0.54295       -0.87642       -0.35515
H         -0.54295        0.87642       -0.35515
$end

$comment
negative
$end

$xc_functional
C PBE   1.00
X wPBE  1.00
$end

$rem
SYMMETRY_DECOMPOSITION	0
exchange 		general
LRC_DFT                 true
BASIS                   g3large
omega			200
mem_static              760
max_scf_cycles          200
scf_final_print         1
sym_ignore              true
$end

--------------------------------------------------------------
 Writing REM_CC_EA            7
 ----------------------------------------------------
       Standard Nuclear Orientation (Angstroms)
    I     Atom         X            Y            Z
 ----------------------------------------------------
    1      C       0.001530     0.000000    -0.001700
    2      N       0.026910     0.000000     1.450400
    3      H       0.988410     0.000000    -0.480720
    4      H       0.499840    -0.815250     1.812950
    5      H       0.499840     0.815250     1.812950
    6      H      -0.542950    -0.876420    -0.355150
    7      H      -0.542950     0.876420    -0.355150
 ----------------------------------------------------
 Nuclear Repulsion Energy =    42.1716120230 hartrees
 There are       10 alpha and        9 beta electrons
 Requested basis set is G3large
 There are 50 shells and 134 basis functions

Total QAlloc Memory Limit   2000 MB
Mega-Array Size       743 MB
MEM_STATIC part       760 MB

                       Distance Matrix (Angstroms)
             C (  1)   N (  2)   H (  3)   H (  4)   H (  5)   H (  6)
   N (  2)  1.452322
   H (  3)  1.096992  2.157245
   H (  4)  2.050829  1.009821  2.482792
   H (  5)  2.050829  1.009821  2.482792  1.630500
   H (  6)  1.090641  2.086352  1.768882  2.406618  2.941057
   H (  7)  1.090641  2.086352  1.768882  2.941057  2.406618  1.752840

 
 A cutoff of  1.0D-08 yielded   1263 shell pairs
 There are   9135 function pairs ( 10882 Cartesian)
Evaluating contribution to one-electron hamiltonian from nuclear
 Smallest overlap matrix eigenvalue = 4.94E-04
 Multipole matrices computed through 2nd order

  Scale SEOQF with 1.000000e-01/1.000000e-01/1.000000e-01

 Standard Electronic Orientation quadrupole field applied
 Nucleus-field energy     =    -0.0000000021 hartrees
 Guess from superposition of atomic densities
 Warning:  Energy on first SCF cycle will be non-variational
 Long-range K will be added via erf
 Coulomb attenuation parameter = 0.2 bohr**(-1)
 An unrestricted Kohn-Sham SCF calculation will be
 performed using Pulay DIIS extrapolation
 Exchange:  wPBE + LR-HF      Correlation:  PBE
 Using SG-1 standard quadrature grid
 SCF converges when DIIS error is below 1.0E-05
 Requested basis set is G3large
 There are 50 shells and 134 basis functions
 A cutoff of  1.0D-08 yielded   1263 shell pairs
 There are   9135 function pairs ( 10882 Cartesian)
 Warning!  Inaccurate integrated density:
   Number of electrons =    19
   Numerical integral  =    18.000022500592
   Relative error      =    -5.2630394706 %
 ---------------------------------------
  Cycle       Energy         DIIS Error
 ---------------------------------------
    1     -96.0005904956      3.70E-02
    2     -95.6446522481      6.30E-03
    3     -95.6424742925      7.65E-03
    4     -95.7581010900      5.88E-04
    5     -95.7606493570      3.59E-04
    6     -95.7616540592      1.13E-04
    7     -95.7621304837      5.10E-05
    8     -95.7623297237      2.80E-05
    9     -95.7624250152      2.05E-05
   10     -95.7624830943      1.47E-05
   11     -95.7625280119      8.34E-06 Convergence criterion met
 ---------------------------------------
 One-Electron    Energy =  -214.4942830137
 Total Coulomb   Energy =    90.7567975172
 Alpha Exchange  Energy =    -1.0318432961
 Beta  Exchange  Energy =    -0.9742260415
 DFT   Exchange  Energy =   -11.6092859584
 DFT Correlation Energy =    -0.5812992402
 Nuclear Repu.   Energy =    42.1716120209
 Nuclear Attr.   Energy =  -310.0001622211
 Kinetic         Energy =    95.5058792074
 <S^2> = 0.7501
 SCF time:  CPU 53.66 s  wall 53.96 s
 Final Alpha MO Eigenvalues
            1           2           3           4           5           6
    1 -13.9208708  -9.8557410  -0.7681880  -0.5631825  -0.4033631  -0.3530477
            7           8           9          10          11          12
    1  -0.3187869  -0.2801761  -0.1510507   0.0269400   0.1386634   0.1446439
           13          14          15
    1   0.1584664   0.1868332   0.2197393
 Final Beta MO Eigenvalues
            1           2           3           4           5           6
    1 -13.9204518  -9.8553014  -0.7674513  -0.5616843  -0.4023421  -0.3514437
            7           8           9          10          11          12
    1  -0.3178675  -0.2793324  -0.1502912   0.1331581   0.1536078   0.1570414
           13          14
    1   0.1718279   0.1897969
 Analysis of SCF Wavefunction
 
 --------------------------------------------------------------
                    Orbital Energies (a.u.)
 --------------------------------------------------------------
 
 Alpha MOs
 -- Occupied --
-13.921  -9.856  -0.768  -0.563  -0.403  -0.353  -0.319  -0.280
 -0.151   0.027
 -- Virtual --
  0.139   0.145   0.158   0.187   0.220   0.259   0.261   0.275
  0.313   0.331   0.341   0.374   0.374   0.388   0.397   0.425
  0.444   0.478   0.622   0.628   0.685   0.699   0.741   0.762
  0.780   0.796   0.797   0.825   0.849   0.857   0.937   0.961
  1.053   1.063   1.121   1.124   1.218   1.277   1.277   1.316
  1.371   1.388   1.427   1.467   1.479   1.520   1.587   1.625
  1.639   1.671   1.707   1.825   1.835   1.915   2.059   2.059
  2.528   2.561   2.655   2.830   2.909   3.102   3.174   3.190
  3.207   3.278   3.304   3.396   3.422   3.452   3.513   3.542
  3.608   3.627   3.821   3.860   3.867   3.952   3.959   4.035
  4.052   4.076   4.214   4.287   4.298   4.400   4.420   4.452
  4.505   4.601   4.797   4.806   4.937   4.958   5.048   5.075
  5.307   5.357   5.434   5.520   5.675   5.792   5.866   5.930
  6.288   6.616  24.359  28.087  28.126  28.142  35.672  37.586
 38.223  38.289  40.614  40.697  40.739  40.764  40.849  40.978
 41.087  41.224  41.269  41.313
 
 Beta MOs
 -- Occupied --
-13.920  -9.855  -0.767  -0.562  -0.402  -0.351  -0.318  -0.279
 -0.150
 -- Virtual --
  0.133   0.154   0.157   0.172   0.190   0.218   0.256   0.257
  0.276   0.313   0.330   0.340   0.373   0.375   0.387   0.398
  0.424   0.442   0.476   0.621   0.627   0.684   0.698   0.741
  0.761   0.780   0.795   0.798   0.824   0.850   0.858   0.937
  0.961   1.056   1.065   1.122   1.125   1.221   1.278   1.278
  1.316   1.372   1.389   1.428   1.469   1.480   1.522   1.588
  1.627   1.641   1.673   1.709   1.827   1.836   1.916   2.060
  2.060   2.529   2.562   2.654   2.830   2.909   3.102   3.174
  3.191   3.207   3.280   3.305   3.396   3.423   3.454   3.514
  3.543   3.609   3.629   3.822   3.861   3.868   3.953   3.961
  4.035   4.053   4.076   4.216   4.287   4.299   4.401   4.420
  4.453   4.505   4.602   4.798   4.806   4.937   4.959   5.049
  5.076   5.307   5.358   5.436   5.522   5.676   5.793   5.867
  5.932   6.290   6.617  24.360  28.088  28.126  28.142  35.673
 37.586  38.224  38.290  40.614  40.697  40.739  40.764  40.849
 40.978  41.087  41.225  41.269  41.313
 --------------------------------------------------------------
 
          Ground-State Mulliken Net Atomic Charges

     Atom                 Charge (a.u.)    Spin (a.u.)
  --------------------------------------------------------
      1 C                     3.072411      -3.359835
      2 N                    -0.596298       0.292431
      3 H                    -1.272732       1.368571
      4 H                    -0.445848       0.609254
      5 H                    -0.445572       0.608921
      6 H                    -0.657168       0.741582
      7 H                    -0.654792       0.739076
  --------------------------------------------------------
  Sum of atomic charges =    -1.000000
  Sum of spin   charges =     1.000000

 -----------------------------------------------------------------
                    Cartesian Multipole Moments
 -----------------------------------------------------------------
    Charge (ESU x 10^10)
                -4.8032
    Dipole Moment (Debye)
         X      -3.4313      Y       0.0080      Z      -2.6541
       Tot       4.3380
    Quadrupole Moments (Debye-Ang)
        XX     -41.2262     XY      -0.0038     YY     -36.9414
        XZ      -0.5575     YZ      -0.0034     ZZ     -44.2448
    Octapole Moments (Debye-Ang^2)
       XXX     -53.6075    XXY       0.0297    XYY     -14.1288
       YYY       0.0962    XXZ     -20.0504    XYZ       0.0023
       YYZ     -20.3515    XZZ     -19.9307    YZZ       0.0324
       ZZZ     -66.5151
    Hexadecapole Moments (Debye-Ang^3)
      XXXX    -335.5511   XXXY      -0.0320   XXYY    -104.2966
      XYYY      -0.0382   YYYY    -298.8595   XXXZ     -32.7936
      XXYZ      -0.0098   XYYZ     -13.7299   YYYZ      -0.0222
      XXZZ    -150.6315   XYZZ      -0.0099   YYZZ    -140.5112
      XZZZ     -37.5372   YZZZ      -0.0233   ZZZZ    -525.5415
 -----------------------------------------------------------------
 Total job time:  54.10s(wall), 53.79s(cpu) 
 Mon Jul  8 12:27:13 2013

        *************************************************************
        *                                                           *
        *  Thank you very much for using Q-Chem.  Have a nice day.  *
        *                                                           *
        *************************************************************


0 sent ACK to 0 
now end server 0 ... 
 
**********************************************************************
Job 2 of 3 
**********************************************************************
 
Process 0 of 1 is on cl100.stfx.acenet.ca - thread support 1
initial socket setup ...start
initial socket setup ...done 
now start server 0 ... 

cmd = /usr/bin/ssh clhead /usr/local/qchem/bin/get_hostid 656706104 > /scratch/tmp/6064843.1.short.q/qchem30855/lic.dat
                  Welcome to Q-Chem
     A Quantum Leap Into The Future Of Chemistry

 Y. Shao, L. Fusti-Molnar, Y. Jung, J. Kussmann, C. Ochsenfeld,
 S. T. Brown, A. T. B. Gilbert, L. V. Slipchenko,S. V. Levchenko,
 D. P. O'Neill, R. A. DiStasio Jr., R. C. Lochan, T. Wang,
 G. J. O. Beran, N. A. Besley, J. M. Herbert, C. Y. Lin,
 T. Van Voorhis, S. H. Chien, A. Sodt, R. P. Steele, 
 V. A. Rassolov, P. E. Maslen, P. P. Korambath, R. D. Adamson,
 B. Austin, J. Baker, E. F. C. Byrd, H. Dachsel, R. J. Doerksen,
 A. Dreuw, B. D. Dunietz, A. D. Dutoi, T. R. Furlani,
 S. R. Gwaltney, A. Heyden, S. Hirata, C.-P. Hsu, G. Kedziora,
 R. Z. Khaliullin, P. Klunzinger, A. M. Lee, M. S. Lee, W. Liang,
 I. Lotan, N. Nair, B. Peters, E. I. Proynov, P. A. Pieniazek, 
 Y. M. Rhee, J. Ritchie, E. Rosta, C. D. Sherrill, 
 A. C. Simmonett, J. E. Subotnik, H. L. Woodcock III,
 W. Zhang, A. T. Bell, A. K. Chakraborty, D. M. Chipman,
 F. J. Keil, A. Warshel, W. J. Hehre, H. F. Schaefer III,
 J. Kong, A. I. Krylov, P. M. W. Gill, M. Head-Gordon,
 Q-Chem, Version 3.1, Q-Chem, Inc., Pittsburgh, PA (2007).

 Additional authors for Version 3.1: 
 Z. Gan, Y. Zhao, N. E. Schultz, D. Truhlar, E. Epifanovsky and M. Oana.

 Additional authors for Version 3.2: 
 R. Baer, B. R. Brooks, D. Casanova, J.-D. Chai, C.-L. Cheng, 
 C. Cramer, D. Crittenden, A. Ghysels, G. Hawkins, E. G. Hohenstein, 
 C. Kelley, W. Kurlancheek, D. Liotard, E. Livshits, P. Manohar, 
 A. Marenich, D. Neuhauser, R. Olson, M. A. Rohrdanz, K. S. Thanthiriwatte, 
 A. J. W. Thom, V. Vanovschi, C. F. Williams, Q. Wu and Z.-Q. You. 


 Intel X86 Linux Version

 Q-chem begins on Mon Jul  8 12:27:17 2013  

 Parallel job on  1  processors
Processing $rem in /usr/local/qchem/config/preferences.

theFileMan(): MAXOPENFILES=974 MAX_SUB_FILE_NUM=16
Maximum size of a physical file is 2.0 GB, maximum size of a tmp-file is 32.0 GB


--------------------------------------------------------------
User input:
--------------------------------------------------------------

$molecule
0,1
C          0.00153        0.00000       -0.00170
N          0.02691        0.00000        1.45040
H          0.98841        0.00000       -0.48072
H          0.49984       -0.81525        1.81295
H          0.49984        0.81525        1.81295
H         -0.54295       -0.87642       -0.35515
H         -0.54295        0.87642       -0.35515
$end

$comment
neutral
$end

$xc_functional
C PBE   1.00
X wPBE  1.00
$end


$rem
SYMMETRY_DECOMPOSITION	0
LRC_DFT                 true
exchange 		general
BASIS                   g3large
omega			200
mem_static              760
max_scf_cycles          200
scf_final_print         1
sym_ignore              true
$end

--------------------------------------------------------------
 Writing REM_CC_EA            7
 ----------------------------------------------------
       Standard Nuclear Orientation (Angstroms)
    I     Atom         X            Y            Z
 ----------------------------------------------------
    1      C       0.001530     0.000000    -0.001700
    2      N       0.026910     0.000000     1.450400
    3      H       0.988410     0.000000    -0.480720
    4      H       0.499840    -0.815250     1.812950
    5      H       0.499840     0.815250     1.812950
    6      H      -0.542950    -0.876420    -0.355150
    7      H      -0.542950     0.876420    -0.355150
 ----------------------------------------------------
 Nuclear Repulsion Energy =    42.1716120230 hartrees
 There are        9 alpha and        9 beta electrons
 Requested basis set is G3large
 There are 50 shells and 134 basis functions

Total QAlloc Memory Limit   2000 MB
Mega-Array Size       743 MB
MEM_STATIC part       760 MB

                       Distance Matrix (Angstroms)
             C (  1)   N (  2)   H (  3)   H (  4)   H (  5)   H (  6)
   N (  2)  1.452322
   H (  3)  1.096992  2.157245
   H (  4)  2.050829  1.009821  2.482792
   H (  5)  2.050829  1.009821  2.482792  1.630500
   H (  6)  1.090641  2.086352  1.768882  2.406618  2.941057
   H (  7)  1.090641  2.086352  1.768882  2.941057  2.406618  1.752840

 
 A cutoff of  1.0D-08 yielded   1263 shell pairs
 There are   9135 function pairs ( 10882 Cartesian)
Evaluating contribution to one-electron hamiltonian from nuclear
 Smallest overlap matrix eigenvalue = 4.94E-04
 Multipole matrices computed through 2nd order

  Scale SEOQF with 1.000000e-01/1.000000e-01/1.000000e-01

 Standard Electronic Orientation quadrupole field applied
 Nucleus-field energy     =    -0.0000000021 hartrees
 Guess from superposition of atomic densities
 Warning:  Energy on first SCF cycle will be non-variational
 Long-range K will be added via erf
 Coulomb attenuation parameter = 0.2 bohr**(-1)
 A restricted Kohn-Sham SCF calculation will be
 performed using Pulay DIIS extrapolation
 Exchange:  wPBE + LR-HF      Correlation:  PBE
 Using SG-1 standard quadrature grid
 SCF converges when DIIS error is below 1.0E-05
 Requested basis set is G3large
 There are 50 shells and 134 basis functions
 A cutoff of  1.0D-08 yielded   1263 shell pairs
 There are   9135 function pairs ( 10882 Cartesian)
 ---------------------------------------
  Cycle       Energy         DIIS Error
 ---------------------------------------
    1     -96.0005904956      3.70E-02
    2     -95.7298254908      5.39E-03
    3     -95.7286398156      5.81E-03
    4     -95.7904461486      4.60E-04
    5     -95.7907808390      1.98E-04
    6     -95.7908559424      4.82E-05
    7     -95.7908600029      7.63E-06 Convergence criterion met
 ---------------------------------------
 One-Electron    Energy =  -211.8878581120
 Total Coulomb   Energy =    88.0422328633
 Alpha Exchange  Energy =    -0.9746630552
 Beta  Exchange  Energy =    -0.9746630552
 DFT   Exchange  Energy =   -11.5935370266
 DFT Correlation Energy =    -0.5739836381
 Nuclear Repu.   Energy =    42.1716120209
 Nuclear Attr.   Energy =  -307.3320785363
 Kinetic         Energy =    95.4442204243
 SCF time:  CPU 27.53 s  wall 27.56 s
 Final Alpha MO Eigenvalues
            1           2           3           4           5           6
    1 -14.0686711 -10.0028905  -0.9154745  -0.7091590  -0.5500942  -0.4997466
            7           8           9          10          11          12
    1  -0.4641901  -0.4250255  -0.2960525   0.0315787   0.0533891   0.0603003
           13          14
    1   0.0703910   0.0931481
 Analysis of SCF Wavefunction
 
 --------------------------------------------------------------
                    Orbital Energies (a.u.)
 --------------------------------------------------------------
 
 Alpha MOs
 -- Occupied --
-14.069 -10.003  -0.915  -0.709  -0.550  -0.500  -0.464  -0.425
 -0.296
 -- Virtual --
  0.032   0.053   0.060   0.070   0.093   0.113   0.146   0.146
  0.163   0.189   0.210   0.217   0.239   0.244   0.256   0.264
  0.296   0.316   0.348   0.488   0.492   0.548   0.563   0.603
  0.624   0.640   0.653   0.655   0.688   0.708   0.722   0.797
  0.823   0.909   0.921   0.977   0.984   1.074   1.133   1.134
  1.174   1.227   1.246   1.283   1.325   1.336   1.377   1.446
  1.484   1.497   1.529   1.567   1.680   1.692   1.770   1.916
  1.917   2.384   2.416   2.510   2.682   2.763   2.956   3.028
  3.044   3.062   3.132   3.159   3.250   3.277   3.306   3.368
  3.396   3.461   3.482   3.675   3.713   3.721   3.806   3.812
  3.890   3.907   3.929   4.067   4.141   4.151   4.254   4.274
  4.306   4.358   4.454   4.651   4.658   4.790   4.812   4.901
  4.928   5.160   5.211   5.288   5.374   5.529   5.645   5.722
  5.785   6.141   6.468  24.212  27.940  27.979  27.995  35.525
 37.438  38.076  38.142  40.466  40.549  40.592  40.616  40.701
 40.831  40.940  41.077  41.122  41.166
 --------------------------------------------------------------
 
          Ground-State Mulliken Net Atomic Charges

     Atom                 Charge (a.u.)
  ----------------------------------------
      1 C                    -0.279610
      2 N                    -0.303063
      3 H                     0.077101
      4 H                     0.158370
      5 H                     0.158351
      6 H                     0.094444
      7 H                     0.094407
  ----------------------------------------
  Sum of atomic charges =     0.000000

 -----------------------------------------------------------------
                    Cartesian Multipole Moments
 -----------------------------------------------------------------
    Charge (ESU x 10^10)
                 0.0000
    Dipole Moment (Debye)
         X       1.2430      Y      -0.0003      Z      -0.3479
       Tot       1.2908
    Quadrupole Moments (Debye-Ang)
        XX     -15.1437     XY       0.0000     YY     -12.7147
        XZ       3.0262     YZ      -0.0002     ZZ     -15.0222
    Octapole Moments (Debye-Ang^2)
       XXX      -1.3035    XXY      -0.0001    XYY      -0.2436
       YYY      -0.0004    XXZ     -10.9632    XYZ      -0.0002
       YYZ      -6.9217    XZZ       5.2851    YZZ      -0.0003
       ZZZ     -28.9216
    Hexadecapole Moments (Debye-Ang^3)
      XXXX     -27.3447   XXXY       0.0002   XXYY      -8.2683
      XYYY       0.0003   YYYY     -24.5588   XXXZ      -2.2283
      XXYZ       0.0001   XYYZ       1.3744   YYYZ       0.0002
      XXZZ     -25.9739   XYZZ       0.0000   YYZZ     -18.7609
      XZZZ       9.1118   YZZZ      -0.0002   ZZZZ    -116.7790
 -----------------------------------------------------------------
 Total job time:  27.70s(wall), 27.65s(cpu) 
 Mon Jul  8 12:27:44 2013

        *************************************************************
        *                                                           *
        *  Thank you very much for using Q-Chem.  Have a nice day.  *
        *                                                           *
        *************************************************************


0 sent ACK to 0 
now end server 0 ... 
 
**********************************************************************
Job 3 of 3 
**********************************************************************
 
Process 0 of 1 is on cl100.stfx.acenet.ca - thread support 1
initial socket setup ...start
initial socket setup ...done 
now start server 0 ... 

cmd = /usr/bin/ssh clhead /usr/local/qchem/bin/get_hostid 118857920 > /scratch/tmp/6064843.1.short.q/qchem30855/lic.dat
                  Welcome to Q-Chem
     A Quantum Leap Into The Future Of Chemistry

 Y. Shao, L. Fusti-Molnar, Y. Jung, J. Kussmann, C. Ochsenfeld,
 S. T. Brown, A. T. B. Gilbert, L. V. Slipchenko,S. V. Levchenko,
 D. P. O'Neill, R. A. DiStasio Jr., R. C. Lochan, T. Wang,
 G. J. O. Beran, N. A. Besley, J. M. Herbert, C. Y. Lin,
 T. Van Voorhis, S. H. Chien, A. Sodt, R. P. Steele, 
 V. A. Rassolov, P. E. Maslen, P. P. Korambath, R. D. Adamson,
 B. Austin, J. Baker, E. F. C. Byrd, H. Dachsel, R. J. Doerksen,
 A. Dreuw, B. D. Dunietz, A. D. Dutoi, T. R. Furlani,
 S. R. Gwaltney, A. Heyden, S. Hirata, C.-P. Hsu, G. Kedziora,
 R. Z. Khaliullin, P. Klunzinger, A. M. Lee, M. S. Lee, W. Liang,
 I. Lotan, N. Nair, B. Peters, E. I. Proynov, P. A. Pieniazek, 
 Y. M. Rhee, J. Ritchie, E. Rosta, C. D. Sherrill, 
 A. C. Simmonett, J. E. Subotnik, H. L. Woodcock III,
 W. Zhang, A. T. Bell, A. K. Chakraborty, D. M. Chipman,
 F. J. Keil, A. Warshel, W. J. Hehre, H. F. Schaefer III,
 J. Kong, A. I. Krylov, P. M. W. Gill, M. Head-Gordon,
 Q-Chem, Version 3.1, Q-Chem, Inc., Pittsburgh, PA (2007).

 Additional authors for Version 3.1: 
 Z. Gan, Y. Zhao, N. E. Schultz, D. Truhlar, E. Epifanovsky and M. Oana.

 Additional authors for Version 3.2: 
 R. Baer, B. R. Brooks, D. Casanova, J.-D. Chai, C.-L. Cheng, 
 C. Cramer, D. Crittenden, A. Ghysels, G. Hawkins, E. G. Hohenstein, 
 C. Kelley, W. Kurlancheek, D. Liotard, E. Livshits, P. Manohar, 
 A. Marenich, D. Neuhauser, R. Olson, M. A. Rohrdanz, K. S. Thanthiriwatte, 
 A. J. W. Thom, V. Vanovschi, C. F. Williams, Q. Wu and Z.-Q. You. 


 Intel X86 Linux Version

 Q-chem begins on Mon Jul  8 12:27:47 2013  

 Parallel job on  1  processors
Processing $rem in /usr/local/qchem/config/preferences.

theFileMan(): MAXOPENFILES=974 MAX_SUB_FILE_NUM=16
Maximum size of a physical file is 2.0 GB, maximum size of a tmp-file is 32.0 GB


--------------------------------------------------------------
User input:
--------------------------------------------------------------

$molecule
1,2
C          0.00153        0.00000       -0.00170
N          0.02691        0.00000        1.45040
H          0.98841        0.00000       -0.48072
H          0.49984       -0.81525        1.81295
H          0.49984        0.81525        1.81295
H         -0.54295       -0.87642       -0.35515
H         -0.54295        0.87642       -0.35515
$end

$comment
positive
$end

$xc_functional
C PBE   1.00
X wPBE  1.00
$end

$rem
SYMMETRY_DECOMPOSITION	0
LRC_DFT                 true
exchange 		general
BASIS                   g3large
omega			200
mem_static              760
max_scf_cycles          200
scf_final_print         1
sym_ignore              true
$end

--------------------------------------------------------------
 Writing REM_CC_EA            7
 ----------------------------------------------------
       Standard Nuclear Orientation (Angstroms)
    I     Atom         X            Y            Z
 ----------------------------------------------------
    1      C       0.001530     0.000000    -0.001700
    2      N       0.026910     0.000000     1.450400
    3      H       0.988410     0.000000    -0.480720
    4      H       0.499840    -0.815250     1.812950
    5      H       0.499840     0.815250     1.812950
    6      H      -0.542950    -0.876420    -0.355150
    7      H      -0.542950     0.876420    -0.355150
 ----------------------------------------------------
 Nuclear Repulsion Energy =    42.1716120230 hartrees
 There are        9 alpha and        8 beta electrons
 Requested basis set is G3large
 There are 50 shells and 134 basis functions

Total QAlloc Memory Limit   2000 MB
Mega-Array Size       743 MB
MEM_STATIC part       760 MB

                       Distance Matrix (Angstroms)
             C (  1)   N (  2)   H (  3)   H (  4)   H (  5)   H (  6)
   N (  2)  1.452322
   H (  3)  1.096992  2.157245
   H (  4)  2.050829  1.009821  2.482792
   H (  5)  2.050829  1.009821  2.482792  1.630500
   H (  6)  1.090641  2.086352  1.768882  2.406618  2.941057
   H (  7)  1.090641  2.086352  1.768882  2.941057  2.406618  1.752840

 
 A cutoff of  1.0D-08 yielded   1263 shell pairs
 There are   9135 function pairs ( 10882 Cartesian)
Evaluating contribution to one-electron hamiltonian from nuclear
 Smallest overlap matrix eigenvalue = 4.94E-04
 Multipole matrices computed through 2nd order

  Scale SEOQF with 1.000000e-01/1.000000e-01/1.000000e-01

 Standard Electronic Orientation quadrupole field applied
 Nucleus-field energy     =    -0.0000000021 hartrees
 Guess from superposition of atomic densities
 Warning:  Energy on first SCF cycle will be non-variational
 Long-range K will be added via erf
 Coulomb attenuation parameter = 0.2 bohr**(-1)
 An unrestricted Kohn-Sham SCF calculation will be
 performed using Pulay DIIS extrapolation
 Exchange:  wPBE + LR-HF      Correlation:  PBE
 Using SG-1 standard quadrature grid
 SCF converges when DIIS error is below 1.0E-05
 Requested basis set is G3large
 There are 50 shells and 134 basis functions
 A cutoff of  1.0D-08 yielded   1263 shell pairs
 There are   9135 function pairs ( 10882 Cartesian)
 Warning!  Inaccurate integrated density:
   Number of electrons =    17
   Numerical integral  =    18.000022500592
   Relative error      =     5.8824852976 %
 ---------------------------------------
  Cycle       Energy         DIIS Error
 ---------------------------------------
    1     -96.0005904956      3.70E-02
    2     -95.4185878793      2.71E-03
    3     -95.4306977361      2.16E-03
    4     -95.4398164393      7.10E-04
    5     -95.4408499520      1.03E-04
    6     -95.4409255156      4.90E-05
    7     -95.4409496072      2.33E-05
    8     -95.4409601874      9.97E-06 Convergence criterion met
 ---------------------------------------
 One-Electron    Energy =  -206.1803644654
 Total Coulomb   Energy =    82.3613964620
 Alpha Exchange  Energy =    -0.9790317121
 Beta  Exchange  Energy =    -0.8672491165
 DFT   Exchange  Energy =   -11.4100003088
 DFT Correlation Energy =    -0.5373230675
 Nuclear Repu.   Energy =    42.1716120209
 Nuclear Attr.   Energy =  -301.3141220753
 Kinetic         Energy =    95.1337576099
 <S^2> = 0.7533
 SCF time:  CPU 37.71 s  wall 38.05 s
 Final Alpha MO Eigenvalues
            1           2           3           4           5           6
    1 -14.4753964 -10.2842381  -1.2713907  -1.0096588  -0.8836613  -0.8256038
            7           8           9          10          11          12
    1  -0.7762945  -0.7016335  -0.6748276  -0.1538891  -0.1059728  -0.1044911
           13          14
    1  -0.0830336  -0.0599376
 Final Beta MO Eigenvalues
            1           2           3           4           5           6
    1 -14.4588122 -10.2835420  -1.2411530  -0.9971666  -0.8713455  -0.8025042
            7           8           9          10          11          12
    1  -0.7401525  -0.6974650  -0.4011297  -0.1492839  -0.1029550  -0.1018761
           13
    1  -0.0800060
 Analysis of SCF Wavefunction
 
 --------------------------------------------------------------
                    Orbital Energies (a.u.)
 --------------------------------------------------------------
 
 Alpha MOs
 -- Occupied --
-14.475 -10.284  -1.271  -1.010  -0.884  -0.826  -0.776  -0.702
 -0.675
 -- Virtual --
 -0.154  -0.106  -0.104  -0.083  -0.060  -0.053  -0.039  -0.025
 -0.010  -0.005   0.005   0.007   0.027   0.040   0.042   0.057
  0.073   0.109   0.135   0.263   0.271   0.310   0.331   0.357
  0.375   0.397   0.403   0.408   0.430   0.462   0.463   0.541
  0.558   0.654   0.678   0.682   0.706   0.806   0.878   0.878
  0.906   0.982   0.996   1.028   1.057   1.063   1.096   1.175
  1.233   1.249   1.257   1.325   1.366   1.385   1.466   1.604
  1.619   2.109   2.132   2.245   2.378   2.460   2.682   2.730
  2.732   2.767   2.842   2.891   2.964   2.981   3.003   3.057
  3.080   3.143   3.171   3.362   3.388   3.402   3.460   3.493
  3.583   3.613   3.637   3.732   3.842   3.850   3.968   3.991
  4.008   4.073   4.126   4.335   4.339   4.484   4.487   4.553
  4.589   4.766   4.816   4.906   4.998   5.172   5.357   5.439
  5.456   5.790   6.118  23.930  27.658  27.696  27.715  35.120
 37.014  37.678  37.742  40.044  40.153  40.179  40.196  40.301
 40.549  40.656  40.795  40.838  40.885
 
 Beta MOs
 -- Occupied --
-14.459 -10.284  -1.241  -0.997  -0.871  -0.803  -0.740  -0.697
 -- Virtual --
 -0.401  -0.149  -0.103  -0.102  -0.080  -0.058  -0.051  -0.034
 -0.024  -0.004   0.004   0.009   0.013   0.032   0.044   0.047
  0.060   0.080   0.116   0.140   0.271   0.273   0.314   0.335
  0.366   0.386   0.404   0.407   0.416   0.450   0.470   0.470
  0.557   0.564   0.657   0.686   0.720   0.722   0.815   0.881
  0.884   0.919   0.987   1.002   1.033   1.063   1.079   1.111
  1.190   1.244   1.252   1.267   1.333   1.394   1.409   1.484
  1.629   1.630   2.114   2.148   2.251   2.390   2.472   2.690
  2.734   2.752   2.776   2.857   2.894   2.968   2.995   3.016
  3.075   3.106   3.156   3.196   3.380   3.408   3.419   3.505
  3.510   3.611   3.622   3.648   3.761   3.860   3.871   3.984
  4.005   4.024   4.086   4.154   4.350   4.360   4.499   4.502
  4.591   4.605   4.827   4.877   4.964   5.048   5.198   5.376
  5.447   5.475   5.810   6.135  23.932  27.658  27.699  27.716
 35.140  37.060  37.689  37.753  40.086  40.161  40.207  40.235
 40.313  40.551  40.656  40.797  40.840  40.886
 --------------------------------------------------------------
 
          Ground-State Mulliken Net Atomic Charges

     Atom                 Charge (a.u.)    Spin (a.u.)
  --------------------------------------------------------
      1 C                    -0.221409       0.040216
      2 N                     0.174571       0.809114
      3 H                     0.206278       0.117599
      4 H                     0.249843      -0.001386
      5 H                     0.249760      -0.001630
      6 H                     0.170433       0.017748
      7 H                     0.170524       0.018339
  --------------------------------------------------------
  Sum of atomic charges =     1.000000
  Sum of spin   charges =     1.000000

 -----------------------------------------------------------------
                    Cartesian Multipole Moments
 -----------------------------------------------------------------
    Charge (ESU x 10^10)
                 4.8032
    Dipole Moment (Debye)
         X       1.4657      Y       0.0005      Z       4.1906
       Tot       4.4396
    Quadrupole Moments (Debye-Ang)
        XX     -10.3490     XY      -0.0017     YY      -9.2907
        XZ       2.4572     YZ      -0.0004     ZZ      -2.7014
    Octapole Moments (Debye-Ang^2)
       XXX      -0.0951    XXY      -0.0001    XYY      -0.2404
       YYY       0.0008    XXZ      -7.3262    XYZ      -0.0008
       YYZ      -4.1677    XZZ       4.7859    YZZ       0.0001
       ZZZ      -7.1201
    Hexadecapole Moments (Debye-Ang^3)
      XXXX     -16.2084   XXXY      -0.0017   XXYY      -4.9582
      XYYY      -0.0018   YYYY     -16.7739   XXXZ      -2.8133
      XXYZ      -0.0009   XYYZ       2.2247   YYYZ      -0.0009
      XXZZ     -14.7494   XYZZ      -0.0028   YYZZ     -10.3262
      XZZZ       6.5113   YZZZ       0.0001   ZZZZ     -60.7720
 -----------------------------------------------------------------
 Total job time:  38.18s(wall), 37.84s(cpu) 
 Mon Jul  8 12:28:25 2013

        *************************************************************
        *                                                           *
        *  Thank you very much for using Q-Chem.  Have a nice day.  *
        *                                                           *
        *************************************************************


0 sent ACK to 0 
now end server 0 ... 
