Process 0 of 1 is on cl038.stfx.acenet.ca - thread support 1
initial socket setup ...start
initial socket setup ...done 
now start server 0 ... 

cmd = /usr/bin/ssh clhead /usr/local/qchem/bin/get_hostid 1627746995 > /scratch/tmp/6065169.1.short.q/qchem4282/lic.dat
                  Welcome to Q-Chem
     A Quantum Leap Into The Future Of Chemistry

 Y. Shao, L. Fusti-Molnar, Y. Jung, J. Kussmann, C. Ochsenfeld,
 S. T. Brown, A. T. B. Gilbert, L. V. Slipchenko,S. V. Levchenko,
 D. P. O'Neill, R. A. DiStasio Jr., R. C. Lochan, T. Wang,
 G. J. O. Beran, N. A. Besley, J. M. Herbert, C. Y. Lin,
 T. Van Voorhis, S. H. Chien, A. Sodt, R. P. Steele, 
 V. A. Rassolov, P. E. Maslen, P. P. Korambath, R. D. Adamson,
 B. Austin, J. Baker, E. F. C. Byrd, H. Dachsel, R. J. Doerksen,
 A. Dreuw, B. D. Dunietz, A. D. Dutoi, T. R. Furlani,
 S. R. Gwaltney, A. Heyden, S. Hirata, C.-P. Hsu, G. Kedziora,
 R. Z. Khaliullin, P. Klunzinger, A. M. Lee, M. S. Lee, W. Liang,
 I. Lotan, N. Nair, B. Peters, E. I. Proynov, P. A. Pieniazek, 
 Y. M. Rhee, J. Ritchie, E. Rosta, C. D. Sherrill, 
 A. C. Simmonett, J. E. Subotnik, H. L. Woodcock III,
 W. Zhang, A. T. Bell, A. K. Chakraborty, D. M. Chipman,
 F. J. Keil, A. Warshel, W. J. Hehre, H. F. Schaefer III,
 J. Kong, A. I. Krylov, P. M. W. Gill, M. Head-Gordon,
 Q-Chem, Version 3.1, Q-Chem, Inc., Pittsburgh, PA (2007).

 Additional authors for Version 3.1: 
 Z. Gan, Y. Zhao, N. E. Schultz, D. Truhlar, E. Epifanovsky and M. Oana.

 Additional authors for Version 3.2: 
 R. Baer, B. R. Brooks, D. Casanova, J.-D. Chai, C.-L. Cheng, 
 C. Cramer, D. Crittenden, A. Ghysels, G. Hawkins, E. G. Hohenstein, 
 C. Kelley, W. Kurlancheek, D. Liotard, E. Livshits, P. Manohar, 
 A. Marenich, D. Neuhauser, R. Olson, M. A. Rohrdanz, K. S. Thanthiriwatte, 
 A. J. W. Thom, V. Vanovschi, C. F. Williams, Q. Wu and Z.-Q. You. 


 Intel X86 Linux Version

 Q-chem begins on Mon Jul  8 16:56:04 2013  

 Parallel job on  1  processors
Processing $rem in /usr/local/qchem/config/preferences.

theFileMan(): MAXOPENFILES=974 MAX_SUB_FILE_NUM=16
Maximum size of a physical file is 2.0 GB, maximum size of a tmp-file is 32.0 GB


--------------------------------------------------------------
User input:
--------------------------------------------------------------

$molecule
-1,2
F         -0.02000        0.00000        0.04316
O         -0.01707        0.00000        1.39556
F         -1.33043        0.00000        1.71817
$end

$comment
negative
$end

$xc_functional
C PBE   1.00
X wPBE  1.00
$end

$rem
SYMMETRY_DECOMPOSITION	0
exchange 		general
LRC_DFT                 true
BASIS                   g3large
omega			520
mem_static              760
max_scf_cycles          200
scf_final_print         1
sym_ignore              true
$end

--------------------------------------------------------------
 Writing REM_CC_EA            3
 ----------------------------------------------------
       Standard Nuclear Orientation (Angstroms)
    I     Atom         X            Y            Z
 ----------------------------------------------------
    1      F      -0.020000     0.000000     0.043160
    2      O      -0.017070     0.000000     1.395560
    3      F      -1.330430     0.000000     1.718170
 ----------------------------------------------------
 Nuclear Repulsion Energy =    76.5000817537 hartrees
 There are       14 alpha and       13 beta electrons
 Requested basis set is G3large
 There are 30 shells and 126 basis functions

Total QAlloc Memory Limit   2000 MB
Mega-Array Size       743 MB
MEM_STATIC part       760 MB

                       Distance Matrix (Angstroms)
             F (  1)   O (  2)
   O (  2)  1.352403
   F (  3)  2.126708  1.352402
 
 A cutoff of  1.0D-08 yielded    422 shell pairs
 There are   7641 function pairs ( 10011 Cartesian)
Evaluating contribution to one-electron hamiltonian from nuclear
 Smallest overlap matrix eigenvalue = 2.33E-03
 Multipole matrices computed through 2nd order

  Scale SEOQF with 1.000000e-01/1.000000e+00/1.000000e-01

 Standard Electronic Orientation quadrupole field applied
 Nucleus-field energy     =    -0.0000000039 hartrees
 Guess from superposition of atomic densities
 Warning:  Energy on first SCF cycle will be non-variational
 Long-range K will be added via erf
 Coulomb attenuation parameter = 0.52 bohr**(-1)
 An unrestricted Kohn-Sham SCF calculation will be
 performed using Pulay DIIS extrapolation
 Exchange:  wPBE + LR-HF      Correlation:  PBE
 Using SG-1 standard quadrature grid
 SCF converges when DIIS error is below 1.0E-05
 Requested basis set is G3large
 There are 30 shells and 126 basis functions
 A cutoff of  1.0D-08 yielded    422 shell pairs
 There are   7641 function pairs ( 10011 Cartesian)
 Warning!  Inaccurate integrated density:
   Number of electrons =    27
   Numerical integral  =    25.999982500793
   Relative error      =    -3.7037685156 %
 ---------------------------------------
  Cycle       Energy         DIIS Error
 ---------------------------------------
    1    -274.9391346474      3.35E-02
    2    -274.4454741280      6.91E-03
    3    -274.4957211482      5.09E-03
    4    -274.5201223792      1.07E-03
    5    -274.5221307395      4.13E-04
    6    -274.5228497507      2.17E-04
    7    -274.5231904347      9.32E-05
    8    -274.5234522090      7.53E-05
    9    -274.5237240235      9.83E-05
   10    -274.5235830207      9.83E-05
   11    -274.5227819776      6.36E-05
   12    -274.5224461665      4.73E-05
   13    -274.5223117092      1.47E-05
   14    -274.5223149620      1.04E-05
   15    -274.5223154154      7.57E-06 Convergence criterion met
 ---------------------------------------
 One-Electron    Energy =  -542.2964878796
 Total Coulomb   Energy =   220.8645620956
 Alpha Exchange  Energy =    -3.6089075314
 Beta  Exchange  Energy =    -3.3667330208
 DFT   Exchange  Energy =   -21.6888785654
 DFT Correlation Energy =    -0.9259522636
 Nuclear Repu.   Energy =    76.5000817497
 Nuclear Attr.   Energy =  -817.3973637716
 Kinetic         Energy =   275.1008758920
 <S^2> = 0.7596
 SCF time:  CPU 43.60 s  wall 44.08 s
 Final Alpha MO Eigenvalues
            1           2           3           4           5           6
    1 -24.2604448 -24.2603290 -18.8327534  -1.2304362  -1.1003994  -0.7820835
            7           8           9          10          11          12
    1  -0.4934833  -0.4243828  -0.4111769  -0.3135269  -0.2943111  -0.2841202
           13          14          15          16          17          18
    1  -0.1447477   0.0654599   0.3434085   0.3819460   0.4136262   0.4415839
           19
    1   0.4510024
 Final Beta MO Eigenvalues
            1           2           3           4           5           6
    1 -24.2536896 -24.2535704 -18.8167384  -1.2114436  -1.0809906  -0.7554334
            7           8           9          10          11          12
    1  -0.4299957  -0.4142646  -0.4023095  -0.3062089  -0.2786755  -0.2563960
           13          14          15          16          17          18
    1  -0.1305022   0.3575791   0.3733237   0.3908197   0.4436502   0.4664028
 Analysis of SCF Wavefunction
 
 --------------------------------------------------------------
                    Orbital Energies (a.u.)
 --------------------------------------------------------------
 
 Alpha MOs
 -- Occupied --
-24.260 -24.260 -18.833  -1.230  -1.100  -0.782  -0.493  -0.424
 -0.411  -0.314  -0.294  -0.284  -0.145   0.065
 -- Virtual --
  0.343   0.382   0.414   0.442   0.451   0.500   0.535   0.543
  0.543   0.558   0.609   0.724   0.777   1.356   1.360   1.389
  1.530   1.612   1.653   1.654   1.673   1.739   1.800   1.824
  1.830   1.851   2.198   2.304   2.377   2.398   2.401   2.427
  2.517   2.560   2.666   2.872   2.908   3.157   3.377   3.394
  5.144   5.281   5.336   5.361   5.366   5.378   5.379   5.447
  5.481   5.494   6.524   6.566   6.585   6.643   6.715   6.815
  6.960   7.007   7.034   7.036   7.036   7.039   7.046   7.060
  7.103   7.165   7.270   7.586   7.621   7.661   7.825   7.843
  7.901   8.570   8.768   9.448   9.449   9.450   9.479   9.753
  9.772   9.795   9.890  10.319  10.456  44.056  44.060  44.073
 44.110  44.191  45.853  46.165  46.483  49.950  50.418  50.428
 50.462  50.465  50.543  50.549  50.570  50.585  50.755  50.770
 55.899  55.916  55.923  55.977  56.274  56.396  66.931  66.947
 
 Beta MOs
 -- Occupied --
-24.254 -24.254 -18.817  -1.211  -1.081  -0.755  -0.430  -0.414
 -0.402  -0.306  -0.279  -0.256  -0.131
 -- Virtual --
  0.358   0.373   0.391   0.444   0.466   0.510   0.538   0.538
  0.546   0.547   0.564   0.619   0.726   0.779   1.368   1.393
  1.397   1.536   1.628   1.660   1.667   1.676   1.755   1.806
  1.833   1.839   1.858   2.217   2.311   2.387   2.401   2.407
  2.429   2.528   2.590   2.672   2.893   2.913   3.172   3.408
  3.409   5.161   5.287   5.349   5.382   5.396   5.397   5.411
  5.460   5.497   5.538   6.532   6.573   6.592   6.652   6.743
  6.837   6.982   7.015   7.040   7.040   7.041   7.043   7.055
  7.070   7.134   7.206   7.282   7.617   7.652   7.677   7.856
  7.871   7.945   8.604   8.801   9.457   9.459   9.459   9.489
  9.773   9.792   9.813   9.910  10.344  10.481  44.055  44.076
 44.104  44.161  44.231  45.863  46.172  46.531  49.967  50.421
 50.432  50.466  50.467  50.558  50.564  50.583  50.601  50.773
 50.788  55.905  55.921  55.928  55.983  56.290  56.411  66.938
 66.954
 --------------------------------------------------------------
 
          Ground-State Mulliken Net Atomic Charges

     Atom                 Charge (a.u.)    Spin (a.u.)
  --------------------------------------------------------
      1 F                    -0.081912       0.054396
      2 O                    -0.835949       0.891228
      3 F                    -0.082139       0.054376
  --------------------------------------------------------
  Sum of atomic charges =    -1.000000
  Sum of spin   charges =     1.000000

 -----------------------------------------------------------------
                    Cartesian Multipole Moments
 -----------------------------------------------------------------
    Charge (ESU x 10^10)
                -4.8032
    Dipole Moment (Debye)
         X       1.9663      Y       0.0000      Z      -5.2254
       Tot       5.5831
    Quadrupole Moments (Debye-Ang)
        XX     -22.0131     XY       0.0000     YY     -17.6520
        XZ       3.8368     YZ       0.0001     ZZ     -27.7395
    Octapole Moments (Debye-Ang^2)
       XXX      29.8089    XXY       0.0003    XYY       7.4300
       YYY       0.0000    XXZ     -26.3503    XYZ      -0.0001
       YYZ     -19.0539    XZZ      15.1816    YZZ       0.0001
       ZZZ     -74.4075
    Hexadecapole Moments (Debye-Ang^3)
      XXXX     -92.4429   XXXY      -0.0007   XXYY     -16.2373
      XYYY      -0.0002   YYYY     -15.3594   XXXZ      51.5866
      XXYZ       0.0007   XYYZ      13.0364   YYYZ       0.0003
      XXZZ     -58.9500   XYZZ      -0.0004   YYZZ     -36.1672
      XZZZ      53.4248   YZZZ       0.0005   ZZZZ    -229.0199
 -----------------------------------------------------------------
 Total job time:  44.23s(wall), 43.74s(cpu) 
 Mon Jul  8 16:56:48 2013

        *************************************************************
        *                                                           *
        *  Thank you very much for using Q-Chem.  Have a nice day.  *
        *                                                           *
        *************************************************************


0 sent ACK to 0 
now end server 0 ... 
 
**********************************************************************
Job 2 of 3 
**********************************************************************
 
Process 0 of 1 is on cl038.stfx.acenet.ca - thread support 1
initial socket setup ...start
initial socket setup ...done 
now start server 0 ... 

cmd = /usr/bin/ssh clhead /usr/local/qchem/bin/get_hostid 223510078 > /scratch/tmp/6065169.1.short.q/qchem4282/lic.dat
                  Welcome to Q-Chem
     A Quantum Leap Into The Future Of Chemistry

 Y. Shao, L. Fusti-Molnar, Y. Jung, J. Kussmann, C. Ochsenfeld,
 S. T. Brown, A. T. B. Gilbert, L. V. Slipchenko,S. V. Levchenko,
 D. P. O'Neill, R. A. DiStasio Jr., R. C. Lochan, T. Wang,
 G. J. O. Beran, N. A. Besley, J. M. Herbert, C. Y. Lin,
 T. Van Voorhis, S. H. Chien, A. Sodt, R. P. Steele, 
 V. A. Rassolov, P. E. Maslen, P. P. Korambath, R. D. Adamson,
 B. Austin, J. Baker, E. F. C. Byrd, H. Dachsel, R. J. Doerksen,
 A. Dreuw, B. D. Dunietz, A. D. Dutoi, T. R. Furlani,
 S. R. Gwaltney, A. Heyden, S. Hirata, C.-P. Hsu, G. Kedziora,
 R. Z. Khaliullin, P. Klunzinger, A. M. Lee, M. S. Lee, W. Liang,
 I. Lotan, N. Nair, B. Peters, E. I. Proynov, P. A. Pieniazek, 
 Y. M. Rhee, J. Ritchie, E. Rosta, C. D. Sherrill, 
 A. C. Simmonett, J. E. Subotnik, H. L. Woodcock III,
 W. Zhang, A. T. Bell, A. K. Chakraborty, D. M. Chipman,
 F. J. Keil, A. Warshel, W. J. Hehre, H. F. Schaefer III,
 J. Kong, A. I. Krylov, P. M. W. Gill, M. Head-Gordon,
 Q-Chem, Version 3.1, Q-Chem, Inc., Pittsburgh, PA (2007).

 Additional authors for Version 3.1: 
 Z. Gan, Y. Zhao, N. E. Schultz, D. Truhlar, E. Epifanovsky and M. Oana.

 Additional authors for Version 3.2: 
 R. Baer, B. R. Brooks, D. Casanova, J.-D. Chai, C.-L. Cheng, 
 C. Cramer, D. Crittenden, A. Ghysels, G. Hawkins, E. G. Hohenstein, 
 C. Kelley, W. Kurlancheek, D. Liotard, E. Livshits, P. Manohar, 
 A. Marenich, D. Neuhauser, R. Olson, M. A. Rohrdanz, K. S. Thanthiriwatte, 
 A. J. W. Thom, V. Vanovschi, C. F. Williams, Q. Wu and Z.-Q. You. 


 Intel X86 Linux Version

 Q-chem begins on Mon Jul  8 16:56:51 2013  

 Parallel job on  1  processors
Processing $rem in /usr/local/qchem/config/preferences.

theFileMan(): MAXOPENFILES=974 MAX_SUB_FILE_NUM=16
Maximum size of a physical file is 2.0 GB, maximum size of a tmp-file is 32.0 GB


--------------------------------------------------------------
User input:
--------------------------------------------------------------

$molecule
0,1
F         -0.02000        0.00000        0.04316
O         -0.01707        0.00000        1.39556
F         -1.33043        0.00000        1.71817
$end

$comment
neutral
$end

$xc_functional
C PBE   1.00
X wPBE  1.00
$end


$rem
SYMMETRY_DECOMPOSITION	0
LRC_DFT                 true
exchange 		general
BASIS                   g3large
omega			520
mem_static              760
max_scf_cycles          200
scf_final_print         1
sym_ignore              true
$end

--------------------------------------------------------------
 Writing REM_CC_EA            3
 ----------------------------------------------------
       Standard Nuclear Orientation (Angstroms)
    I     Atom         X            Y            Z
 ----------------------------------------------------
    1      F      -0.020000     0.000000     0.043160
    2      O      -0.017070     0.000000     1.395560
    3      F      -1.330430     0.000000     1.718170
 ----------------------------------------------------
 Nuclear Repulsion Energy =    76.5000817537 hartrees
 There are       13 alpha and       13 beta electrons
 Requested basis set is G3large
 There are 30 shells and 126 basis functions

Total QAlloc Memory Limit   2000 MB
Mega-Array Size       743 MB
MEM_STATIC part       760 MB

                       Distance Matrix (Angstroms)
             F (  1)   O (  2)
   O (  2)  1.352403
   F (  3)  2.126708  1.352402
 
 A cutoff of  1.0D-08 yielded    422 shell pairs
 There are   7641 function pairs ( 10011 Cartesian)
Evaluating contribution to one-electron hamiltonian from nuclear
 Smallest overlap matrix eigenvalue = 2.33E-03
 Multipole matrices computed through 2nd order

  Scale SEOQF with 1.000000e-01/1.000000e+00/1.000000e-01

 Standard Electronic Orientation quadrupole field applied
 Nucleus-field energy     =    -0.0000000039 hartrees
 Guess from superposition of atomic densities
 Warning:  Energy on first SCF cycle will be non-variational
 Long-range K will be added via erf
 Coulomb attenuation parameter = 0.52 bohr**(-1)
 A restricted Kohn-Sham SCF calculation will be
 performed using Pulay DIIS extrapolation
 Exchange:  wPBE + LR-HF      Correlation:  PBE
 Using SG-1 standard quadrature grid
 SCF converges when DIIS error is below 1.0E-05
 Requested basis set is G3large
 There are 30 shells and 126 basis functions
 A cutoff of  1.0D-08 yielded    422 shell pairs
 There are   7641 function pairs ( 10011 Cartesian)
 ---------------------------------------
  Cycle       Energy         DIIS Error
 ---------------------------------------
    1    -274.9391346474      3.35E-02
    2    -274.5047619768      8.20E-03
    3    -274.5302620157      7.80E-03
    4    -274.5942265444      1.72E-03
    5    -274.5982294400      4.49E-04
    6    -274.5990485132      1.81E-04
    7    -274.5992567211      9.38E-05
    8    -274.5992993611      4.87E-05
    9    -274.5993097912      1.32E-05
   10    -274.5993115936      3.25E-06 Convergence criterion met
 ---------------------------------------
 One-Electron    Energy =  -533.2959358260
 Total Coulomb   Energy =   211.3798104763
 Alpha Exchange  Energy =    -3.3911176716
 Beta  Exchange  Energy =    -3.3911176716
 DFT   Exchange  Energy =   -21.5049362470
 DFT Correlation Energy =    -0.8960964035
 Nuclear Repu.   Energy =    76.5000817497
 Nuclear Attr.   Energy =  -807.4002565842
 Kinetic         Energy =   274.1043207582
 SCF time:  CPU 23.97 s  wall 24.60 s
 Final Alpha MO Eigenvalues
            1           2           3           4           5           6
    1 -24.6227233 -24.6227044 -19.2565795  -1.5792015  -1.4355943  -1.1192521
            7           8           9          10          11          12
    1  -0.8009775  -0.7637430  -0.7484494  -0.6395960  -0.6125622  -0.6103529
           13          14          15          16          17          18
    1  -0.4945396   0.0601488   0.0871055   0.1631696   0.2138866   0.2154380
 Analysis of SCF Wavefunction
 
 --------------------------------------------------------------
                    Orbital Energies (a.u.)
 --------------------------------------------------------------
 
 Alpha MOs
 -- Occupied --
-24.623 -24.623 -19.257  -1.579  -1.436  -1.119  -0.801  -0.764
 -0.748  -0.640  -0.613  -0.610  -0.495
 -- Virtual --
  0.060   0.087   0.163   0.214   0.215   0.225   0.302   0.320
  0.333   0.334   0.334   0.409   0.487   0.546   1.064   1.071
  1.082   1.229   1.326   1.343   1.373   1.383   1.433   1.515
  1.518   1.520   1.537   1.878   2.006   2.056   2.083   2.095
  2.115   2.197   2.230   2.343   2.552   2.586   2.834   3.062
  3.075   4.773   4.918   4.976   5.005   5.009   5.020   5.023
  5.090   5.125   5.143   6.191   6.235   6.254   6.313   6.380
  6.475   6.617   6.651   6.704   6.712   6.712   6.716   6.717
  6.729   6.746   6.817   6.922   7.239   7.263   7.313   7.475
  7.495   7.546   8.213   8.415   9.113   9.114   9.115   9.144
  9.416   9.436   9.459   9.554   9.986  10.122  43.637  43.649
 43.655  43.701  43.780  45.434  45.746  46.071  49.533  50.061
 50.072  50.106  50.108  50.186  50.192  50.213  50.228  50.399
 50.413  55.541  55.558  55.565  55.619  55.914  56.036  66.570
 66.586
 --------------------------------------------------------------
 
          Ground-State Mulliken Net Atomic Charges

     Atom                 Charge (a.u.)
  ----------------------------------------
      1 F                     0.039837
      2 O                    -0.079574
      3 F                     0.039737
  ----------------------------------------
  Sum of atomic charges =     0.000000

 -----------------------------------------------------------------
                    Cartesian Multipole Moments
 -----------------------------------------------------------------
    Charge (ESU x 10^10)
                 0.0000
    Dipole Moment (Debye)
         X       0.2023      Y       0.0000      Z       0.1581
       Tot       0.2568
    Quadrupole Moments (Debye-Ang)
        XX     -14.8775     XY       0.0000     YY     -14.9757
        XZ       0.2822     YZ       0.0000     ZZ     -14.4303
    Octapole Moments (Debye-Ang^2)
       XXX      19.8310    XXY      -0.0001    XYY       6.6118
       YYY       0.0000    XXZ     -15.7236    XYZ       0.0000
       YYZ     -15.9268    XZZ       7.0392    YZZ       0.0001
       ZZZ     -46.4592
    Hexadecapole Moments (Debye-Ang^3)
      XXXX     -58.1817   XXXY       0.0001   XXYY     -11.9328
      XYYY       0.0000   YYYY      -9.7076   XXXZ      32.6537
      XXYZ      -0.0001   XYYZ      11.1828   YYYZ       0.0000
      XXZZ     -35.9142   XYZZ       0.0000   YYZZ     -28.0102
      XZZZ      34.0714   YZZZ       0.0002   ZZZZ    -151.4029
 -----------------------------------------------------------------
 Total job time:  24.74s(wall), 24.10s(cpu) 
 Mon Jul  8 16:57:16 2013

        *************************************************************
        *                                                           *
        *  Thank you very much for using Q-Chem.  Have a nice day.  *
        *                                                           *
        *************************************************************


0 sent ACK to 0 
now end server 0 ... 
 
**********************************************************************
Job 3 of 3 
**********************************************************************
 
Process 0 of 1 is on cl038.stfx.acenet.ca - thread support 1
initial socket setup ...start
initial socket setup ...done 
now start server 0 ... 

cmd = /usr/bin/ssh clhead /usr/local/qchem/bin/get_hostid 587603535 > /scratch/tmp/6065169.1.short.q/qchem4282/lic.dat
                  Welcome to Q-Chem
     A Quantum Leap Into The Future Of Chemistry

 Y. Shao, L. Fusti-Molnar, Y. Jung, J. Kussmann, C. Ochsenfeld,
 S. T. Brown, A. T. B. Gilbert, L. V. Slipchenko,S. V. Levchenko,
 D. P. O'Neill, R. A. DiStasio Jr., R. C. Lochan, T. Wang,
 G. J. O. Beran, N. A. Besley, J. M. Herbert, C. Y. Lin,
 T. Van Voorhis, S. H. Chien, A. Sodt, R. P. Steele, 
 V. A. Rassolov, P. E. Maslen, P. P. Korambath, R. D. Adamson,
 B. Austin, J. Baker, E. F. C. Byrd, H. Dachsel, R. J. Doerksen,
 A. Dreuw, B. D. Dunietz, A. D. Dutoi, T. R. Furlani,
 S. R. Gwaltney, A. Heyden, S. Hirata, C.-P. Hsu, G. Kedziora,
 R. Z. Khaliullin, P. Klunzinger, A. M. Lee, M. S. Lee, W. Liang,
 I. Lotan, N. Nair, B. Peters, E. I. Proynov, P. A. Pieniazek, 
 Y. M. Rhee, J. Ritchie, E. Rosta, C. D. Sherrill, 
 A. C. Simmonett, J. E. Subotnik, H. L. Woodcock III,
 W. Zhang, A. T. Bell, A. K. Chakraborty, D. M. Chipman,
 F. J. Keil, A. Warshel, W. J. Hehre, H. F. Schaefer III,
 J. Kong, A. I. Krylov, P. M. W. Gill, M. Head-Gordon,
 Q-Chem, Version 3.1, Q-Chem, Inc., Pittsburgh, PA (2007).

 Additional authors for Version 3.1: 
 Z. Gan, Y. Zhao, N. E. Schultz, D. Truhlar, E. Epifanovsky and M. Oana.

 Additional authors for Version 3.2: 
 R. Baer, B. R. Brooks, D. Casanova, J.-D. Chai, C.-L. Cheng, 
 C. Cramer, D. Crittenden, A. Ghysels, G. Hawkins, E. G. Hohenstein, 
 C. Kelley, W. Kurlancheek, D. Liotard, E. Livshits, P. Manohar, 
 A. Marenich, D. Neuhauser, R. Olson, M. A. Rohrdanz, K. S. Thanthiriwatte, 
 A. J. W. Thom, V. Vanovschi, C. F. Williams, Q. Wu and Z.-Q. You. 


 Intel X86 Linux Version

 Q-chem begins on Mon Jul  8 16:57:18 2013  

 Parallel job on  1  processors
Processing $rem in /usr/local/qchem/config/preferences.

theFileMan(): MAXOPENFILES=974 MAX_SUB_FILE_NUM=16
Maximum size of a physical file is 2.0 GB, maximum size of a tmp-file is 32.0 GB


--------------------------------------------------------------
User input:
--------------------------------------------------------------

$molecule
1,2
F         -0.02000        0.00000        0.04316
O         -0.01707        0.00000        1.39556
F         -1.33043        0.00000        1.71817
$end

$comment
positive
$end

$xc_functional
C PBE   1.00
X wPBE  1.00
$end

$rem
SYMMETRY_DECOMPOSITION	0
LRC_DFT                 true
exchange 		general
BASIS                   g3large
omega			520
mem_static              760
max_scf_cycles          200
scf_final_print         1
sym_ignore              true
$end

--------------------------------------------------------------
 Writing REM_CC_EA            3
 ----------------------------------------------------
       Standard Nuclear Orientation (Angstroms)
    I     Atom         X            Y            Z
 ----------------------------------------------------
    1      F      -0.020000     0.000000     0.043160
    2      O      -0.017070     0.000000     1.395560
    3      F      -1.330430     0.000000     1.718170
 ----------------------------------------------------
 Nuclear Repulsion Energy =    76.5000817537 hartrees
 There are       13 alpha and       12 beta electrons
 Requested basis set is G3large
 There are 30 shells and 126 basis functions

Total QAlloc Memory Limit   2000 MB
Mega-Array Size       743 MB
MEM_STATIC part       760 MB

                       Distance Matrix (Angstroms)
             F (  1)   O (  2)
   O (  2)  1.352403
   F (  3)  2.126708  1.352402
 
 A cutoff of  1.0D-08 yielded    422 shell pairs
 There are   7641 function pairs ( 10011 Cartesian)
Evaluating contribution to one-electron hamiltonian from nuclear
 Smallest overlap matrix eigenvalue = 2.33E-03
 Multipole matrices computed through 2nd order

  Scale SEOQF with 1.000000e-01/1.000000e+00/1.000000e-01

 Standard Electronic Orientation quadrupole field applied
 Nucleus-field energy     =    -0.0000000039 hartrees
 Guess from superposition of atomic densities
 Warning:  Energy on first SCF cycle will be non-variational
 Long-range K will be added via erf
 Coulomb attenuation parameter = 0.52 bohr**(-1)
 An unrestricted Kohn-Sham SCF calculation will be
 performed using Pulay DIIS extrapolation
 Exchange:  wPBE + LR-HF      Correlation:  PBE
 Using SG-1 standard quadrature grid
 SCF converges when DIIS error is below 1.0E-05
 Requested basis set is G3large
 There are 30 shells and 126 basis functions
 A cutoff of  1.0D-08 yielded    422 shell pairs
 There are   7641 function pairs ( 10011 Cartesian)
 Warning!  Inaccurate integrated density:
   Number of electrons =    25
   Numerical integral  =    25.999982500793
   Relative error      =     3.9999300032 %
 ---------------------------------------
  Cycle       Energy         DIIS Error
 ---------------------------------------
    1    -274.9391346474      3.35E-02
    2    -273.8432297543      1.25E-02
    3    -273.8360509148      1.46E-02
    4    -274.0828670997      3.81E-03
    5    -274.0992794579      4.91E-04
    6    -274.1015028162      3.21E-04
    7    -274.1023428408      2.42E-04
    8    -274.1030172121      1.07E-04
    9    -274.1033023295      4.66E-05
   10    -274.1033902440      1.97E-05
   11    -274.1034092193      8.53E-06 Convergence criterion met
 ---------------------------------------
 One-Electron    Energy =  -522.8600348774
 Total Coulomb   Energy =   200.9176097709
 Alpha Exchange  Energy =    -3.4136523313
 Beta  Exchange  Energy =    -3.1130026487
 DFT   Exchange  Energy =   -21.2786961871
 DFT Correlation Energy =    -0.8557146954
 Nuclear Repu.   Energy =    76.5000817497
 Nuclear Attr.   Energy =  -796.2059722798
 Kinetic         Energy =   273.3459374025
 <S^2> = 0.7544
 SCF time:  CPU 32.23 s  wall 32.64 s
 Final Alpha MO Eigenvalues
            1           2           3           4           5           6
    1 -25.0373485 -25.0372280 -19.7683742  -1.9965384  -1.8274757  -1.5413351
            7           8           9          10          11          12
    1  -1.1980795  -1.1913649  -1.1647272  -1.0317038  -0.9969224  -0.9858513
           13          14          15          16          17          18
    1  -0.9475743  -0.3466139  -0.3183396  -0.0751741  -0.0154867  -0.0132338
 Final Beta MO Eigenvalues
            1           2           3           4           5           6
    1 -25.0322794 -25.0321870 -19.7472853  -1.9736971  -1.8160127  -1.4964846
            7           8           9          10          11          12
    1  -1.1869986  -1.1506464  -1.0912033  -0.9874465  -0.9812057  -0.9677685
           13          14          15          16          17
    1  -0.4951307  -0.3246002  -0.3001019  -0.0737138  -0.0120582
 Analysis of SCF Wavefunction
 
 --------------------------------------------------------------
                    Orbital Energies (a.u.)
 --------------------------------------------------------------
 
 Alpha MOs
 -- Occupied --
-25.037 -25.037 -19.768  -1.997  -1.827  -1.541  -1.198  -1.191
 -1.165  -1.032  -0.997  -0.986  -0.948
 -- Virtual --
 -0.347  -0.318  -0.075  -0.015  -0.013  -0.013   0.084   0.089
  0.101   0.106   0.108   0.197   0.235   0.299   0.707   0.729
  0.744   0.885   0.964   0.985   1.004   1.086   1.089   1.171
  1.171   1.198   1.214   1.497   1.672   1.687   1.726   1.743
  1.758   1.827   1.851   1.980   2.168   2.204   2.468   2.697
  2.710   4.289   4.496   4.535   4.566   4.588   4.592   4.600
  4.649   4.654   4.709   5.811   5.840   5.859   5.937   5.984
  6.055   6.182   6.192   6.311   6.319   6.333   6.335   6.337
  6.342   6.349   6.388   6.511   6.808   6.844   6.897   7.069
  7.077   7.126   7.802   8.004   8.714   8.715   8.715   8.746
  9.029   9.032   9.055   9.167   9.597   9.730  43.109  43.115
 43.121  43.209  43.291  44.899  45.247  45.571  49.029  49.644
 49.656  49.689  49.692  49.773  49.778  49.793  49.821  49.986
 50.000  55.133  55.138  55.145  55.210  55.502  55.624  66.158
 66.174
 
 Beta MOs
 -- Occupied --
-25.032 -25.032 -19.747  -1.974  -1.816  -1.496  -1.187  -1.151
 -1.091  -0.987  -0.981  -0.968
 -- Virtual --
 -0.495  -0.325  -0.300  -0.074  -0.012  -0.012  -0.009   0.084
  0.091   0.102   0.109   0.112   0.198   0.236   0.300   0.738
  0.751   0.752   0.889   0.992   1.005   1.033   1.087   1.101
  1.186   1.188   1.202   1.216   1.523   1.675   1.692   1.738
  1.756   1.768   1.846   1.860   1.983   2.191   2.225   2.473
  2.705   2.719   4.369   4.510   4.570   4.603   4.611   4.617
  4.623   4.686   4.722   4.735   5.817   5.866   5.885   5.942
  5.993   6.091   6.229   6.252   6.329   6.331   6.348   6.349
  6.352   6.357   6.357   6.424   6.535   6.850   6.864   6.923
  7.077   7.103   7.139   7.813   8.012   8.737   8.738   8.739
  8.768   9.030   9.053   9.076   9.169   9.601   9.736  43.161
 43.174  43.181  43.218  43.297  44.958  45.261  45.586  49.049
 49.662  49.672  49.706  49.709  49.777  49.788  49.808  49.820
 49.990  50.003  55.136  55.154  55.162  55.213  55.503  55.625
 66.163  66.179
 --------------------------------------------------------------
 
          Ground-State Mulliken Net Atomic Charges

     Atom                 Charge (a.u.)    Spin (a.u.)
  --------------------------------------------------------
      1 F                     0.329317       0.143234
      2 O                     0.341578       0.714270
      3 F                     0.329105       0.142496
  --------------------------------------------------------
  Sum of atomic charges =     1.000000
  Sum of spin   charges =     1.000000

 -----------------------------------------------------------------
                    Cartesian Multipole Moments
 -----------------------------------------------------------------
    Charge (ESU x 10^10)
                 4.8032
    Dipole Moment (Debye)
         X      -1.6613      Y       0.0007      Z       5.4667
       Tot       5.7136
    Quadrupole Moments (Debye-Ang)
        XX     -10.2913     XY       0.0015     YY     -12.6517
        XZ      -3.0526     YZ       0.0022     ZZ      -4.0673
    Octapole Moments (Debye-Ang^2)
       XXX      13.2296    XXY      -0.0007    XYY       5.8809
       YYY       0.0003    XXZ      -8.6250    XYZ       0.0017
       YYZ     -13.2249    XZZ       0.4019    YZZ       0.0037
       ZZZ     -27.3762
    Hexadecapole Moments (Debye-Ang^3)
      XXXX     -43.6970   XXXY       0.0023   XXYY      -9.9213
      XYYY       0.0007   YYYY      -6.9722   XXXZ      21.1341
      XXYZ      -0.0006   XYYZ       9.9008   YYYZ       0.0010
      XXZZ     -21.9306   XYZZ       0.0024   YYZZ     -22.8725
      XZZZ      20.0151   YZZZ       0.0077   ZZZZ    -110.9134
 -----------------------------------------------------------------
 Total job time:  32.79s(wall), 32.36s(cpu) 
 Mon Jul  8 16:57:51 2013

        *************************************************************
        *                                                           *
        *  Thank you very much for using Q-Chem.  Have a nice day.  *
        *                                                           *
        *************************************************************


0 sent ACK to 0 
now end server 0 ... 
