Process 0 of 1 is on cl141.stfx.acenet.ca - thread support 1
initial socket setup ...start
initial socket setup ...done 
now start server 0 ... 

cmd = /usr/bin/ssh clhead /usr/local/qchem/bin/get_hostid 1047643029 > /globalscratch/itamblyn/bnl/g297_b3lyp_neut_g03Large/g2g71073/omega2000/qchem14125/lic.dat
                  Welcome to Q-Chem
     A Quantum Leap Into The Future Of Chemistry

 Y. Shao, L. Fusti-Molnar, Y. Jung, J. Kussmann, C. Ochsenfeld,
 S. T. Brown, A. T. B. Gilbert, L. V. Slipchenko,S. V. Levchenko,
 D. P. O'Neill, R. A. DiStasio Jr., R. C. Lochan, T. Wang,
 G. J. O. Beran, N. A. Besley, J. M. Herbert, C. Y. Lin,
 T. Van Voorhis, S. H. Chien, A. Sodt, R. P. Steele, 
 V. A. Rassolov, P. E. Maslen, P. P. Korambath, R. D. Adamson,
 B. Austin, J. Baker, E. F. C. Byrd, H. Dachsel, R. J. Doerksen,
 A. Dreuw, B. D. Dunietz, A. D. Dutoi, T. R. Furlani,
 S. R. Gwaltney, A. Heyden, S. Hirata, C.-P. Hsu, G. Kedziora,
 R. Z. Khaliullin, P. Klunzinger, A. M. Lee, M. S. Lee, W. Liang,
 I. Lotan, N. Nair, B. Peters, E. I. Proynov, P. A. Pieniazek, 
 Y. M. Rhee, J. Ritchie, E. Rosta, C. D. Sherrill, 
 A. C. Simmonett, J. E. Subotnik, H. L. Woodcock III,
 W. Zhang, A. T. Bell, A. K. Chakraborty, D. M. Chipman,
 F. J. Keil, A. Warshel, W. J. Hehre, H. F. Schaefer III,
 J. Kong, A. I. Krylov, P. M. W. Gill, M. Head-Gordon,
 Q-Chem, Version 3.1, Q-Chem, Inc., Pittsburgh, PA (2007).

 Additional authors for Version 3.1: 
 Z. Gan, Y. Zhao, N. E. Schultz, D. Truhlar, E. Epifanovsky and M. Oana.

 Additional authors for Version 3.2: 
 R. Baer, B. R. Brooks, D. Casanova, J.-D. Chai, C.-L. Cheng, 
 C. Cramer, D. Crittenden, A. Ghysels, G. Hawkins, E. G. Hohenstein, 
 C. Kelley, W. Kurlancheek, D. Liotard, E. Livshits, P. Manohar, 
 A. Marenich, D. Neuhauser, R. Olson, M. A. Rohrdanz, K. S. Thanthiriwatte, 
 A. J. W. Thom, V. Vanovschi, C. F. Williams, Q. Wu and Z.-Q. You. 


 Intel X86 Linux Version

 Q-chem begins on Mon Apr 11 17:55:12 2011  

 Parallel job on  1  processors
Processing $rem in /usr/local/qchem/config/preferences.

theFileMan(): MAXOPENFILES=974 MAX_SUB_FILE_NUM=16
Maximum size of a physical file is 2.0 GB, maximum size of a tmp-file is 32.0 GB


--------------------------------------------------------------
User input:
--------------------------------------------------------------

$molecule
-1,2
C
C,1,cc
Cl,1,ccl,2,cccl
Cl,1,ccl,2,cccl,3,180.,0
Cl,2,ccl,1,cccl,3,180.,0
Cl,2,ccl,1,cccl,3,0.,0

 cc=1.34683514
 ccl=1.73153631
 cccl=122.46468603

$end

$comment
negative
$end

$xc_functional
   X HF 1.0
   X BNL 1.0
   C LYP 1.0
$end

$rem
SYMMETRY_DECOMPOSITION	0
exchange 		general
BASIS                   g3large
omega			2000
separate_jk		true
mem_static              760
max_scf_cycles          200
scf_final_print         1
sym_ignore              true
$end

--------------------------------------------------------------
 Writing REM_CC_EA            6
 ----------------------------------------------------
       Standard Nuclear Orientation (Angstroms)
    I     Atom         X            Y            Z
 ----------------------------------------------------
    1      C       0.000000     0.000000     0.000000
    2      C       0.000000     0.000000     1.346835
    3      Cl      1.460936     0.000000    -0.929454
    4      Cl     -1.460936     0.000000    -0.929454
    5      Cl     -1.460936     0.000000     2.276289
    6      Cl      1.460936     0.000000     2.276289
 ----------------------------------------------------
 Nuclear Repulsion Energy =   489.2655918630 hartrees
 There are       41 alpha and       40 beta electrons
 Requested basis set is G3large
 There are 96 shells and 348 basis functions

Total QAlloc Memory Limit   2000 MB
Mega-Array Size       743 MB
MEM_STATIC part       760 MB

                       Distance Matrix (Angstroms)
             C (  1)   C (  2)   Cl(  3)   Cl(  4)   Cl(  5)
   C (  2)  1.346835
   Cl(  3)  1.731536  2.704778
   Cl(  4)  1.731536  2.704778  2.921872
   Cl(  5)  2.704778  1.731536  4.337525  3.205742
   Cl(  6)  2.704778  1.731536  3.205742  4.337525  2.921872
 
 A cutoff of  1.0D-08 yielded   3442 shell pairs
 There are  47196 function pairs ( 65555 Cartesian)
Evaluating contribution to one-electron hamiltonian from nuclear
 Smallest overlap matrix eigenvalue = 1.03E-05

 Q-Chem warning in module mkSTV.C, line 194:

 Overlap eigenvalue is smaller than square root of threshold

 Multipole matrices computed through 2nd order

  Scale SEOQF with 1.000000e-01/1.000000e-01/1.000000e-01

 Standard Electronic Orientation quadrupole field applied
 Nucleus-field energy     =    -0.0000000180 hartrees
 Guess from superposition of atomic densities
 Warning:  Energy on first SCF cycle will be non-variational
 An unrestricted hybrid HF-DFT SCF calculation will be
 performed using Pulay DIIS extrapolation
 Exchange:     1.0000 Hartree-Fock + 1.0000 BNL
 Correlation:  1.0000 LYP
 Using SG-1 standard quadrature grid
 SCF converges when DIIS error is below 1.0E-05
 Warning!  Inaccurate integrated density:
   Number of electrons =    81
   Numerical integral  =    80.000221088661
   Relative error      =    -1.2342949523 %
 ---------------------------------------
  Cycle       Energy         DIIS Error
 ---------------------------------------
    1   -1913.6971336045      2.18E-02
    2   -1911.9952841125      2.00E-03
    3   -1912.0663044733      1.40E-03
    4   -1912.0977672575      4.37E-04
    5   -1912.1072055094      1.53E-04
    6   -1912.1101526944      9.28E-05
    7   -1912.1119036526      6.05E-05
    8   -1912.1134074274      4.79E-05
    9   -1912.1152801392      2.60E-05
   10   -1912.1160928188      1.52E-05
   11   -1912.1164214691      1.57E-05
   12   -1912.1164633361      1.49E-05
   13   -1912.1165550858      1.70E-05
   14   -1912.1162055251      1.32E-05
   15   -1912.1157946122      1.13E-05
   16   -1912.1156082512      1.10E-05
   17   -1912.1155389964      9.74E-06 Convergence criterion met
 ---------------------------------------
 One-Electron    Energy = -3628.7828453740
 Total Coulomb   Energy =  1346.3275425020
 Alpha Exchange  Energy =   -27.3326981843
 Beta  Exchange  Energy =   -27.2010532894
 DFT   Exchange  Energy =   -61.1202381164
 DFT Correlation Energy =    -3.2718383792
 Nuclear Repu.   Energy =   489.2655918450
 Nuclear Attr.   Energy = -5535.5737101809
 Kinetic         Energy =  1906.7908648068
 <S^2> = 0.7513
 SCF time:  CPU 1322.97 s  wall 1402.58 s
 Final Alpha MO Eigenvalues
            1           2           3           4           5           6
    1-101.2926653-101.2925203-101.2922496-101.2920704 -10.7663722 -10.7647334
            7           8           9          10          11          12
    1 -10.0232751 -10.0231192 -10.0228679 -10.0226725  -7.7134808  -7.7133389
           13          14          15          16          17          18
    1  -7.7130717  -7.7128908  -7.7047525  -7.7046116  -7.7043423  -7.7041589
           19          20          21          22          23          24
    1  -7.7040492  -7.7039119  -7.7036354  -7.7034569  -1.1447540  -1.0752228
           25          26          27          28          29          30
    1  -1.0243261  -0.9988489  -0.8729043  -0.6469828  -0.5731150  -0.5575407
           31          32          33          34          35          36
    1  -0.5109737  -0.4702309  -0.4300056  -0.4086798  -0.4000142  -0.3966513
           37          38          39          40          41          42
    1  -0.3894088  -0.3822347  -0.3504371  -0.2659781   0.0655086   0.1422952
           43          44          45          46
    1   0.1642240   0.1729350   0.1908146   0.2117490
 Final Beta MO Eigenvalues
            1           2           3           4           5           6
    1-101.2923528-101.2921898-101.2919299-101.2917368 -10.7639851 -10.7623293
            7           8           9          10          11          12
    1 -10.0226962 -10.0225279 -10.0222775 -10.0220695  -7.7130659  -7.7128747
           13          14          15          16          17          18
    1  -7.7126503  -7.7124198  -7.7044133  -7.7042606  -7.7039949  -7.7038027
           19          20          21          22          23          24
    1  -7.7036430  -7.7034852  -7.7032201  -7.7030229  -1.1390639  -1.0690191
           25          26          27          28          29          30
    1  -1.0204324  -0.9944076  -0.8691081  -0.6380390  -0.5694905  -0.5577534
           31          32          33          34          35          36
    1  -0.5075756  -0.4692641  -0.4276348  -0.4071154  -0.3972200  -0.3949237
           37          38          39          40          41          42
    1  -0.3859997  -0.3804495  -0.3468974  -0.2625213   0.1525625   0.1643783
           43          44          45
    1   0.1652013   0.1781228   0.1942794
 Analysis of SCF Wavefunction
 
 --------------------------------------------------------------
                    Orbital Energies (a.u.)
 --------------------------------------------------------------
 
 Alpha MOs
 -- Occupied --
*******-101.293-101.292-101.292 -10.766 -10.765 -10.023 -10.023
-10.023 -10.023  -7.713  -7.713  -7.713  -7.713  -7.705  -7.705
 -7.704  -7.704  -7.704  -7.704  -7.704  -7.703  -1.145  -1.075
 -1.024  -0.999  -0.873  -0.647  -0.573  -0.558  -0.511  -0.470
 -0.430  -0.409  -0.400  -0.397  -0.389  -0.382  -0.350  -0.266
  0.066
 -- Virtual --
  0.142   0.164   0.173   0.191   0.212   0.214   0.223   0.223
  0.238   0.239   0.241   0.272   0.273   0.274   0.278   0.287
  0.299   0.308   0.315   0.327   0.336   0.340   0.358   0.375
  0.389   0.391   0.398   0.433   0.454   0.455   0.499   0.509
  0.517   0.539   0.546   0.587   0.594   0.602   0.603   0.617
  0.617   0.657   0.663   0.668   0.693   0.694   0.697   0.702
  0.715   0.718   0.731   0.742   0.775   0.792   0.794   0.795
  0.830   0.849   0.875   0.882   0.908   0.945   0.996   1.025
  1.025   1.032   1.040   1.076   1.089   1.119   1.158   1.190
  1.235   1.270   1.273   1.294   1.334   1.341   1.347   1.368
  1.382   1.391   1.397   1.402   1.418   1.425   1.435   1.450
  1.450   1.462   1.463   1.471   1.485   1.488   1.498   1.508
  1.512   1.538   1.546   1.574   1.577   1.587   1.587   1.603
  1.645   1.694   1.704   1.719   1.743   1.744   1.774   1.794
  1.831   1.859   1.898   1.913   1.929   1.939   1.985   2.001
  2.002   2.003   2.006   2.089   2.106   2.106   2.160   2.173
  2.186   2.382   2.501   2.530   2.538   2.590   2.612   2.670
  2.697   2.703   2.767   2.830   2.897   2.988   2.995   3.110
  3.217   3.217   3.230   3.366   3.386   3.484   3.498   3.539
  3.667   3.673   3.687   3.735   3.812   3.855   3.857   3.888
  3.907   3.971   3.998   4.029   4.045   4.156   4.320   4.359
  4.409   4.730   4.738   4.802   4.805   4.808   4.818   4.827
  4.835   4.835   4.864   4.880   4.881   4.890   4.914   4.916
  4.928   4.941   4.942   4.947   4.955   4.994   5.022   5.032
  5.041   5.054   5.057   5.090   5.092   5.164   5.204   5.365
  5.522   5.543   5.546   5.563   5.578   5.586   5.604   5.650
  5.663   5.688   5.698   5.743   5.766   5.801   5.814   5.929
  6.000   6.167   6.302   6.568   6.584  10.405  10.524  10.569
 10.707  21.272  21.279  21.294  21.321  21.324  21.356  21.360
 21.403  21.516  21.597  21.648  21.678  24.406  25.252  27.881
 27.883  27.887  27.926  27.928  27.930  27.936  27.945  27.958
 27.962  27.972  27.977  27.982  27.998  28.007  28.012  28.013
 28.042  28.082  28.116  28.128  28.186  28.872  28.877  28.957
 29.104  37.655  37.656  37.657  37.658  37.659  37.659  37.659
 37.662  37.668  37.668  37.669  37.669  37.670  37.670  37.670
 37.671  37.672  37.673  37.676  37.677  37.679  37.686  37.686
 37.687  37.690  37.691  37.695  37.702  41.511  41.562  41.602
 41.763  41.763  41.809  41.842  41.855  41.912  41.928 217.258
217.385 217.426 217.597
 
 Beta MOs
 -- Occupied --
*******-101.292-101.292-101.292 -10.764 -10.762 -10.023 -10.023
-10.022 -10.022  -7.713  -7.713  -7.713  -7.712  -7.704  -7.704
 -7.704  -7.704  -7.704  -7.703  -7.703  -7.703  -1.139  -1.069
 -1.020  -0.994  -0.869  -0.638  -0.569  -0.558  -0.508  -0.469
 -0.428  -0.407  -0.397  -0.395  -0.386  -0.380  -0.347  -0.263
 -- Virtual --
  0.153   0.164   0.165   0.178   0.194   0.205   0.215   0.221
  0.227   0.234   0.234   0.238   0.261   0.263   0.272   0.278
  0.280   0.296   0.309   0.312   0.319   0.327   0.334   0.350
  0.365   0.381   0.383   0.392   0.432   0.454   0.455   0.497
  0.509   0.516   0.538   0.545   0.586   0.593   0.598   0.602
  0.616   0.617   0.656   0.659   0.667   0.690   0.692   0.695
  0.697   0.712   0.716   0.730   0.740   0.775   0.783   0.790
  0.792   0.831   0.849   0.873   0.882   0.911   0.949   0.995
  1.025   1.027   1.031   1.040   1.077   1.089   1.118   1.157
  1.190   1.236   1.269   1.272   1.294   1.334   1.341   1.347
  1.369   1.383   1.391   1.396   1.402   1.419   1.425   1.436
  1.451   1.451   1.463   1.463   1.471   1.486   1.488   1.498
  1.508   1.512   1.538   1.547   1.574   1.577   1.587   1.588
  1.604   1.646   1.693   1.704   1.719   1.742   1.744   1.773
  1.795   1.829   1.859   1.898   1.912   1.928   1.939   1.987
  2.000   2.001   2.002   2.007   2.089   2.105   2.106   2.161
  2.173   2.186   2.383   2.502   2.530   2.538   2.590   2.612
  2.669   2.697   2.703   2.767   2.830   2.897   2.987   2.995
  3.111   3.218   3.218   3.231   3.367   3.387   3.484   3.500
  3.540   3.669   3.673   3.688   3.736   3.814   3.857   3.857
  3.889   3.907   3.972   3.999   4.030   4.047   4.157   4.322
  4.360   4.411   4.731   4.739   4.803   4.806   4.809   4.818
  4.828   4.836   4.836   4.865   4.880   4.882   4.891   4.914
  4.917   4.929   4.942   4.943   4.947   4.955   4.995   5.022
  5.033   5.042   5.054   5.058   5.090   5.093   5.165   5.205
  5.365   5.522   5.544   5.547   5.563   5.578   5.586   5.604
  5.651   5.663   5.688   5.699   5.743   5.767   5.802   5.814
  5.929   6.000   6.167   6.303   6.568   6.584  10.406  10.525
 10.569  10.707  21.273  21.279  21.294  21.321  21.325  21.356
 21.361  21.403  21.516  21.597  21.648  21.678  24.409  25.255
 27.881  27.883  27.889  27.926  27.929  27.930  27.936  27.945
 27.958  27.963  27.972  27.978  27.983  27.998  28.007  28.012
 28.013  28.043  28.082  28.116  28.129  28.188  28.874  28.878
 28.959  29.105  37.655  37.656  37.657  37.658  37.659  37.659
 37.660  37.663  37.668  37.668  37.669  37.669  37.670  37.670
 37.671  37.671  37.673  37.673  37.676  37.678  37.679  37.686
 37.686  37.687  37.690  37.691  37.695  37.702  41.512  41.563
 41.603  41.763  41.764  41.810  41.842  41.855  41.913  41.929
217.259 217.385 217.426 217.597
 --------------------------------------------------------------
 
          Ground-State Mulliken Net Atomic Charges

     Atom                 Charge (a.u.)    Spin (a.u.)
  --------------------------------------------------------
      1 C                    -1.505166       2.122097
      2 C                    -1.463632       2.078912
      3 Cl                    0.497226      -0.804404
      4 Cl                    0.520266      -0.828549
      5 Cl                    0.462367      -0.770108
      6 Cl                    0.488939      -0.797948
  --------------------------------------------------------
  Sum of atomic charges =    -1.000000
  Sum of spin   charges =     1.000000

 -----------------------------------------------------------------
                    Cartesian Multipole Moments
 -----------------------------------------------------------------
    Charge (ESU x 10^10)
                -4.8032
    Dipole Moment (Debye)
         X      -0.0039      Y       0.0010      Z      -3.0915
       Tot       3.0915
    Quadrupole Moments (Debye-Ang)
        XX     -95.1747     XY       0.0006     YY     -72.9804
        XZ      -0.3770     YZ      -0.0025     ZZ    -108.7029
    Octapole Moments (Debye-Ang^2)
       XXX      -0.0587    XXY       0.0112    XYY      -0.0108
       YYY       0.0042    XXZ     -62.8366    XYZ       0.0010
       YYZ     -48.7453    XZZ      -0.5651    YZZ       0.0080
       ZZZ    -215.1431
    Hexadecapole Moments (Debye-Ang^3)
      XXXX   -1162.5137   XXXY       0.0035   XXYY    -194.1946
      XYYY       0.0045   YYYY    -152.9439   XXXZ      -5.4589
      XXYZ      -0.0057   XYYZ      -0.8199   YYYZ      -0.0215
      XXZZ    -595.2979   XYZZ       0.0033   YYZZ    -296.3496
      XZZZ      -5.0274   YZZZ      -0.0119   ZZZZ   -1838.5616
 -----------------------------------------------------------------
 Total job time:  1405.98s(wall), 1323.64s(cpu) 
 Mon Apr 11 18:18:38 2011

        *************************************************************
        *                                                           *
        *  Thank you very much for using Q-Chem.  Have a nice day.  *
        *                                                           *
        *************************************************************


0 sent ACK to 0 
now end server 0 ... 
 
**********************************************************************
Job 2 of 3 
**********************************************************************
 
Process 0 of 1 is on cl141.stfx.acenet.ca - thread support 1
initial socket setup ...start
initial socket setup ...done 
now start server 0 ... 

cmd = /usr/bin/ssh clhead /usr/local/qchem/bin/get_hostid 2023333333 > /globalscratch/itamblyn/bnl/g297_b3lyp_neut_g03Large/g2g71073/omega2000/qchem14125/lic.dat
                  Welcome to Q-Chem
     A Quantum Leap Into The Future Of Chemistry

 Y. Shao, L. Fusti-Molnar, Y. Jung, J. Kussmann, C. Ochsenfeld,
 S. T. Brown, A. T. B. Gilbert, L. V. Slipchenko,S. V. Levchenko,
 D. P. O'Neill, R. A. DiStasio Jr., R. C. Lochan, T. Wang,
 G. J. O. Beran, N. A. Besley, J. M. Herbert, C. Y. Lin,
 T. Van Voorhis, S. H. Chien, A. Sodt, R. P. Steele, 
 V. A. Rassolov, P. E. Maslen, P. P. Korambath, R. D. Adamson,
 B. Austin, J. Baker, E. F. C. Byrd, H. Dachsel, R. J. Doerksen,
 A. Dreuw, B. D. Dunietz, A. D. Dutoi, T. R. Furlani,
 S. R. Gwaltney, A. Heyden, S. Hirata, C.-P. Hsu, G. Kedziora,
 R. Z. Khaliullin, P. Klunzinger, A. M. Lee, M. S. Lee, W. Liang,
 I. Lotan, N. Nair, B. Peters, E. I. Proynov, P. A. Pieniazek, 
 Y. M. Rhee, J. Ritchie, E. Rosta, C. D. Sherrill, 
 A. C. Simmonett, J. E. Subotnik, H. L. Woodcock III,
 W. Zhang, A. T. Bell, A. K. Chakraborty, D. M. Chipman,
 F. J. Keil, A. Warshel, W. J. Hehre, H. F. Schaefer III,
 J. Kong, A. I. Krylov, P. M. W. Gill, M. Head-Gordon,
 Q-Chem, Version 3.1, Q-Chem, Inc., Pittsburgh, PA (2007).

 Additional authors for Version 3.1: 
 Z. Gan, Y. Zhao, N. E. Schultz, D. Truhlar, E. Epifanovsky and M. Oana.

 Additional authors for Version 3.2: 
 R. Baer, B. R. Brooks, D. Casanova, J.-D. Chai, C.-L. Cheng, 
 C. Cramer, D. Crittenden, A. Ghysels, G. Hawkins, E. G. Hohenstein, 
 C. Kelley, W. Kurlancheek, D. Liotard, E. Livshits, P. Manohar, 
 A. Marenich, D. Neuhauser, R. Olson, M. A. Rohrdanz, K. S. Thanthiriwatte, 
 A. J. W. Thom, V. Vanovschi, C. F. Williams, Q. Wu and Z.-Q. You. 


 Intel X86 Linux Version

 Q-chem begins on Mon Apr 11 18:18:41 2011  

 Parallel job on  1  processors
Processing $rem in /usr/local/qchem/config/preferences.

theFileMan(): MAXOPENFILES=974 MAX_SUB_FILE_NUM=16
Maximum size of a physical file is 2.0 GB, maximum size of a tmp-file is 32.0 GB


--------------------------------------------------------------
User input:
--------------------------------------------------------------

$molecule
0,1
C
C,1,cc
Cl,1,ccl,2,cccl
Cl,1,ccl,2,cccl,3,180.,0
Cl,2,ccl,1,cccl,3,180.,0
Cl,2,ccl,1,cccl,3,0.,0

 cc=1.34683514
 ccl=1.73153631
 cccl=122.46468603

$end

$comment
neutral
$end

$xc_functional
   X HF 1.0
   X BNL 1.0
   C LYP 1.0
$end

$rem
SYMMETRY_DECOMPOSITION	0
exchange 		general
BASIS                   g3large
omega			2000
separate_jk		true
mem_static              760
max_scf_cycles          200
scf_final_print         1
sym_ignore              true
$end

--------------------------------------------------------------
 Writing REM_CC_EA            6
 ----------------------------------------------------
       Standard Nuclear Orientation (Angstroms)
    I     Atom         X            Y            Z
 ----------------------------------------------------
    1      C       0.000000     0.000000     0.000000
    2      C       0.000000     0.000000     1.346835
    3      Cl      1.460936     0.000000    -0.929454
    4      Cl     -1.460936     0.000000    -0.929454
    5      Cl     -1.460936     0.000000     2.276289
    6      Cl      1.460936     0.000000     2.276289
 ----------------------------------------------------
 Nuclear Repulsion Energy =   489.2655918630 hartrees
 There are       40 alpha and       40 beta electrons
 Requested basis set is G3large
 There are 96 shells and 348 basis functions

Total QAlloc Memory Limit   2000 MB
Mega-Array Size       743 MB
MEM_STATIC part       760 MB

                       Distance Matrix (Angstroms)
             C (  1)   C (  2)   Cl(  3)   Cl(  4)   Cl(  5)
   C (  2)  1.346835
   Cl(  3)  1.731536  2.704778
   Cl(  4)  1.731536  2.704778  2.921872
   Cl(  5)  2.704778  1.731536  4.337525  3.205742
   Cl(  6)  2.704778  1.731536  3.205742  4.337525  2.921872
 
 A cutoff of  1.0D-08 yielded   3442 shell pairs
 There are  47196 function pairs ( 65555 Cartesian)
Evaluating contribution to one-electron hamiltonian from nuclear
 Smallest overlap matrix eigenvalue = 1.03E-05

 Q-Chem warning in module mkSTV.C, line 194:

 Overlap eigenvalue is smaller than square root of threshold

 Multipole matrices computed through 2nd order

  Scale SEOQF with 1.000000e-01/1.000000e-01/1.000000e-01

 Standard Electronic Orientation quadrupole field applied
 Nucleus-field energy     =    -0.0000000180 hartrees
 Guess from superposition of atomic densities
 Warning:  Energy on first SCF cycle will be non-variational
 A restricted hybrid HF-DFT SCF calculation will be
 performed using Pulay DIIS extrapolation
 Exchange:     1.0000 Hartree-Fock + 1.0000 BNL
 Correlation:  1.0000 LYP
 Using SG-1 standard quadrature grid
 SCF converges when DIIS error is below 1.0E-05
 ---------------------------------------
  Cycle       Energy         DIIS Error
 ---------------------------------------
    1   -1913.6971336045      2.18E-02
    2   -1912.0223220601      2.71E-03
    3   -1912.1032840814      2.26E-03
    4   -1912.1738208288      3.87E-04
    5   -1912.1807397904      1.38E-04
    6   -1912.1816905670      4.25E-05
    7   -1912.1817944616      1.16E-05
    8   -1912.1818023338      3.35E-06 Convergence criterion met
 ---------------------------------------
 One-Electron    Energy = -3617.6304923164
 Total Coulomb   Energy =  1335.0000386673
 Alpha Exchange  Energy =   -27.2235989204
 Beta  Exchange  Energy =   -27.2235989204
 DFT   Exchange  Energy =   -61.1107896130
 DFT Correlation Energy =    -3.2589530758
 Nuclear Repu.   Energy =   489.2655918450
 Nuclear Attr.   Energy = -5524.0837434901
 Kinetic         Energy =  1906.4532511736
 SCF time:  CPU 469.76 s  wall 510.14 s
 Final Alpha MO Eigenvalues
            1           2           3           4           5           6
    1-101.4326837-101.4326818-101.4326471-101.4326469 -10.9136778 -10.9120152
            7           8           9          10          11          12
    1 -10.1628990 -10.1628793 -10.1628530 -10.1628374  -7.8533614  -7.8533587
           13          14          15          16          17          18
    1  -7.8533341  -7.8533310  -7.8444809  -7.8444789  -7.8444538  -7.8444527
           19          20          21          22          23          24
    1  -7.8438430  -7.8438417  -7.8438161  -7.8438159  -1.2814221  -1.2111718
           25          26          27          28          29          30
    1  -1.1608789  -1.1348964  -1.0101602  -0.7799376  -0.7114630  -0.6980316
           31          32          33          34          35          36
    1  -0.6481760  -0.6093902  -0.5665058  -0.5459411  -0.5364923  -0.5327479
           37          38          39          40          41          42
    1  -0.5249499  -0.5185452  -0.4863714  -0.4028313   0.0492601   0.0575631
           43          44          45
    1   0.0621661   0.0642853   0.0856891
 Analysis of SCF Wavefunction
 
 --------------------------------------------------------------
                    Orbital Energies (a.u.)
 --------------------------------------------------------------
 
 Alpha MOs
 -- Occupied --
*******-101.433-101.433-101.433 -10.914 -10.912 -10.163 -10.163
-10.163 -10.163  -7.853  -7.853  -7.853  -7.853  -7.844  -7.844
 -7.844  -7.844  -7.844  -7.844  -7.844  -7.844  -1.281  -1.211
 -1.161  -1.135  -1.010  -0.780  -0.711  -0.698  -0.648  -0.609
 -0.567  -0.546  -0.536  -0.533  -0.525  -0.519  -0.486  -0.403
 -- Virtual --
  0.049   0.058   0.062   0.064   0.086   0.093   0.100   0.108
  0.115   0.116   0.130   0.130   0.155   0.161   0.162   0.163
  0.174   0.192   0.197   0.197   0.213   0.218   0.225   0.241
  0.255   0.274   0.274   0.283   0.300   0.320   0.328   0.367
  0.377   0.388   0.406   0.414   0.455   0.461   0.472   0.473
  0.483   0.483   0.525   0.536   0.537   0.565   0.565   0.569
  0.574   0.585   0.588   0.603   0.613   0.643   0.666   0.666
  0.669   0.700   0.717   0.742   0.748   0.775   0.810   0.864
  0.890   0.891   0.900   0.907   0.940   0.953   0.983   1.026
  1.056   1.100   1.133   1.137   1.158   1.199   1.205   1.212
  1.233   1.246   1.255   1.261   1.266   1.283   1.290   1.300
  1.315   1.315   1.327   1.327   1.335   1.350   1.351   1.362
  1.372   1.376   1.401   1.409   1.437   1.440   1.450   1.451
  1.468   1.509   1.559   1.568   1.583   1.608   1.608   1.638
  1.658   1.695   1.723   1.761   1.776   1.793   1.803   1.848
  1.865   1.866   1.867   1.869   1.953   1.968   1.969   2.022
  2.037   2.048   2.245   2.365   2.394   2.402   2.454   2.475
  2.533   2.559   2.566   2.629   2.692   2.758   2.850   2.857
  2.968   3.075   3.077   3.090   3.225   3.246   3.343   3.357
  3.398   3.526   3.532   3.545   3.594   3.671   3.713   3.716
  3.746   3.766   3.830   3.857   3.888   3.902   4.015   4.179
  4.218   4.269   4.590   4.597   4.664   4.666   4.670   4.679
  4.688   4.697   4.697   4.724   4.741   4.742   4.752   4.775
  4.777   4.789   4.803   4.804   4.808   4.815   4.855   4.883
  4.893   4.900   4.914   4.918   4.950   4.953   5.024   5.064
  5.224   5.383   5.402   5.407   5.424   5.439   5.447   5.465
  5.511   5.523   5.549   5.559   5.603   5.627   5.662   5.675
  5.789   5.860   6.028   6.163   6.428   6.444  10.266  10.385
 10.430  10.568  21.133  21.140  21.154  21.181  21.185  21.216
 21.221  21.263  21.376  21.457  21.508  21.538  24.260  25.106
 27.741  27.743  27.743  27.786  27.786  27.790  27.796  27.805
 27.818  27.822  27.832  27.837  27.842  27.858  27.867  27.871
 27.873  27.899  27.941  27.975  27.987  28.040  28.726  28.732
 28.812  28.958  37.514  37.516  37.517  37.518  37.519  37.519
 37.519  37.522  37.528  37.528  37.528  37.528  37.529  37.530
 37.530  37.531  37.532  37.533  37.536  37.537  37.539  37.546
 37.546  37.546  37.550  37.550  37.554  37.562  41.363  41.415
 41.455  41.615  41.616  41.662  41.694  41.707  41.765  41.781
217.118 217.244 217.286 217.456
 --------------------------------------------------------------
 
          Ground-State Mulliken Net Atomic Charges

     Atom                 Charge (a.u.)
  ----------------------------------------
      1 C                     0.581202
      2 C                     0.581776
      3 Cl                   -0.290746
      4 Cl                   -0.290697
      5 Cl                   -0.291022
      6 Cl                   -0.290513
  ----------------------------------------
  Sum of atomic charges =     0.000000

 -----------------------------------------------------------------
                    Cartesian Multipole Moments
 -----------------------------------------------------------------
    Charge (ESU x 10^10)
                 0.0000
    Dipole Moment (Debye)
         X       0.0000      Y       0.0000      Z       0.0000
       Tot       0.0000
    Quadrupole Moments (Debye-Ang)
        XX     -58.7273     XY       0.0011     YY     -61.5733
        XZ       0.0000     YZ      -0.0003     ZZ     -60.7122
    Octapole Moments (Debye-Ang^2)
       XXX      -0.0001    XXY       0.0000    XYY       0.0000
       YYY       0.0000    XXZ     -39.5480    XYZ       0.0007
       YYZ     -41.4645    XZZ      -0.0001    YZZ      -0.0005
       ZZZ    -122.6540
    Hexadecapole Moments (Debye-Ang^3)
      XXXX    -656.0927   XXXY       0.0098   XXYY    -131.3616
      XYYY       0.0010   YYYY     -68.1579   XXXZ      -0.0011
      XXYZ      -0.0043   XYYZ      -0.0002   YYYZ      -0.0001
      XXZZ    -251.7303   XYZZ       0.0125   YYZZ    -186.2113
      XZZZ      -0.0001   YZZZ      -0.0044   ZZZZ   -1021.3860
 -----------------------------------------------------------------
 Total job time:  514.99s(wall), 470.43s(cpu) 
 Mon Apr 11 18:27:16 2011

        *************************************************************
        *                                                           *
        *  Thank you very much for using Q-Chem.  Have a nice day.  *
        *                                                           *
        *************************************************************


0 sent ACK to 0 
now end server 0 ... 
 
**********************************************************************
Job 3 of 3 
**********************************************************************
 
Process 0 of 1 is on cl141.stfx.acenet.ca - thread support 1
initial socket setup ...start
initial socket setup ...done 
now start server 0 ... 

cmd = /usr/bin/ssh clhead /usr/local/qchem/bin/get_hostid 1260929253 > /globalscratch/itamblyn/bnl/g297_b3lyp_neut_g03Large/g2g71073/omega2000/qchem14125/lic.dat
                  Welcome to Q-Chem
     A Quantum Leap Into The Future Of Chemistry

 Y. Shao, L. Fusti-Molnar, Y. Jung, J. Kussmann, C. Ochsenfeld,
 S. T. Brown, A. T. B. Gilbert, L. V. Slipchenko,S. V. Levchenko,
 D. P. O'Neill, R. A. DiStasio Jr., R. C. Lochan, T. Wang,
 G. J. O. Beran, N. A. Besley, J. M. Herbert, C. Y. Lin,
 T. Van Voorhis, S. H. Chien, A. Sodt, R. P. Steele, 
 V. A. Rassolov, P. E. Maslen, P. P. Korambath, R. D. Adamson,
 B. Austin, J. Baker, E. F. C. Byrd, H. Dachsel, R. J. Doerksen,
 A. Dreuw, B. D. Dunietz, A. D. Dutoi, T. R. Furlani,
 S. R. Gwaltney, A. Heyden, S. Hirata, C.-P. Hsu, G. Kedziora,
 R. Z. Khaliullin, P. Klunzinger, A. M. Lee, M. S. Lee, W. Liang,
 I. Lotan, N. Nair, B. Peters, E. I. Proynov, P. A. Pieniazek, 
 Y. M. Rhee, J. Ritchie, E. Rosta, C. D. Sherrill, 
 A. C. Simmonett, J. E. Subotnik, H. L. Woodcock III,
 W. Zhang, A. T. Bell, A. K. Chakraborty, D. M. Chipman,
 F. J. Keil, A. Warshel, W. J. Hehre, H. F. Schaefer III,
 J. Kong, A. I. Krylov, P. M. W. Gill, M. Head-Gordon,
 Q-Chem, Version 3.1, Q-Chem, Inc., Pittsburgh, PA (2007).

 Additional authors for Version 3.1: 
 Z. Gan, Y. Zhao, N. E. Schultz, D. Truhlar, E. Epifanovsky and M. Oana.

 Additional authors for Version 3.2: 
 R. Baer, B. R. Brooks, D. Casanova, J.-D. Chai, C.-L. Cheng, 
 C. Cramer, D. Crittenden, A. Ghysels, G. Hawkins, E. G. Hohenstein, 
 C. Kelley, W. Kurlancheek, D. Liotard, E. Livshits, P. Manohar, 
 A. Marenich, D. Neuhauser, R. Olson, M. A. Rohrdanz, K. S. Thanthiriwatte, 
 A. J. W. Thom, V. Vanovschi, C. F. Williams, Q. Wu and Z.-Q. You. 


 Intel X86 Linux Version

 Q-chem begins on Mon Apr 11 18:27:19 2011  

 Parallel job on  1  processors
Processing $rem in /usr/local/qchem/config/preferences.

theFileMan(): MAXOPENFILES=974 MAX_SUB_FILE_NUM=16
Maximum size of a physical file is 2.0 GB, maximum size of a tmp-file is 32.0 GB


--------------------------------------------------------------
User input:
--------------------------------------------------------------

$molecule
1,2
C
C,1,cc
Cl,1,ccl,2,cccl
Cl,1,ccl,2,cccl,3,180.,0
Cl,2,ccl,1,cccl,3,180.,0
Cl,2,ccl,1,cccl,3,0.,0

 cc=1.34683514
 ccl=1.73153631
 cccl=122.46468603

$end

$comment
positive
$end

$xc_functional
   X HF 1.0
   X BNL 1.0
   C LYP 1.0
$end

$rem
SYMMETRY_DECOMPOSITION	0
exchange 		general
BASIS                   g3large
omega			2000
separate_jk		true
mem_static              760
max_scf_cycles          200
scf_final_print         1
sym_ignore              true
$end

--------------------------------------------------------------
 Writing REM_CC_EA            6
 ----------------------------------------------------
       Standard Nuclear Orientation (Angstroms)
    I     Atom         X            Y            Z
 ----------------------------------------------------
    1      C       0.000000     0.000000     0.000000
    2      C       0.000000     0.000000     1.346835
    3      Cl      1.460936     0.000000    -0.929454
    4      Cl     -1.460936     0.000000    -0.929454
    5      Cl     -1.460936     0.000000     2.276289
    6      Cl      1.460936     0.000000     2.276289
 ----------------------------------------------------
 Nuclear Repulsion Energy =   489.2655918630 hartrees
 There are       40 alpha and       39 beta electrons
 Requested basis set is G3large
 There are 96 shells and 348 basis functions

Total QAlloc Memory Limit   2000 MB
Mega-Array Size       743 MB
MEM_STATIC part       760 MB

                       Distance Matrix (Angstroms)
             C (  1)   C (  2)   Cl(  3)   Cl(  4)   Cl(  5)
   C (  2)  1.346835
   Cl(  3)  1.731536  2.704778
   Cl(  4)  1.731536  2.704778  2.921872
   Cl(  5)  2.704778  1.731536  4.337525  3.205742
   Cl(  6)  2.704778  1.731536  3.205742  4.337525  2.921872
 
 A cutoff of  1.0D-08 yielded   3442 shell pairs
 There are  47196 function pairs ( 65555 Cartesian)
Evaluating contribution to one-electron hamiltonian from nuclear
 Smallest overlap matrix eigenvalue = 1.03E-05

 Q-Chem warning in module mkSTV.C, line 194:

 Overlap eigenvalue is smaller than square root of threshold

 Multipole matrices computed through 2nd order

  Scale SEOQF with 1.000000e-01/1.000000e-01/1.000000e-01

 Standard Electronic Orientation quadrupole field applied
 Nucleus-field energy     =    -0.0000000180 hartrees
 Guess from superposition of atomic densities
 Warning:  Energy on first SCF cycle will be non-variational
 An unrestricted hybrid HF-DFT SCF calculation will be
 performed using Pulay DIIS extrapolation
 Exchange:     1.0000 Hartree-Fock + 1.0000 BNL
 Correlation:  1.0000 LYP
 Using SG-1 standard quadrature grid
 SCF converges when DIIS error is below 1.0E-05
 Warning!  Inaccurate integrated density:
   Number of electrons =    79
   Numerical integral  =    80.000221088661
   Relative error      =     1.2661026439 %
 ---------------------------------------
  Cycle       Energy         DIIS Error
 ---------------------------------------
    1   -1913.6971336045      2.18E-02
    2   -1911.5244976468      3.72E-03
    3   -1911.5997599683      3.81E-03
    4   -1911.8053542484      4.49E-04
    5   -1911.8146107884      2.08E-04
    6   -1911.8174101448      9.13E-05
    7   -1911.8182691533      3.03E-05
    8   -1911.8184875986      1.03E-05
    9   -1911.8185430210      4.54E-06 Convergence criterion met
 ---------------------------------------
 One-Electron    Energy = -3600.2859939808
 Total Coulomb   Energy =  1317.6479478456
 Alpha Exchange  Energy =   -27.3012993442
 Beta  Exchange  Energy =   -26.8323262199
 DFT   Exchange  Energy =   -61.0888373451
 DFT Correlation Energy =    -3.2236258216
 Nuclear Repu.   Energy =   489.2655918450
 Nuclear Attr.   Energy = -5506.2722883241
 Kinetic         Energy =  1905.9862943433
 <S^2> = 0.7601
 SCF time:  CPU 671.99 s  wall 726.63 s
 Final Alpha MO Eigenvalues
            1           2           3           4           5           6
    1-101.6506487-101.6506478-101.6506148-101.6506142 -11.1806219 -11.1788660
            7           8           9          10          11          12
    1 -10.3788551 -10.3788309 -10.3788171 -10.3787976  -8.0692920  -8.0692898
           13          14          15          16          17          18
    1  -8.0692765  -8.0692730  -8.0622962  -8.0622940  -8.0622870  -8.0622859
           19          20          21          22          23          24
    1  -8.0585584  -8.0585570  -8.0585414  -8.0585407  -1.5227403  -1.4282100
           25          26          27          28          29          30
    1  -1.3750823  -1.3464069  -1.2619338  -0.9998138  -0.9334354  -0.9221002
           31          32          33          34          35          36
    1  -0.8942379  -0.8217923  -0.7814036  -0.7542500  -0.7422538  -0.7402432
           37          38          39          40          41          42
    1  -0.7279508  -0.7277222  -0.6896509  -0.6457530  -0.1847719  -0.1182778
           43          44          45
    1  -0.1037498  -0.1007775  -0.0885039
 Final Beta MO Eigenvalues
            1           2           3           4           5           6
    1-101.6498464-101.6498457-101.6498083-101.6498081 -11.1734316 -11.1720172
            7           8           9          10          11          12
    1 -10.3780623 -10.3780375 -10.3780201 -10.3779975  -8.0692639  -8.0692615
           13          14          15          16          17          18
    1  -8.0692442  -8.0692409  -8.0588686  -8.0588669  -8.0588475  -8.0588466
           19          20          21          22          23          24
    1  -8.0580630  -8.0580616  -8.0580438  -8.0580427  -1.4973898  -1.4204749
           25          26          27          28          29          30
    1  -1.3678456  -1.3383803  -1.2277582  -0.9845628  -0.9273118  -0.9139719
           31          32          33          34          35          36
    1  -0.8193317  -0.8144357  -0.7514665  -0.7508662  -0.7382272  -0.7260372
           37          38          39          40          41          42
    1  -0.7056173  -0.6933195  -0.6875700  -0.3220049  -0.1132075  -0.1110491
           43          44
    1  -0.0981145  -0.0910963
 Analysis of SCF Wavefunction
 
 --------------------------------------------------------------
                    Orbital Energies (a.u.)
 --------------------------------------------------------------
 
 Alpha MOs
 -- Occupied --
*******-101.651-101.651-101.651 -11.181 -11.179 -10.379 -10.379
-10.379 -10.379  -8.069  -8.069  -8.069  -8.069  -8.062  -8.062
 -8.062  -8.062  -8.059  -8.059  -8.059  -8.059  -1.523  -1.428
 -1.375  -1.346  -1.262  -1.000  -0.933  -0.922  -0.894  -0.822
 -0.781  -0.754  -0.742  -0.740  -0.728  -0.728  -0.690  -0.646
 -- Virtual --
 -0.185  -0.118  -0.104  -0.101  -0.089  -0.047  -0.045  -0.043
 -0.035  -0.023  -0.005  -0.005  -0.001   0.025   0.027   0.033
  0.035   0.043   0.044   0.053   0.065   0.075   0.086   0.092
  0.100   0.110   0.123   0.127   0.129   0.137   0.171   0.187
  0.196   0.206   0.222   0.230   0.268   0.272   0.285   0.294
  0.296   0.297   0.342   0.361   0.366   0.381   0.384   0.386
  0.407   0.410   0.414   0.428   0.430   0.446   0.489   0.490
  0.503   0.508   0.522   0.552   0.559   0.562   0.605   0.681
  0.681   0.688   0.697   0.705   0.722   0.733   0.780   0.833
  0.853   0.896   0.929   0.937   0.957   0.999   1.006   1.018
  1.039   1.042   1.055   1.067   1.067   1.084   1.094   1.101
  1.118   1.119   1.126   1.128   1.135   1.149   1.152   1.165
  1.174   1.178   1.200   1.206   1.236   1.238   1.240   1.259
  1.269   1.304   1.365   1.367   1.384   1.407   1.411   1.444
  1.450   1.505   1.517   1.548   1.573   1.585   1.594   1.641
  1.656   1.662   1.672   1.675   1.747   1.755   1.765   1.820
  1.839   1.845   2.030   2.159   2.187   2.195   2.249   2.276
  2.326   2.348   2.363   2.421   2.488   2.541   2.645   2.653
  2.706   2.815   2.820   2.820   2.976   3.005   3.097   3.113
  3.154   3.293   3.294   3.307   3.350   3.409   3.471   3.486
  3.508   3.538   3.588   3.607   3.646   3.650   3.758   3.944
  3.971   4.038   4.362   4.367   4.448   4.453   4.460   4.468
  4.478   4.487   4.487   4.508   4.518   4.533   4.542   4.565
  4.565   4.577   4.591   4.592   4.595   4.595   4.646   4.665
  4.668   4.679   4.702   4.710   4.741   4.744   4.806   4.847
  5.005   5.163   5.172   5.196   5.213   5.228   5.236   5.254
  5.296   5.308   5.338   5.346   5.388   5.410   5.450   5.464
  5.574   5.645   5.811   5.946   6.212   6.226  10.054  10.172
 10.217  10.355  20.916  20.922  20.937  20.967  20.967  21.002
 21.007  21.050  21.160  21.241  21.292  21.322  23.997  24.840
 27.489  27.525  27.527  27.560  27.570  27.573  27.580  27.589
 27.602  27.607  27.616  27.621  27.626  27.643  27.646  27.654
 27.657  27.665  27.722  27.752  27.762  27.773  28.466  28.483
 28.561  28.704  37.299  37.300  37.301  37.302  37.303  37.303
 37.304  37.307  37.312  37.313  37.313  37.313  37.313  37.314
 37.315  37.316  37.316  37.317  37.321  37.321  37.323  37.330
 37.331  37.331  37.334  37.335  37.338  37.346  41.093  41.151
 41.185  41.346  41.346  41.393  41.432  41.437  41.501  41.519
216.901 217.027 217.069 217.239
 
 Beta MOs
 -- Occupied --
*******-101.650-101.650-101.650 -11.173 -11.172 -10.378 -10.378
-10.378 -10.378  -8.069  -8.069  -8.069  -8.069  -8.059  -8.059
 -8.059  -8.059  -8.058  -8.058  -8.058  -8.058  -1.497  -1.420
 -1.368  -1.338  -1.228  -0.985  -0.927  -0.914  -0.819  -0.814
 -0.751  -0.751  -0.738  -0.726  -0.706  -0.693  -0.688
 -- Virtual --
 -0.322  -0.113  -0.111  -0.098  -0.091  -0.088  -0.047  -0.043
 -0.043  -0.034  -0.022  -0.004  -0.004   0.000   0.025   0.027
  0.035   0.039   0.044   0.047   0.056   0.066   0.074   0.093
  0.093   0.101   0.114   0.129   0.130   0.131   0.137   0.171
  0.189   0.196   0.211   0.222   0.235   0.274   0.277   0.297
  0.300   0.301   0.308   0.346   0.360   0.370   0.389   0.393
  0.398   0.409   0.411   0.414   0.432   0.434   0.462   0.493
  0.495   0.509   0.516   0.524   0.554   0.559   0.571   0.607
  0.681   0.689   0.690   0.702   0.709   0.735   0.749   0.781
  0.833   0.855   0.897   0.934   0.940   0.960   1.002   1.009
  1.020   1.040   1.049   1.060   1.069   1.069   1.087   1.096
  1.105   1.120   1.122   1.130   1.132   1.140   1.154   1.154
  1.169   1.178   1.180   1.201   1.208   1.239   1.241   1.244
  1.260   1.272   1.309   1.366   1.371   1.386   1.411   1.414
  1.445   1.456   1.506   1.522   1.554   1.575   1.589   1.597
  1.646   1.659   1.665   1.673   1.677   1.752   1.757   1.767
  1.822   1.840   1.846   2.036   2.160   2.195   2.202   2.256
  2.276   2.333   2.348   2.364   2.422   2.489   2.543   2.646
  2.653   2.724   2.831   2.834   2.843   2.985   3.013   3.106
  3.121   3.161   3.296   3.297   3.311   3.358   3.426   3.480
  3.488   3.513   3.540   3.592   3.615   3.652   3.659   3.771
  3.946   3.979   4.040   4.364   4.368   4.453   4.457   4.463
  4.471   4.481   4.491   4.491   4.510   4.524   4.537   4.544
  4.567   4.567   4.579   4.595   4.596   4.597   4.598   4.646
  4.670   4.671   4.682   4.703   4.711   4.741   4.744   4.807
  4.848   5.006   5.165   5.173   5.197   5.214   5.229   5.237
  5.255   5.297   5.310   5.339   5.347   5.389   5.412   5.450
  5.464   5.574   5.645   5.812   5.947   6.213   6.227  10.055
 10.174  10.218  10.356  20.919  20.926  20.941  20.968  20.971
 21.003  21.007  21.050  21.160  21.241  21.292  21.322  24.002
 24.845  27.495  27.527  27.529  27.561  27.572  27.576  27.581
 27.590  27.604  27.607  27.618  27.621  27.627  27.643  27.648
 27.656  27.658  27.668  27.723  27.753  27.763  27.779  28.468
 28.485  28.563  28.706  37.299  37.301  37.302  37.303  37.304
 37.304  37.304  37.307  37.313  37.313  37.314  37.314  37.314
 37.314  37.315  37.316  37.317  37.318  37.322  37.322  37.324
 37.330  37.331  37.331  37.334  37.335  37.339  37.346  41.101
 41.155  41.194  41.353  41.354  41.401  41.435  41.445  41.505
 41.522 216.901 217.028 217.069 217.240
 --------------------------------------------------------------
 
          Ground-State Mulliken Net Atomic Charges

     Atom                 Charge (a.u.)    Spin (a.u.)
  --------------------------------------------------------
      1 C                     0.674899       0.352495
      2 C                     0.674453       0.352495
      3 Cl                   -0.088450       0.073924
      4 Cl                   -0.086357       0.073565
      5 Cl                   -0.088225       0.073941
      6 Cl                   -0.086320       0.073580
  --------------------------------------------------------
  Sum of atomic charges =     1.000000
  Sum of spin   charges =     1.000000

 -----------------------------------------------------------------
                    Cartesian Multipole Moments
 -----------------------------------------------------------------
    Charge (ESU x 10^10)
                 4.8032
    Dipole Moment (Debye)
         X       0.0000      Y       0.0000      Z       3.2346
       Tot       3.2346
    Quadrupole Moments (Debye-Ang)
        XX     -44.5358     XY      -0.0053     YY     -57.0718
        XZ      -0.0025     YZ      -0.0002     ZZ     -42.2776
    Octapole Moments (Debye-Ang^2)
       XXX      -0.0004    XXY      -0.0001    XYY       0.0000
       YYY       0.0000    XXZ     -29.9910    XYZ      -0.0035
       YYZ     -38.4331    XZZ      -0.0036    YZZ      -0.0003
       ZZZ     -88.3449
    Hexadecapole Moments (Debye-Ang^3)
      XXXX    -577.3517   XXXY      -0.0340   XXYY    -119.1656
      XYYY      -0.0045   YYYY     -59.1508   XXXZ      -0.0070
      XXYZ       0.0005   XYYZ      -0.0025   YYYZ      -0.0001
      XXZZ    -189.8569   XYZZ      -0.0063   YYZZ    -170.2618
      XZZZ      -0.0144   YZZZ      -0.0009   ZZZZ    -874.5128
 -----------------------------------------------------------------
 Total job time:  731.72s(wall), 672.66s(cpu) 
 Mon Apr 11 18:39:31 2011

        *************************************************************
        *                                                           *
        *  Thank you very much for using Q-Chem.  Have a nice day.  *
        *                                                           *
        *************************************************************


0 sent ACK to 0 
now end server 0 ... 
