Process 0 of 1 is on cl187 - thread support 1
initial socket setup ...start
initial socket setup ...done 
now start server 0 ... 

cmd = /usr/bin/ssh clhead /usr/local/qchem/bin/get_hostid 1139667319 > /scratch/tmp/6065270.1.medium.q/qchem29494/lic.dat
                  Welcome to Q-Chem
     A Quantum Leap Into The Future Of Chemistry

 Y. Shao, L. Fusti-Molnar, Y. Jung, J. Kussmann, C. Ochsenfeld,
 S. T. Brown, A. T. B. Gilbert, L. V. Slipchenko,S. V. Levchenko,
 D. P. O'Neill, R. A. DiStasio Jr., R. C. Lochan, T. Wang,
 G. J. O. Beran, N. A. Besley, J. M. Herbert, C. Y. Lin,
 T. Van Voorhis, S. H. Chien, A. Sodt, R. P. Steele, 
 V. A. Rassolov, P. E. Maslen, P. P. Korambath, R. D. Adamson,
 B. Austin, J. Baker, E. F. C. Byrd, H. Dachsel, R. J. Doerksen,
 A. Dreuw, B. D. Dunietz, A. D. Dutoi, T. R. Furlani,
 S. R. Gwaltney, A. Heyden, S. Hirata, C.-P. Hsu, G. Kedziora,
 R. Z. Khaliullin, P. Klunzinger, A. M. Lee, M. S. Lee, W. Liang,
 I. Lotan, N. Nair, B. Peters, E. I. Proynov, P. A. Pieniazek, 
 Y. M. Rhee, J. Ritchie, E. Rosta, C. D. Sherrill, 
 A. C. Simmonett, J. E. Subotnik, H. L. Woodcock III,
 W. Zhang, A. T. Bell, A. K. Chakraborty, D. M. Chipman,
 F. J. Keil, A. Warshel, W. J. Hehre, H. F. Schaefer III,
 J. Kong, A. I. Krylov, P. M. W. Gill, M. Head-Gordon,
 Q-Chem, Version 3.1, Q-Chem, Inc., Pittsburgh, PA (2007).

 Additional authors for Version 3.1: 
 Z. Gan, Y. Zhao, N. E. Schultz, D. Truhlar, E. Epifanovsky and M. Oana.

 Additional authors for Version 3.2: 
 R. Baer, B. R. Brooks, D. Casanova, J.-D. Chai, C.-L. Cheng, 
 C. Cramer, D. Crittenden, A. Ghysels, G. Hawkins, E. G. Hohenstein, 
 C. Kelley, W. Kurlancheek, D. Liotard, E. Livshits, P. Manohar, 
 A. Marenich, D. Neuhauser, R. Olson, M. A. Rohrdanz, K. S. Thanthiriwatte, 
 A. J. W. Thom, V. Vanovschi, C. F. Williams, Q. Wu and Z.-Q. You. 


 Intel X86 Linux Version

 Q-chem begins on Mon Jul  8 16:57:50 2013  

 Parallel job on  1  processors
Processing $rem in /usr/local/qchem/config/preferences.

theFileMan(): MAXOPENFILES=974 MAX_SUB_FILE_NUM=16
Maximum size of a physical file is 2.0 GB, maximum size of a tmp-file is 32.0 GB


--------------------------------------------------------------
User input:
--------------------------------------------------------------

$molecule
-1,2
N          0.00000        0.00000        1.83618
C          0.00000        0.00000        0.69391
C          0.00000        0.00000       -0.69391
N          0.00000        0.00000       -1.83618
$end

$comment
negative
$end

$xc_functional
C PBE   1.00
X wPBE  1.00
$end

$rem
SYMMETRY_DECOMPOSITION	0
exchange 		general
LRC_DFT                 true
BASIS                   g3large
omega			430
mem_static              760
max_scf_cycles          200
scf_final_print         1
sym_ignore              true
$end

--------------------------------------------------------------
 Writing REM_CC_EA            4
 ----------------------------------------------------
       Standard Nuclear Orientation (Angstroms)
    I     Atom         X            Y            Z
 ----------------------------------------------------
    1      N       0.000000     0.000000     1.836180
    2      C       0.000000     0.000000     0.693910
    3      C       0.000000     0.000000    -0.693910
    4      N       0.000000     0.000000    -1.836180
 ----------------------------------------------------
 Nuclear Repulsion Energy =    77.2710182365 hartrees
 There are       14 alpha and       13 beta electrons
 Requested basis set is G3large
 There are 40 shells and 168 basis functions

Total QAlloc Memory Limit   2000 MB
Mega-Array Size       743 MB
MEM_STATIC part       760 MB

                       Distance Matrix (Angstroms)
             N (  1)   C (  2)   C (  3)
   C (  2)  1.142270
   C (  3)  2.530090  1.387820
   N (  4)  3.672360  2.530090  1.142270
 
 A cutoff of  1.0D-08 yielded    716 shell pairs
 There are  12995 function pairs ( 17001 Cartesian)
Evaluating contribution to one-electron hamiltonian from nuclear
 Smallest overlap matrix eigenvalue = 9.69E-06

 Q-Chem warning in module mkSTV.C, line 194:

 Overlap eigenvalue is smaller than square root of threshold

 Multipole matrices computed through 2nd order

  Scale SEOQF with 1.000000e-01/1.000000e-01/1.000000e-01

 Standard Electronic Orientation quadrupole field applied
 Nucleus-field energy     =    -0.0000000057 hartrees
 Guess from superposition of atomic densities
 Warning:  Energy on first SCF cycle will be non-variational
 Long-range K will be added via erf
 Coulomb attenuation parameter = 0.43 bohr**(-1)
 An unrestricted Kohn-Sham SCF calculation will be
 performed using Pulay DIIS extrapolation
 Exchange:  wPBE + LR-HF      Correlation:  PBE
 Using SG-1 standard quadrature grid
 SCF converges when DIIS error is below 1.0E-05
 Requested basis set is G3large
 There are 40 shells and 168 basis functions
 A cutoff of  1.0D-08 yielded    716 shell pairs
 There are  12995 function pairs ( 17001 Cartesian)
 Warning!  Inaccurate integrated density:
   Number of electrons =    27
   Numerical integral  =    26.000074941606
   Relative error      =    -3.7034261422 %
 ---------------------------------------
  Cycle       Energy         DIIS Error
 ---------------------------------------
    1    -186.3146742052      3.76E-02
    2    -185.3935685180      6.49E-03
    3    -185.3730832219      7.98E-03
    4    -185.5511410360      6.68E-04
    5    -185.5539688744      2.95E-04
    6    -185.5547497481      6.31E-05
    7    -185.5548496941      1.67E-05
    8    -185.5548582255      4.78E-06 Convergence criterion met
 ---------------------------------------
 One-Electron    Energy =  -409.4752016600
 Total Coulomb   Energy =   171.3521482602
 Alpha Exchange  Energy =    -2.9619990124
 Beta  Exchange  Energy =    -2.7560797436
 DFT   Exchange  Energy =   -18.1089109793
 DFT Correlation Energy =    -0.8758333212
 Nuclear Repu.   Energy =    77.2710182308
 Nuclear Attr.   Energy =  -594.7874368756
 Kinetic         Energy =   185.3122352155
 <S^2> = 0.7655
 SCF time:  CPU 53.37 s  wall 53.79 s
 Final Alpha MO Eigenvalues
            1           2           3           4           5           6
    1 -13.9955000 -13.9954437  -9.9553715  -9.9547942  -0.8751571  -0.8515820
            7           8           9          10          11          12
    1  -0.6215966  -0.3555171  -0.3360733  -0.3180291  -0.3039562  -0.2699320
           13          14          15          16          17          18
    1  -0.2429948  -0.0143379   0.1951242   0.2055739   0.2444404   0.2609437
           19
    1   0.2631448
 Final Beta MO Eigenvalues
            1           2           3           4           5           6
    1 -13.9886147 -13.9885545  -9.9544833  -9.9539876  -0.8648751  -0.8415470
            7           8           9          10          11          12
    1  -0.5992755  -0.3323080  -0.3146098  -0.3036556  -0.2912001  -0.2378808
           13          14          15          16          17          18
    1  -0.2188647   0.1957862   0.2061277   0.2500427   0.2590985   0.2656811
 Analysis of SCF Wavefunction
 
 --------------------------------------------------------------
                    Orbital Energies (a.u.)
 --------------------------------------------------------------
 
 Alpha MOs
 -- Occupied --
-13.996 -13.995  -9.955  -9.955  -0.875  -0.852  -0.622  -0.356
 -0.336  -0.318  -0.304  -0.270  -0.243  -0.014
 -- Virtual --
  0.195   0.206   0.244   0.261   0.263   0.273   0.276   0.313
  0.319   0.412   0.417   0.417   0.427   0.431   0.433   0.448
  0.494   0.507   0.533   0.574   0.787   0.798   0.798   0.842
  0.843   0.901   0.906   0.929   0.974   1.056   1.056   1.094
  1.102   1.116   1.120   1.123   1.176   1.179   1.242   1.248
  1.263   1.437   1.438   1.510   1.624   1.625   1.639   1.712
  1.713   1.877   2.023   2.023   2.333   2.346   2.357   2.358
  2.378   2.681   2.966   2.966   2.973   2.973   2.985   2.986
  2.988   3.087   3.090   3.189   3.191   3.206   3.206   3.427
  3.428   3.442   3.443   3.512   3.514   3.518   3.557   3.746
  3.747   3.799   3.800   3.970   3.970   4.010   4.010   4.155
  4.158   4.252   4.302   4.305   4.441   4.542   4.543   4.728
  4.892   4.892   4.967   5.016   5.016   5.104   5.105   5.168
  5.169   5.362   5.431   5.433   5.579   5.580   6.061   6.256
  6.256   6.830   7.235   7.235   7.259   8.532  24.673  25.058
 27.562  27.562  27.757  27.757  28.943  30.416  36.352  37.210
 37.704  37.707  38.072  38.074  38.536  38.670  40.696  40.705
 40.803  40.807  40.817  40.887  40.888  41.050  41.063  41.078
 41.079  41.305  41.313  41.326  41.496  41.496  41.572  41.573
 41.902  41.943
 
 Beta MOs
 -- Occupied --
-13.989 -13.989  -9.954  -9.954  -0.865  -0.842  -0.599  -0.332
 -0.315  -0.304  -0.291  -0.238  -0.219
 -- Virtual --
  0.196   0.206   0.250   0.259   0.266   0.273   0.276   0.281
  0.316   0.319   0.419   0.426   0.429   0.433   0.435   0.439
  0.449   0.495   0.537   0.553   0.581   0.798   0.800   0.810
  0.855   0.856   0.901   0.910   0.931   0.979   1.059   1.059
  1.101   1.108   1.125   1.129   1.138   1.184   1.197   1.252
  1.270   1.271   1.459   1.460   1.516   1.642   1.642   1.647
  1.715   1.730   1.882   2.027   2.042   2.337   2.353   2.359
  2.371   2.385   2.693   2.975   2.975   2.981   2.984   2.987
  2.997   3.003   3.088   3.101   3.190   3.202   3.213   3.213
  3.436   3.436   3.446   3.446   3.513   3.525   3.526   3.561
  3.759   3.759   3.802   3.817   3.992   3.992   4.031   4.031
  4.166   4.188   4.260   4.311   4.332   4.451   4.556   4.557
  4.738   4.895   4.913   4.976   5.030   5.030   5.137   5.138
  5.200   5.200   5.368   5.437   5.456   5.583   5.599   6.065
  6.260   6.276   6.836   7.239   7.256   7.265   8.535  24.674
 25.059  27.562  27.566  27.757  27.761  28.944  30.416  36.360
 37.219  37.712  37.723  38.079  38.091  38.540  38.674  40.712
 40.721  40.805  40.824  40.832  40.889  40.900  41.052  41.066
 41.081  41.092  41.306  41.316  41.329  41.496  41.500  41.572
 41.576  41.905  41.945
 --------------------------------------------------------------
 
          Ground-State Mulliken Net Atomic Charges

     Atom                 Charge (a.u.)    Spin (a.u.)
  --------------------------------------------------------
      1 N                    -0.578566       0.378045
      2 C                     0.078586       0.121957
      3 C                     0.078521       0.121953
      4 N                    -0.578541       0.378045
  --------------------------------------------------------
  Sum of atomic charges =    -1.000000
  Sum of spin   charges =     1.000000

 -----------------------------------------------------------------
                    Cartesian Multipole Moments
 -----------------------------------------------------------------
    Charge (ESU x 10^10)
                -4.8032
    Dipole Moment (Debye)
         X       0.0000      Y       0.0000      Z      -0.0001
       Tot       0.0001
    Quadrupole Moments (Debye-Ang)
        XX     -24.8560     XY      -1.0119     YY     -24.8536
        XZ      -0.0001     YZ       0.0000     ZZ     -47.5923
    Octapole Moments (Debye-Ang^2)
       XXX       0.0000    XXY       0.0000    XYY       0.0000
       YYY       0.0000    XXZ       0.0000    XYZ       0.0000
       YYZ       0.0000    XZZ       0.0000    YZZ       0.0000
       ZZZ      -0.0003
    Hexadecapole Moments (Debye-Ang^3)
      XXXX     -30.8747   XXXY      -1.6120   XXYY     -10.2903
      XYYY      -1.6120   YYYY     -30.8670   XXXZ      -0.0001
      XXYZ       0.0000   XYYZ       0.0000   YYYZ      -0.0001
      XXZZ     -64.2057   XYZZ      -2.7627   YYZZ     -64.1991
      XZZZ      -0.0005   YZZZ      -0.0005   ZZZZ    -452.6727
 -----------------------------------------------------------------
 Total job time:  53.99s(wall), 53.55s(cpu) 
 Mon Jul  8 16:58:44 2013

        *************************************************************
        *                                                           *
        *  Thank you very much for using Q-Chem.  Have a nice day.  *
        *                                                           *
        *************************************************************


0 sent ACK to 0 
now end server 0 ... 
 
**********************************************************************
Job 2 of 3 
**********************************************************************
 
Process 0 of 1 is on cl187 - thread support 1
initial socket setup ...start
initial socket setup ...done 
now start server 0 ... 

cmd = /usr/bin/ssh clhead /usr/local/qchem/bin/get_hostid 1748066075 > /scratch/tmp/6065270.1.medium.q/qchem29494/lic.dat
                  Welcome to Q-Chem
     A Quantum Leap Into The Future Of Chemistry

 Y. Shao, L. Fusti-Molnar, Y. Jung, J. Kussmann, C. Ochsenfeld,
 S. T. Brown, A. T. B. Gilbert, L. V. Slipchenko,S. V. Levchenko,
 D. P. O'Neill, R. A. DiStasio Jr., R. C. Lochan, T. Wang,
 G. J. O. Beran, N. A. Besley, J. M. Herbert, C. Y. Lin,
 T. Van Voorhis, S. H. Chien, A. Sodt, R. P. Steele, 
 V. A. Rassolov, P. E. Maslen, P. P. Korambath, R. D. Adamson,
 B. Austin, J. Baker, E. F. C. Byrd, H. Dachsel, R. J. Doerksen,
 A. Dreuw, B. D. Dunietz, A. D. Dutoi, T. R. Furlani,
 S. R. Gwaltney, A. Heyden, S. Hirata, C.-P. Hsu, G. Kedziora,
 R. Z. Khaliullin, P. Klunzinger, A. M. Lee, M. S. Lee, W. Liang,
 I. Lotan, N. Nair, B. Peters, E. I. Proynov, P. A. Pieniazek, 
 Y. M. Rhee, J. Ritchie, E. Rosta, C. D. Sherrill, 
 A. C. Simmonett, J. E. Subotnik, H. L. Woodcock III,
 W. Zhang, A. T. Bell, A. K. Chakraborty, D. M. Chipman,
 F. J. Keil, A. Warshel, W. J. Hehre, H. F. Schaefer III,
 J. Kong, A. I. Krylov, P. M. W. Gill, M. Head-Gordon,
 Q-Chem, Version 3.1, Q-Chem, Inc., Pittsburgh, PA (2007).

 Additional authors for Version 3.1: 
 Z. Gan, Y. Zhao, N. E. Schultz, D. Truhlar, E. Epifanovsky and M. Oana.

 Additional authors for Version 3.2: 
 R. Baer, B. R. Brooks, D. Casanova, J.-D. Chai, C.-L. Cheng, 
 C. Cramer, D. Crittenden, A. Ghysels, G. Hawkins, E. G. Hohenstein, 
 C. Kelley, W. Kurlancheek, D. Liotard, E. Livshits, P. Manohar, 
 A. Marenich, D. Neuhauser, R. Olson, M. A. Rohrdanz, K. S. Thanthiriwatte, 
 A. J. W. Thom, V. Vanovschi, C. F. Williams, Q. Wu and Z.-Q. You. 


 Intel X86 Linux Version

 Q-chem begins on Mon Jul  8 16:58:47 2013  

 Parallel job on  1  processors
Processing $rem in /usr/local/qchem/config/preferences.

theFileMan(): MAXOPENFILES=974 MAX_SUB_FILE_NUM=16
Maximum size of a physical file is 2.0 GB, maximum size of a tmp-file is 32.0 GB


--------------------------------------------------------------
User input:
--------------------------------------------------------------

$molecule
0,1
N          0.00000        0.00000        1.83618
C          0.00000        0.00000        0.69391
C          0.00000        0.00000       -0.69391
N          0.00000        0.00000       -1.83618
$end

$comment
neutral
$end

$xc_functional
C PBE   1.00
X wPBE  1.00
$end


$rem
SYMMETRY_DECOMPOSITION	0
LRC_DFT                 true
exchange 		general
BASIS                   g3large
omega			430
mem_static              760
max_scf_cycles          200
scf_final_print         1
sym_ignore              true
$end

--------------------------------------------------------------
 Writing REM_CC_EA            4
 ----------------------------------------------------
       Standard Nuclear Orientation (Angstroms)
    I     Atom         X            Y            Z
 ----------------------------------------------------
    1      N       0.000000     0.000000     1.836180
    2      C       0.000000     0.000000     0.693910
    3      C       0.000000     0.000000    -0.693910
    4      N       0.000000     0.000000    -1.836180
 ----------------------------------------------------
 Nuclear Repulsion Energy =    77.2710182365 hartrees
 There are       13 alpha and       13 beta electrons
 Requested basis set is G3large
 There are 40 shells and 168 basis functions

Total QAlloc Memory Limit   2000 MB
Mega-Array Size       743 MB
MEM_STATIC part       760 MB

                       Distance Matrix (Angstroms)
             N (  1)   C (  2)   C (  3)
   C (  2)  1.142270
   C (  3)  2.530090  1.387820
   N (  4)  3.672360  2.530090  1.142270
 
 A cutoff of  1.0D-08 yielded    716 shell pairs
 There are  12995 function pairs ( 17001 Cartesian)
Evaluating contribution to one-electron hamiltonian from nuclear
 Smallest overlap matrix eigenvalue = 9.69E-06

 Q-Chem warning in module mkSTV.C, line 194:

 Overlap eigenvalue is smaller than square root of threshold

 Multipole matrices computed through 2nd order

  Scale SEOQF with 1.000000e-01/1.000000e-01/1.000000e-01

 Standard Electronic Orientation quadrupole field applied
 Nucleus-field energy     =    -0.0000000057 hartrees
 Guess from superposition of atomic densities
 Warning:  Energy on first SCF cycle will be non-variational
 Long-range K will be added via erf
 Coulomb attenuation parameter = 0.43 bohr**(-1)
 A restricted Kohn-Sham SCF calculation will be
 performed using Pulay DIIS extrapolation
 Exchange:  wPBE + LR-HF      Correlation:  PBE
 Using SG-1 standard quadrature grid
 SCF converges when DIIS error is below 1.0E-05
 Requested basis set is G3large
 There are 40 shells and 168 basis functions
 A cutoff of  1.0D-08 yielded    716 shell pairs
 There are  12995 function pairs ( 17001 Cartesian)
 ---------------------------------------
  Cycle       Energy         DIIS Error
 ---------------------------------------
    1    -186.3146742052      3.76E-02
    2    -185.4274458666      5.65E-03
    3    -185.3472776885      8.55E-03
    4    -185.5447350678      4.86E-04
    5    -185.5472190403      1.58E-04
    6    -185.5476324470      4.32E-05
    7    -185.5476626186      7.98E-06 Convergence criterion met
 ---------------------------------------
 One-Electron    Energy =  -402.4087773015
 Total Coulomb   Energy =   163.9688381662
 Alpha Exchange  Energy =    -2.7740727315
 Beta  Exchange  Energy =    -2.7740727315
 DFT   Exchange  Energy =   -17.9875772108
 DFT Correlation Energy =    -0.8430190404
 Nuclear Repu.   Energy =    77.2710182308
 Nuclear Attr.   Energy =  -587.3994664725
 Kinetic         Energy =   184.9906891710
 SCF time:  CPU 38.30 s  wall 38.90 s
 Final Alpha MO Eigenvalues
            1           2           3           4           5           6
    1 -14.2890689 -14.2890091 -10.2351774 -10.2346692  -1.1452606  -1.1209647
            7           8           9          10          11          12
    1  -0.8963355  -0.6005816  -0.6005685  -0.5718567  -0.5592824  -0.5045389
           13          14          15          16          17          18
    1  -0.5045260  -0.0010305  -0.0010277   0.0490301   0.0761751   0.1006406
 Analysis of SCF Wavefunction
 
 --------------------------------------------------------------
                    Orbital Energies (a.u.)
 --------------------------------------------------------------
 
 Alpha MOs
 -- Occupied --
-14.289 -14.289 -10.235 -10.235  -1.145  -1.121  -0.896  -0.601
 -0.601  -0.572  -0.559  -0.505  -0.505
 -- Virtual --
 -0.001  -0.001   0.049   0.076   0.101   0.101   0.134   0.134
  0.150   0.168   0.224   0.224   0.234   0.255   0.255   0.264
  0.291   0.320   0.329   0.329   0.375   0.565   0.574   0.574
  0.598   0.598   0.681   0.681   0.719   0.760   0.807   0.807
  0.880   0.890   0.903   0.903   0.918   0.966   0.966   0.992
  0.992   1.016   1.201   1.201   1.246   1.385   1.385   1.414
  1.463   1.463   1.641   1.779   1.779   2.092   2.102   2.123
  2.123   2.141   2.421   2.698   2.698   2.703   2.703   2.714
  2.714   2.721   2.823   2.823   2.926   2.926   2.938   2.938
  3.157   3.157   3.178   3.178   3.247   3.247   3.259   3.289
  3.473   3.473   3.529   3.529   3.712   3.712   3.751   3.751
  3.893   3.893   3.982   4.040   4.040   4.178   4.278   4.278
  4.460   4.619   4.619   4.699   4.752   4.752   4.841   4.841
  4.903   4.903   5.100   5.170   5.170   5.319   5.319   5.795
  5.984   5.984   6.558   6.964   6.964   6.982   8.257  24.394
 24.780  27.283  27.283  27.478  27.478  28.663  30.137  36.061
 36.920  37.415  37.415  37.783  37.783  38.244  38.378  40.405
 40.414  40.515  40.516  40.526  40.596  40.596  40.770  40.784
 40.787  40.787  41.020  41.034  41.047  41.215  41.215  41.292
 41.292  41.615  41.659
 --------------------------------------------------------------
 
          Ground-State Mulliken Net Atomic Charges

     Atom                 Charge (a.u.)
  ----------------------------------------
      1 N                    -0.282258
      2 C                     0.281050
      3 C                     0.283822
      4 N                    -0.282614
  ----------------------------------------
  Sum of atomic charges =     0.000000

 -----------------------------------------------------------------
                    Cartesian Multipole Moments
 -----------------------------------------------------------------
    Charge (ESU x 10^10)
                 0.0000
    Dipole Moment (Debye)
         X       0.0000      Y       0.0000      Z      -0.0001
       Tot       0.0001
    Quadrupole Moments (Debye-Ang)
        XX     -20.8356     XY       0.0000     YY     -20.8356
        XZ      -0.0001     YZ       0.0001     ZZ     -30.3043
    Octapole Moments (Debye-Ang^2)
       XXX       0.0000    XXY       0.0000    XYY       0.0000
       YYY       0.0000    XXZ       0.0000    XYZ       0.0000
       YYZ       0.0000    XZZ       0.0000    YZZ       0.0000
       ZZZ      -0.0005
    Hexadecapole Moments (Debye-Ang^3)
      XXXX     -20.1576   XXXY       0.0000   XXYY      -6.7192
      XYYY       0.0000   YYYY     -20.1576   XXXZ       0.0000
      XXYZ       0.0000   XYYZ       0.0000   YYYZ       0.0000
      XXZZ     -50.3182   XYZZ       0.0009   YYZZ     -50.3182
      XZZZ      -0.0003   YZZZ       0.0002   ZZZZ    -331.6302
 -----------------------------------------------------------------
 Total job time:  39.09s(wall), 38.47s(cpu) 
 Mon Jul  8 16:59:26 2013

        *************************************************************
        *                                                           *
        *  Thank you very much for using Q-Chem.  Have a nice day.  *
        *                                                           *
        *************************************************************


0 sent ACK to 0 
now end server 0 ... 
 
**********************************************************************
Job 3 of 3 
**********************************************************************
 
Process 0 of 1 is on cl187 - thread support 1
initial socket setup ...start
initial socket setup ...done 
now start server 0 ... 

cmd = /usr/bin/ssh clhead /usr/local/qchem/bin/get_hostid 789728552 > /scratch/tmp/6065270.1.medium.q/qchem29494/lic.dat
                  Welcome to Q-Chem
     A Quantum Leap Into The Future Of Chemistry

 Y. Shao, L. Fusti-Molnar, Y. Jung, J. Kussmann, C. Ochsenfeld,
 S. T. Brown, A. T. B. Gilbert, L. V. Slipchenko,S. V. Levchenko,
 D. P. O'Neill, R. A. DiStasio Jr., R. C. Lochan, T. Wang,
 G. J. O. Beran, N. A. Besley, J. M. Herbert, C. Y. Lin,
 T. Van Voorhis, S. H. Chien, A. Sodt, R. P. Steele, 
 V. A. Rassolov, P. E. Maslen, P. P. Korambath, R. D. Adamson,
 B. Austin, J. Baker, E. F. C. Byrd, H. Dachsel, R. J. Doerksen,
 A. Dreuw, B. D. Dunietz, A. D. Dutoi, T. R. Furlani,
 S. R. Gwaltney, A. Heyden, S. Hirata, C.-P. Hsu, G. Kedziora,
 R. Z. Khaliullin, P. Klunzinger, A. M. Lee, M. S. Lee, W. Liang,
 I. Lotan, N. Nair, B. Peters, E. I. Proynov, P. A. Pieniazek, 
 Y. M. Rhee, J. Ritchie, E. Rosta, C. D. Sherrill, 
 A. C. Simmonett, J. E. Subotnik, H. L. Woodcock III,
 W. Zhang, A. T. Bell, A. K. Chakraborty, D. M. Chipman,
 F. J. Keil, A. Warshel, W. J. Hehre, H. F. Schaefer III,
 J. Kong, A. I. Krylov, P. M. W. Gill, M. Head-Gordon,
 Q-Chem, Version 3.1, Q-Chem, Inc., Pittsburgh, PA (2007).

 Additional authors for Version 3.1: 
 Z. Gan, Y. Zhao, N. E. Schultz, D. Truhlar, E. Epifanovsky and M. Oana.

 Additional authors for Version 3.2: 
 R. Baer, B. R. Brooks, D. Casanova, J.-D. Chai, C.-L. Cheng, 
 C. Cramer, D. Crittenden, A. Ghysels, G. Hawkins, E. G. Hohenstein, 
 C. Kelley, W. Kurlancheek, D. Liotard, E. Livshits, P. Manohar, 
 A. Marenich, D. Neuhauser, R. Olson, M. A. Rohrdanz, K. S. Thanthiriwatte, 
 A. J. W. Thom, V. Vanovschi, C. F. Williams, Q. Wu and Z.-Q. You. 


 Intel X86 Linux Version

 Q-chem begins on Mon Jul  8 16:59:28 2013  

 Parallel job on  1  processors
Processing $rem in /usr/local/qchem/config/preferences.

theFileMan(): MAXOPENFILES=974 MAX_SUB_FILE_NUM=16
Maximum size of a physical file is 2.0 GB, maximum size of a tmp-file is 32.0 GB


--------------------------------------------------------------
User input:
--------------------------------------------------------------

$molecule
1,2
N          0.00000        0.00000        1.83618
C          0.00000        0.00000        0.69391
C          0.00000        0.00000       -0.69391
N          0.00000        0.00000       -1.83618
$end

$comment
positive
$end

$xc_functional
C PBE   1.00
X wPBE  1.00
$end

$rem
SYMMETRY_DECOMPOSITION	0
LRC_DFT                 true
exchange 		general
BASIS                   g3large
omega			430
mem_static              760
max_scf_cycles          200
scf_final_print         1
sym_ignore              true
$end

--------------------------------------------------------------
 Writing REM_CC_EA            4
 ----------------------------------------------------
       Standard Nuclear Orientation (Angstroms)
    I     Atom         X            Y            Z
 ----------------------------------------------------
    1      N       0.000000     0.000000     1.836180
    2      C       0.000000     0.000000     0.693910
    3      C       0.000000     0.000000    -0.693910
    4      N       0.000000     0.000000    -1.836180
 ----------------------------------------------------
 Nuclear Repulsion Energy =    77.2710182365 hartrees
 There are       13 alpha and       12 beta electrons
 Requested basis set is G3large
 There are 40 shells and 168 basis functions

Total QAlloc Memory Limit   2000 MB
Mega-Array Size       743 MB
MEM_STATIC part       760 MB

                       Distance Matrix (Angstroms)
             N (  1)   C (  2)   C (  3)
   C (  2)  1.142270
   C (  3)  2.530090  1.387820
   N (  4)  3.672360  2.530090  1.142270
 
 A cutoff of  1.0D-08 yielded    716 shell pairs
 There are  12995 function pairs ( 17001 Cartesian)
Evaluating contribution to one-electron hamiltonian from nuclear
 Smallest overlap matrix eigenvalue = 9.69E-06

 Q-Chem warning in module mkSTV.C, line 194:

 Overlap eigenvalue is smaller than square root of threshold

 Multipole matrices computed through 2nd order

  Scale SEOQF with 1.000000e-01/1.000000e-01/1.000000e-01

 Standard Electronic Orientation quadrupole field applied
 Nucleus-field energy     =    -0.0000000057 hartrees
 Guess from superposition of atomic densities
 Warning:  Energy on first SCF cycle will be non-variational
 Long-range K will be added via erf
 Coulomb attenuation parameter = 0.43 bohr**(-1)
 An unrestricted Kohn-Sham SCF calculation will be
 performed using Pulay DIIS extrapolation
 Exchange:  wPBE + LR-HF      Correlation:  PBE
 Using SG-1 standard quadrature grid
 SCF converges when DIIS error is below 1.0E-05
 Requested basis set is G3large
 There are 40 shells and 168 basis functions
 A cutoff of  1.0D-08 yielded    716 shell pairs
 There are  12995 function pairs ( 17001 Cartesian)
 Warning!  Inaccurate integrated density:
   Number of electrons =    25
   Numerical integral  =    26.000074941606
   Relative error      =     4.0002997664 %
 ---------------------------------------
  Cycle       Energy         DIIS Error
 ---------------------------------------
    1    -186.3146742052      3.76E-02
    2    -184.9150577875      4.76E-03
    3    -184.9338495303      6.03E-03
    4    -185.0389744050      7.04E-04
    5    -185.0431711046      2.70E-04
    6    -185.0445402721      8.01E-05
    7    -185.0448483285      1.92E-05
    8    -185.0448910283      8.61E-06 Convergence criterion met
 ---------------------------------------
 One-Electron    Energy =  -394.3373186265
 Total Coulomb   Energy =   156.0395476522
 Alpha Exchange  Energy =    -2.7945211579
 Beta  Exchange  Energy =    -2.5647709805
 DFT   Exchange  Energy =   -17.8586776845
 DFT Correlation Energy =    -0.8001684618
 Nuclear Repu.   Energy =    77.2710182308
 Nuclear Attr.   Energy =  -579.1245156101
 Kinetic         Energy =   184.7871969835
 <S^2> = 0.8132
 SCF time:  CPU 54.40 s  wall 55.09 s
 Final Alpha MO Eigenvalues
            1           2           3           4           5           6
    1 -14.6229753 -14.6229144 -10.5534734 -10.5529789  -1.4719165  -1.4541297
            7           8           9          10          11          12
    1  -1.1906135  -0.9169808  -0.8954963  -0.8657571  -0.8536846  -0.8414884
           13          14          15          16          17          18
    1  -0.8086387  -0.3021814  -0.2831823  -0.1201466  -0.0931545  -0.0711371
 Final Beta MO Eigenvalues
            1           2           3           4           5           6
    1 -14.6136301 -14.6135797 -10.5530021 -10.5523987  -1.4447270  -1.4191726
            7           8           9          10          11          12
    1  -1.1935826  -0.8910908  -0.8501047  -0.8390277  -0.8314224  -0.7966086
           13          14          15          16          17
    1  -0.5006394  -0.2775840  -0.2429574  -0.1198509  -0.0879947
 Analysis of SCF Wavefunction
 
 --------------------------------------------------------------
                    Orbital Energies (a.u.)
 --------------------------------------------------------------
 
 Alpha MOs
 -- Occupied --
-14.623 -14.623 -10.553 -10.553  -1.472  -1.454  -1.191  -0.917
 -0.895  -0.866  -0.854  -0.841  -0.809
 -- Virtual --
 -0.302  -0.283  -0.120  -0.093  -0.071  -0.068  -0.065  -0.056
 -0.030  -0.014  -0.011  -0.009   0.046   0.088   0.089   0.092
  0.136   0.148   0.154   0.158   0.200   0.326   0.334   0.335
  0.337   0.343   0.441   0.449   0.500   0.527   0.531   0.532
  0.635   0.654   0.654   0.666   0.698   0.700   0.716   0.725
  0.738   0.756   0.919   0.919   0.954   1.111   1.111   1.166
  1.170   1.189   1.388   1.504   1.517   1.827   1.827   1.857
  1.872   1.883   2.139   2.405   2.406   2.406   2.407   2.426
  2.428   2.433   2.524   2.534   2.630   2.640   2.642   2.642
  2.857   2.857   2.867   2.868   2.930   2.948   2.967   2.996
  3.175   3.175   3.206   3.226   3.399   3.399   3.440   3.440
  3.564   3.593   3.672   3.716   3.742   3.878   3.970   3.971
  4.157   4.305   4.321   4.397   4.452   4.453   4.508   4.509
  4.568   4.568   4.812   4.855   4.878   5.011   5.031   5.494
  5.658   5.678   6.249   6.639   6.660   6.669   7.947  24.078
 24.464  26.964  26.968  27.159  27.163  28.347  29.819  35.728
 36.586  37.071  37.085  37.438  37.453  37.916  38.049  40.063
 40.073  40.172  40.184  40.190  40.255  40.269  40.447  40.451
 40.461  40.465  40.698  40.715  40.728  40.894  40.898  40.971
 40.975  41.291  41.338
 
 Beta MOs
 -- Occupied --
-14.614 -14.614 -10.553 -10.552  -1.445  -1.419  -1.194  -0.891
 -0.850  -0.839  -0.831  -0.797
 -- Virtual --
 -0.501  -0.278  -0.243  -0.120  -0.088  -0.067  -0.065  -0.053
 -0.038  -0.028  -0.011  -0.008  -0.005   0.047   0.091   0.093
  0.093   0.137   0.150   0.160   0.161   0.202   0.325   0.335
  0.337   0.338   0.342   0.449   0.450   0.505   0.535   0.550
  0.551   0.644   0.659   0.668   0.669   0.706   0.722   0.726
  0.742   0.745   0.761   0.943   0.945   0.964   1.128   1.129
  1.176   1.194   1.196   1.392   1.517   1.518   1.834   1.839
  1.875   1.876   1.892   2.144   2.409   2.409   2.413   2.414
  2.427   2.432   2.436   2.529   2.532   2.638   2.640   2.650
  2.650   2.861   2.862   2.883   2.884   2.951   2.951   2.976
  3.001   3.179   3.179   3.229   3.230   3.434   3.434   3.473
  3.473   3.604   3.613   3.685   3.751   3.758   3.893   3.990
  3.992   4.171   4.324   4.326   4.410   4.468   4.469   4.555
  4.559   4.615   4.619   4.819   4.884   4.890   5.036   5.040
  5.501   5.682   5.685   6.257   6.664   6.668   6.676   7.953
 24.079  24.465  26.967  26.968  27.162  27.162  28.347  29.821
 35.740  36.600  37.092  37.098  37.460  37.466  37.921  38.055
 40.085  40.095  40.192  40.198  40.206  40.272  40.275  40.453
 40.463  40.466  40.466  40.700  40.716  40.729  40.897  40.898
 40.974  40.974  41.294  41.340
 --------------------------------------------------------------
 
          Ground-State Mulliken Net Atomic Charges

     Atom                 Charge (a.u.)    Spin (a.u.)
  --------------------------------------------------------
      1 N                     0.018069       0.462024
      2 C                     0.481932       0.037982
      3 C                     0.481954       0.037947
      4 N                     0.018045       0.462047
  --------------------------------------------------------
  Sum of atomic charges =     1.000000
  Sum of spin   charges =     1.000000

 -----------------------------------------------------------------
                    Cartesian Multipole Moments
 -----------------------------------------------------------------
    Charge (ESU x 10^10)
                 4.8032
    Dipole Moment (Debye)
         X       0.0000      Y       0.0000      Z       0.0001
       Tot       0.0001
    Quadrupole Moments (Debye-Ang)
        XX     -17.9286     XY      -0.6002     YY     -17.9278
        XZ       0.0080     YZ      -0.0080     ZZ     -15.0492
    Octapole Moments (Debye-Ang^2)
       XXX       0.0000    XXY       0.0000    XYY       0.0000
       YYY       0.0000    XXZ       0.0001    XYZ       0.0000
       YYZ       0.0000    XZZ       0.0000    YZZ       0.0000
       ZZZ       0.0006
    Hexadecapole Moments (Debye-Ang^3)
      XXXX     -15.0679   XXXY      -0.3802   XXYY      -5.0227
      XYYY      -0.3802   YYYY     -15.0669   XXXZ       0.0064
      XXYZ      -0.0021   XYYZ       0.0021   YYYZ      -0.0064
      XXZZ     -41.3288   XYZZ      -1.6880   YYZZ     -41.3266
      XZZZ       0.0446   YZZZ      -0.0447   ZZZZ    -248.5758
 -----------------------------------------------------------------
 Total job time:  55.28s(wall), 54.58s(cpu) 
 Mon Jul  8 17:00:24 2013

        *************************************************************
        *                                                           *
        *  Thank you very much for using Q-Chem.  Have a nice day.  *
        *                                                           *
        *************************************************************


0 sent ACK to 0 
now end server 0 ... 
