Process 0 of 1 is on cl154.stfx.acenet.ca - thread support 1
initial socket setup ...start
initial socket setup ...done 
now start server 0 ... 

cmd = /usr/bin/ssh clhead /usr/local/qchem/bin/get_hostid 512508865 > /globalscratch/itamblyn/bnl/g297_b3lyp_neut_g03Large_worked/g2g71116/omega600/qchem22376/lic.dat
                  Welcome to Q-Chem
     A Quantum Leap Into The Future Of Chemistry

 Y. Shao, L. Fusti-Molnar, Y. Jung, J. Kussmann, C. Ochsenfeld,
 S. T. Brown, A. T. B. Gilbert, L. V. Slipchenko,S. V. Levchenko,
 D. P. O'Neill, R. A. DiStasio Jr., R. C. Lochan, T. Wang,
 G. J. O. Beran, N. A. Besley, J. M. Herbert, C. Y. Lin,
 T. Van Voorhis, S. H. Chien, A. Sodt, R. P. Steele, 
 V. A. Rassolov, P. E. Maslen, P. P. Korambath, R. D. Adamson,
 B. Austin, J. Baker, E. F. C. Byrd, H. Dachsel, R. J. Doerksen,
 A. Dreuw, B. D. Dunietz, A. D. Dutoi, T. R. Furlani,
 S. R. Gwaltney, A. Heyden, S. Hirata, C.-P. Hsu, G. Kedziora,
 R. Z. Khaliullin, P. Klunzinger, A. M. Lee, M. S. Lee, W. Liang,
 I. Lotan, N. Nair, B. Peters, E. I. Proynov, P. A. Pieniazek, 
 Y. M. Rhee, J. Ritchie, E. Rosta, C. D. Sherrill, 
 A. C. Simmonett, J. E. Subotnik, H. L. Woodcock III,
 W. Zhang, A. T. Bell, A. K. Chakraborty, D. M. Chipman,
 F. J. Keil, A. Warshel, W. J. Hehre, H. F. Schaefer III,
 J. Kong, A. I. Krylov, P. M. W. Gill, M. Head-Gordon,
 Q-Chem, Version 3.1, Q-Chem, Inc., Pittsburgh, PA (2007).

 Additional authors for Version 3.1: 
 Z. Gan, Y. Zhao, N. E. Schultz, D. Truhlar, E. Epifanovsky and M. Oana.

 Additional authors for Version 3.2: 
 R. Baer, B. R. Brooks, D. Casanova, J.-D. Chai, C.-L. Cheng, 
 C. Cramer, D. Crittenden, A. Ghysels, G. Hawkins, E. G. Hohenstein, 
 C. Kelley, W. Kurlancheek, D. Liotard, E. Livshits, P. Manohar, 
 A. Marenich, D. Neuhauser, R. Olson, M. A. Rohrdanz, K. S. Thanthiriwatte, 
 A. J. W. Thom, V. Vanovschi, C. F. Williams, Q. Wu and Z.-Q. You. 


 Intel X86 Linux Version

 Q-chem begins on Tue Apr 12 22:37:39 2011  

 Parallel job on  1  processors
Processing $rem in /usr/local/qchem/config/preferences.

theFileMan(): MAXOPENFILES=974 MAX_SUB_FILE_NUM=16
Maximum size of a physical file is 2.0 GB, maximum size of a tmp-file is 32.0 GB


--------------------------------------------------------------
User input:
--------------------------------------------------------------

$molecule
-1,2
C,0.0705120458,-1.4573954415,0.8284820118
C,0.0706032755,0.0699899665,0.8296505525
S,-0.0772163303,0.6847564096,-0.9073116523
H,-0.0525448241,2.0037488688,-0.6173179623
H,-0.7704122641,0.4525580601,1.4153010181
H,0.9984824652,0.4525675725,1.2647672455
H,0.1578428518,-1.8317736624,1.8546666253
H,-0.8561325083,-1.8543900243,0.4006016721
H,0.9115336364,-1.8543805185,0.2501724526

$end

$comment
negative
$end

$xc_functional
   X HF 1.0
   X BNL 1.0
   C LYP 1.0
$end

$rem
SYMMETRY_DECOMPOSITION	0
exchange 		general
BASIS                   g3large
omega			600
separate_jk		true
mem_static              760
max_scf_cycles          200
scf_final_print         1
sym_ignore              true
$end

--------------------------------------------------------------
 Writing REM_CC_EA            9
 ----------------------------------------------------
       Standard Nuclear Orientation (Angstroms)
    I     Atom         X            Y            Z
 ----------------------------------------------------
    1      C       0.070512    -1.457395     0.828482
    2      C       0.070603     0.069990     0.829651
    3      S      -0.077216     0.684756    -0.907312
    4      H      -0.052545     2.003749    -0.617318
    5      H      -0.770412     0.452558     1.415301
    6      H       0.998482     0.452568     1.264767
    7      H       0.157843    -1.831774     1.854667
    8      H      -0.856133    -1.854390     0.400602
    9      H       0.911534    -1.854381     0.250172
 ----------------------------------------------------
 Nuclear Repulsion Energy =   106.6838605976 hartrees
 There are       18 alpha and       17 beta electrons
 Requested basis set is G3large
 There are 75 shells and 210 basis functions

Total QAlloc Memory Limit   2000 MB
Mega-Array Size       743 MB
MEM_STATIC part       760 MB

                       Distance Matrix (Angstroms)
             C (  1)   C (  2)   S (  3)   H (  4)   H (  5)   H (  6)
   C (  2)  1.527386
   S (  3)  2.761090  1.848466
   H (  4)  3.752999  2.418327  1.350721
   H (  5)  2.167817  1.093916  2.434947  2.655761
   H (  6)  2.167817  1.093916  2.434947  2.655761  1.775288
   H (  7)  1.095829  2.162169  3.743888  4.567954  2.504570  2.504570
   H (  8)  1.095151  2.178568  2.960509  4.070276  2.521700  3.083575
   H (  9)  1.095151  2.178568  2.960509  4.070276  3.083575  2.521700
             H (  7)   H (  8)
   H (  8)  1.772840
   H (  9)  1.772840  1.774055
 
 A cutoff of  1.0D-08 yielded   2653 shell pairs
 There are  20885 function pairs ( 26225 Cartesian)
Evaluating contribution to one-electron hamiltonian from nuclear
 Smallest overlap matrix eigenvalue = 7.25E-05

 Q-Chem warning in module mkSTV.C, line 194:

 Overlap eigenvalue is smaller than square root of threshold

 Multipole matrices computed through 2nd order

  Scale SEOQF with 1.000000e-01/1.000000e-01/1.000000e-01

 Standard Electronic Orientation quadrupole field applied
 Nucleus-field energy     =    -0.0000000005 hartrees
 Guess from superposition of atomic densities
 Warning:  Energy on first SCF cycle will be non-variational
 An unrestricted hybrid HF-DFT SCF calculation will be
 performed using Pulay DIIS extrapolation
 Exchange:     1.0000 Hartree-Fock + 1.0000 BNL
 Correlation:  1.0000 LYP
 Using SG-1 standard quadrature grid
 SCF converges when DIIS error is below 1.0E-05
 Warning!  Inaccurate integrated density:
   Number of electrons =    35
   Numerical integral  =    33.999779825982
   Relative error      =    -2.8577719258 %
 ---------------------------------------
  Cycle       Energy         DIIS Error
 ---------------------------------------
    1    -476.1559140366      2.84E-02
    2    -475.4257419840      2.76E-03
    3    -475.4894547196      2.01E-03
    4    -475.5140131375      3.93E-04
    5    -475.5206414024      2.20E-04
    6    -475.5240602247      1.17E-04
    7    -475.5255779577      6.23E-05
    8    -475.5263121166      2.21E-05
    9    -475.5264338317      1.20E-05
   10    -475.5264713315      6.74E-06 Convergence criterion met
 ---------------------------------------
 One-Electron    Energy =  -872.3827010619
 Total Coulomb   Energy =   326.4236751488
 Alpha Exchange  Energy =    -4.7693516263
 Beta  Exchange  Energy =    -4.6956433977
 DFT   Exchange  Energy =   -25.5616120636
 DFT Correlation Energy =    -1.2246989278
 Nuclear Repu.   Energy =   106.6838605971
 Nuclear Attr.   Energy = -1346.5080723999
 Kinetic         Energy =   474.1253713380
 <S^2> = 0.7502
 SCF time:  CPU 184.58 s  wall 283.31 s
 Final Alpha MO Eigenvalues
            1           2           3           4           5           6
    1 -87.8656096  -9.9804484  -9.9490371  -7.8148097  -5.8546083  -5.8503298
            7           8           9          10          11          12
    1  -5.8435257  -0.8727329  -0.7657121  -0.6450679  -0.4841340  -0.4763890
           13          14          15          16          17          18
    1  -0.4045059  -0.3718048  -0.3681778  -0.3239713  -0.2376303   0.0323637
           19          20          21          22          23
    1   0.1369820   0.1495907   0.1518364   0.1752183   0.1893946
 Final Beta MO Eigenvalues
            1           2           3           4           5           6
    1 -87.8654433  -9.9798377  -9.9485076  -7.8146304  -5.8543003  -5.8501764
            7           8           9          10          11          12
    1  -5.8433795  -0.8714303  -0.7640203  -0.6424605  -0.4836006  -0.4744455
           13          14          15          16          17          18
    1  -0.4031120  -0.3714584  -0.3671959  -0.3228769  -0.2372368   0.1295705
           19          20          21          22
    1   0.1418433   0.1538772   0.1539095   0.1699270
 Analysis of SCF Wavefunction
 
 --------------------------------------------------------------
                    Orbital Energies (a.u.)
 --------------------------------------------------------------
 
 Alpha MOs
 -- Occupied --
-87.866  -9.980  -9.949  -7.815  -5.855  -5.850  -5.844  -0.873
 -0.766  -0.645  -0.484  -0.476  -0.405  -0.372  -0.368  -0.324
 -0.238   0.032
 -- Virtual --
  0.137   0.150   0.152   0.175   0.189   0.198   0.225   0.230
  0.244   0.271   0.277   0.285   0.289   0.291   0.307   0.317
  0.317   0.336   0.363   0.387   0.394   0.409   0.450   0.475
  0.476   0.516   0.532   0.554   0.566   0.595   0.616   0.642
  0.664   0.670   0.691   0.745   0.763   0.786   0.795   0.798
  0.817   0.817   0.872   0.897   0.921   0.932   0.963   0.980
  1.010   1.051   1.104   1.105   1.132   1.138   1.166   1.167
  1.215   1.259   1.284   1.294   1.304   1.355   1.355   1.371
  1.407   1.423   1.460   1.471   1.480   1.517   1.521   1.556
  1.586   1.590   1.618   1.644   1.665   1.680   1.713   1.737
  1.744   1.762   1.798   1.812   1.859   1.870   1.890   2.008
  2.166   2.372   2.404   2.727   2.802   2.901   2.929   2.945
  3.074   3.123   3.132   3.231   3.235   3.277   3.335   3.336
  3.415   3.439   3.446   3.470   3.506   3.595   3.623   3.662
  3.688   3.707   3.740   3.809   3.826   3.845   3.896   3.913
  3.923   3.930   3.959   3.967   4.051   4.113   4.201   4.212
  4.265   4.300   4.315   4.354   4.359   4.364   4.438   4.537
  4.546   4.581   4.606   4.650   4.699   4.780   4.853   4.858
  4.863   4.886   4.926   4.990   5.092   5.101   5.360   5.550
  5.742   5.800   5.933   5.980   6.020   8.682  17.368  17.543
 17.647  23.831  23.847  23.892  23.908  24.078  24.482  24.667
 27.960  28.190  28.388  28.453  28.495  28.696  31.216  31.220
 31.224  31.227  31.229  31.240  31.247  41.165  41.193  41.222
 41.298  41.480  41.494  41.499  41.539  41.555  41.579 189.792
 
 Beta MOs
 -- Occupied --
-87.865  -9.980  -9.949  -7.815  -5.854  -5.850  -5.843  -0.871
 -0.764  -0.642  -0.484  -0.474  -0.403  -0.371  -0.367  -0.323
 -0.237
 -- Virtual --
  0.130   0.142   0.154   0.154   0.170   0.181   0.192   0.219
  0.222   0.236   0.262   0.271   0.274   0.280   0.283   0.300
  0.307   0.311   0.329   0.357   0.382   0.389   0.402   0.447
  0.469   0.475   0.508   0.524   0.551   0.563   0.592   0.612
  0.638   0.659   0.665   0.687   0.742   0.759   0.783   0.789
  0.793   0.812   0.814   0.869   0.893   0.916   0.932   0.960
  0.978   1.010   1.050   1.103   1.103   1.130   1.138   1.166
  1.166   1.214   1.258   1.284   1.293   1.303   1.353   1.354
  1.369   1.406   1.422   1.459   1.470   1.479   1.516   1.520
  1.555   1.584   1.588   1.616   1.643   1.664   1.679   1.711
  1.736   1.742   1.760   1.796   1.810   1.858   1.869   1.889
  2.008   2.165   2.372   2.403   2.726   2.801   2.901   2.928
  2.944   3.075   3.123   3.132   3.231   3.234   3.277   3.335
  3.336   3.416   3.439   3.446   3.470   3.507   3.595   3.623
  3.662   3.688   3.708   3.739   3.809   3.826   3.846   3.896
  3.914   3.923   3.930   3.960   3.967   4.051   4.114   4.201
  4.212   4.265   4.300   4.315   4.355   4.359   4.365   4.438
  4.537   4.546   4.581   4.606   4.650   4.699   4.780   4.853
  4.858   4.863   4.887   4.926   4.989   5.092   5.101   5.360
  5.550   5.742   5.800   5.934   5.980   6.020   8.683  17.368
 17.543  17.647  23.831  23.847  23.893  23.908  24.079  24.483
 24.668  27.961  28.191  28.389  28.453  28.495  28.696  31.217
 31.220  31.224  31.227  31.230  31.240  31.247  41.166  41.194
 41.223  41.299  41.480  41.494  41.500  41.540  41.555  41.580
189.792
 --------------------------------------------------------------
 
          Ground-State Mulliken Net Atomic Charges

     Atom                 Charge (a.u.)    Spin (a.u.)
  --------------------------------------------------------
      1 C                     2.007403      -2.405246
      2 C                    -0.064478       0.154485
      3 S                     0.501366      -0.837984
      4 H                    -0.505647       0.618979
      5 H                    -0.795833       0.897128
      6 H                    -0.794256       0.895483
      7 H                    -0.936069       1.050771
      8 H                    -0.206006       0.312964
      9 H                    -0.206482       0.313421
  --------------------------------------------------------
  Sum of atomic charges =    -1.000000
  Sum of spin   charges =     1.000000

 -----------------------------------------------------------------
                    Cartesian Multipole Moments
 -----------------------------------------------------------------
    Charge (ESU x 10^10)
                -4.8032
    Dipole Moment (Debye)
         X      -0.4949      Y      -0.4007      Z      -5.8705
       Tot       5.9049
    Quadrupole Moments (Debye-Ang)
        XX     -53.8391     XY       0.3567     YY     -55.6236
        XZ      -0.8525     YZ       4.1337     ZZ     -63.9031
    Octapole Moments (Debye-Ang^2)
       XXX      -8.6039    XXY      -1.2623    XYY      -3.3389
       YYY       2.3753    XXZ     -33.9560    XYZ       1.3008
       YYZ     -39.4274    XZZ      -3.7911    YZZ      13.8663
       ZZZ    -112.6789
    Hexadecapole Moments (Debye-Ang^3)
      XXXX    -336.9502   XXXY       7.5844   XXYY    -157.3473
      XYYY      10.4905   YYYY    -655.5705   XXXZ     -17.3860
      XXYZ      29.7179   XYYZ      -7.1251   YYYZ     122.6124
      XXZZ    -180.2364   XYZZ       6.0464   YYZZ    -240.8129
      XZZZ     -16.6336   YZZZ     129.7108   ZZZZ    -736.1505
 -----------------------------------------------------------------
 Total job time:  294.40s(wall), 184.85s(cpu) 
 Tue Apr 12 22:42:34 2011

        *************************************************************
        *                                                           *
        *  Thank you very much for using Q-Chem.  Have a nice day.  *
        *                                                           *
        *************************************************************


0 sent ACK to 0 
now end server 0 ... 
 
**********************************************************************
Job 2 of 3 
**********************************************************************
 
Process 0 of 1 is on cl154.stfx.acenet.ca - thread support 1
initial socket setup ...start
initial socket setup ...done 
now start server 0 ... 

cmd = /usr/bin/ssh clhead /usr/local/qchem/bin/get_hostid 1310828255 > /globalscratch/itamblyn/bnl/g297_b3lyp_neut_g03Large_worked/g2g71116/omega600/qchem22376/lic.dat
                  Welcome to Q-Chem
     A Quantum Leap Into The Future Of Chemistry

 Y. Shao, L. Fusti-Molnar, Y. Jung, J. Kussmann, C. Ochsenfeld,
 S. T. Brown, A. T. B. Gilbert, L. V. Slipchenko,S. V. Levchenko,
 D. P. O'Neill, R. A. DiStasio Jr., R. C. Lochan, T. Wang,
 G. J. O. Beran, N. A. Besley, J. M. Herbert, C. Y. Lin,
 T. Van Voorhis, S. H. Chien, A. Sodt, R. P. Steele, 
 V. A. Rassolov, P. E. Maslen, P. P. Korambath, R. D. Adamson,
 B. Austin, J. Baker, E. F. C. Byrd, H. Dachsel, R. J. Doerksen,
 A. Dreuw, B. D. Dunietz, A. D. Dutoi, T. R. Furlani,
 S. R. Gwaltney, A. Heyden, S. Hirata, C.-P. Hsu, G. Kedziora,
 R. Z. Khaliullin, P. Klunzinger, A. M. Lee, M. S. Lee, W. Liang,
 I. Lotan, N. Nair, B. Peters, E. I. Proynov, P. A. Pieniazek, 
 Y. M. Rhee, J. Ritchie, E. Rosta, C. D. Sherrill, 
 A. C. Simmonett, J. E. Subotnik, H. L. Woodcock III,
 W. Zhang, A. T. Bell, A. K. Chakraborty, D. M. Chipman,
 F. J. Keil, A. Warshel, W. J. Hehre, H. F. Schaefer III,
 J. Kong, A. I. Krylov, P. M. W. Gill, M. Head-Gordon,
 Q-Chem, Version 3.1, Q-Chem, Inc., Pittsburgh, PA (2007).

 Additional authors for Version 3.1: 
 Z. Gan, Y. Zhao, N. E. Schultz, D. Truhlar, E. Epifanovsky and M. Oana.

 Additional authors for Version 3.2: 
 R. Baer, B. R. Brooks, D. Casanova, J.-D. Chai, C.-L. Cheng, 
 C. Cramer, D. Crittenden, A. Ghysels, G. Hawkins, E. G. Hohenstein, 
 C. Kelley, W. Kurlancheek, D. Liotard, E. Livshits, P. Manohar, 
 A. Marenich, D. Neuhauser, R. Olson, M. A. Rohrdanz, K. S. Thanthiriwatte, 
 A. J. W. Thom, V. Vanovschi, C. F. Williams, Q. Wu and Z.-Q. You. 


 Intel X86 Linux Version

 Q-chem begins on Tue Apr 12 22:42:40 2011  

 Parallel job on  1  processors
Processing $rem in /usr/local/qchem/config/preferences.

theFileMan(): MAXOPENFILES=974 MAX_SUB_FILE_NUM=16
Maximum size of a physical file is 2.0 GB, maximum size of a tmp-file is 32.0 GB


--------------------------------------------------------------
User input:
--------------------------------------------------------------

$molecule
0,1
C,0.0705120458,-1.4573954415,0.8284820118
C,0.0706032755,0.0699899665,0.8296505525
S,-0.0772163303,0.6847564096,-0.9073116523
H,-0.0525448241,2.0037488688,-0.6173179623
H,-0.7704122641,0.4525580601,1.4153010181
H,0.9984824652,0.4525675725,1.2647672455
H,0.1578428518,-1.8317736624,1.8546666253
H,-0.8561325083,-1.8543900243,0.4006016721
H,0.9115336364,-1.8543805185,0.2501724526

$end

$comment
neutral
$end

$xc_functional
   X HF 1.0
   X BNL 1.0
   C LYP 1.0
$end

$rem
SYMMETRY_DECOMPOSITION	0
exchange 		general
BASIS                   g3large
omega			600
separate_jk		true
mem_static              760
max_scf_cycles          200
scf_final_print         1
sym_ignore              true
$end

--------------------------------------------------------------
 Writing REM_CC_EA            9
 ----------------------------------------------------
       Standard Nuclear Orientation (Angstroms)
    I     Atom         X            Y            Z
 ----------------------------------------------------
    1      C       0.070512    -1.457395     0.828482
    2      C       0.070603     0.069990     0.829651
    3      S      -0.077216     0.684756    -0.907312
    4      H      -0.052545     2.003749    -0.617318
    5      H      -0.770412     0.452558     1.415301
    6      H       0.998482     0.452568     1.264767
    7      H       0.157843    -1.831774     1.854667
    8      H      -0.856133    -1.854390     0.400602
    9      H       0.911534    -1.854381     0.250172
 ----------------------------------------------------
 Nuclear Repulsion Energy =   106.6838605976 hartrees
 There are       17 alpha and       17 beta electrons
 Requested basis set is G3large
 There are 75 shells and 210 basis functions

Total QAlloc Memory Limit   2000 MB
Mega-Array Size       743 MB
MEM_STATIC part       760 MB

                       Distance Matrix (Angstroms)
             C (  1)   C (  2)   S (  3)   H (  4)   H (  5)   H (  6)
   C (  2)  1.527386
   S (  3)  2.761090  1.848466
   H (  4)  3.752999  2.418327  1.350721
   H (  5)  2.167817  1.093916  2.434947  2.655761
   H (  6)  2.167817  1.093916  2.434947  2.655761  1.775288
   H (  7)  1.095829  2.162169  3.743888  4.567954  2.504570  2.504570
   H (  8)  1.095151  2.178568  2.960509  4.070276  2.521700  3.083575
   H (  9)  1.095151  2.178568  2.960509  4.070276  3.083575  2.521700
             H (  7)   H (  8)
   H (  8)  1.772840
   H (  9)  1.772840  1.774055
 
 A cutoff of  1.0D-08 yielded   2653 shell pairs
 There are  20885 function pairs ( 26225 Cartesian)
Evaluating contribution to one-electron hamiltonian from nuclear
 Smallest overlap matrix eigenvalue = 7.25E-05

 Q-Chem warning in module mkSTV.C, line 194:

 Overlap eigenvalue is smaller than square root of threshold

 Multipole matrices computed through 2nd order

  Scale SEOQF with 1.000000e-01/1.000000e-01/1.000000e-01

 Standard Electronic Orientation quadrupole field applied
 Nucleus-field energy     =    -0.0000000005 hartrees
 Guess from superposition of atomic densities
 Warning:  Energy on first SCF cycle will be non-variational
 A restricted hybrid HF-DFT SCF calculation will be
 performed using Pulay DIIS extrapolation
 Exchange:     1.0000 Hartree-Fock + 1.0000 BNL
 Correlation:  1.0000 LYP
 Using SG-1 standard quadrature grid
 SCF converges when DIIS error is below 1.0E-05
 ---------------------------------------
  Cycle       Energy         DIIS Error
 ---------------------------------------
    1    -476.1559140366      2.84E-02
    2    -475.5146113848      2.32E-03
    3    -475.5527953267      9.94E-04
    4    -475.5581531336      3.22E-04
    5    -475.5590767414      7.69E-05
    6    -475.5591792353      2.84E-05
    7    -475.5591989009      1.23E-05
    8    -475.5592028704      4.54E-06 Convergence criterion met
 ---------------------------------------
 One-Electron    Energy =  -867.8120108784
 Total Coulomb   Energy =   321.7441247273
 Alpha Exchange  Energy =    -4.7000810878
 Beta  Exchange  Energy =    -4.7000810878
 DFT   Exchange  Energy =   -25.5569935757
 DFT Correlation Energy =    -1.2180215651
 Nuclear Repu.   Energy =   106.6838605971
 Nuclear Attr.   Energy = -1341.8668302698
 Kinetic         Energy =   474.0548193914
 SCF time:  CPU 114.69 s  wall 190.93 s
 Final Alpha MO Eigenvalues
            1           2           3           4           5           6
    1 -87.9982063 -10.1219104 -10.0860821  -7.9471490  -5.9872627  -5.9826988
            7           8           9          10          11          12
    1  -5.9755372  -1.0091229  -0.8992504  -0.7821167  -0.6233333  -0.6118281
           13          14          15          16          17          18
    1  -0.5404778  -0.5094995  -0.5031442  -0.4568884  -0.3690899   0.0310094
           19          20          21          22
    1   0.0480163   0.0563543   0.0574496   0.0741518
 Analysis of SCF Wavefunction
 
 --------------------------------------------------------------
                    Orbital Energies (a.u.)
 --------------------------------------------------------------
 
 Alpha MOs
 -- Occupied --
-87.998 -10.122 -10.086  -7.947  -5.987  -5.983  -5.976  -1.009
 -0.899  -0.782  -0.623  -0.612  -0.540  -0.509  -0.503  -0.457
 -0.369
 -- Virtual --
  0.031   0.048   0.056   0.057   0.074   0.088   0.095   0.113
  0.123   0.129   0.150   0.165   0.168   0.172   0.177   0.186
  0.195   0.196   0.217   0.237   0.255   0.267   0.279   0.319
  0.346   0.350   0.385   0.404   0.426   0.438   0.475   0.486
  0.513   0.534   0.539   0.561   0.610   0.631   0.653   0.658
  0.663   0.682   0.682   0.737   0.761   0.789   0.796   0.828
  0.844   0.875   0.916   0.971   0.972   1.001   1.004   1.033
  1.033   1.083   1.127   1.153   1.163   1.170   1.216   1.219
  1.236   1.270   1.292   1.325   1.334   1.343   1.381   1.389
  1.422   1.451   1.457   1.485   1.506   1.528   1.548   1.576
  1.599   1.606   1.625   1.659   1.677   1.723   1.732   1.756
  1.871   2.036   2.242   2.271   2.590   2.662   2.762   2.789
  2.809   2.938   2.984   2.995   3.094   3.099   3.139   3.195
  3.199   3.278   3.302   3.308   3.332   3.369   3.458   3.485
  3.526   3.553   3.575   3.601   3.676   3.693   3.708   3.761
  3.777   3.787   3.795   3.822   3.828   3.913   3.977   4.065
  4.074   4.128   4.166   4.178   4.220   4.220   4.228   4.299
  4.398   4.408   4.444   4.466   4.515   4.560   4.642   4.715
  4.720   4.725   4.749   4.791   4.849   4.958   4.967   5.228
  5.411   5.603   5.666   5.795   5.843   5.880   8.551  17.236
 17.411  17.515  23.699  23.715  23.760  23.775  23.946  24.342
 24.530  27.821  28.049  28.249  28.316  28.356  28.556  31.084
 31.088  31.092  31.094  31.097  31.107  31.114  41.025  41.053
 41.085  41.160  41.339  41.352  41.362  41.402  41.413  41.443
189.659
 --------------------------------------------------------------
 
          Ground-State Mulliken Net Atomic Charges

     Atom                 Charge (a.u.)
  ----------------------------------------
      1 C                    -0.399517
      2 C                     0.028012
      3 S                    -0.293685
      4 H                     0.111374
      5 H                     0.099453
      6 H                     0.099411
      7 H                     0.106025
      8 H                     0.124418
      9 H                     0.124509
  ----------------------------------------
  Sum of atomic charges =     0.000000

 -----------------------------------------------------------------
                    Cartesian Multipole Moments
 -----------------------------------------------------------------
    Charge (ESU x 10^10)
                 0.0000
    Dipole Moment (Debye)
         X       0.1472      Y       0.1093      Z       1.7330
       Tot       1.7426
    Quadrupole Moments (Debye-Ang)
        XX     -29.1844     XY      -0.0033     YY     -25.0045
        XZ       0.0624     YZ      -0.0354     ZZ     -28.4576
    Octapole Moments (Debye-Ang^2)
       XXX       0.7115    XXY      -1.3705    XYY      -0.1308
       YYY       7.0835    XXZ       2.7630    XYZ       0.1387
       YYZ      -1.5403    XZZ      -0.2463    YZZ       0.2602
       ZZZ       2.6968
    Hexadecapole Moments (Debye-Ang^3)
      XXXX     -52.9354   XXXY       5.3438   XXYY     -42.7727
      XYYY       4.1720   YYYY    -192.2568   XXXZ      -5.8346
      XXYZ      20.8735   XYYZ      -1.5144   YYYZ      49.0621
      XXZZ     -40.2668   XYZZ       0.6542   YYZZ     -60.4270
      XZZZ      -4.6300   YZZZ      49.5972   ZZZZ    -174.9866
 -----------------------------------------------------------------
 Total job time:  201.23s(wall), 114.98s(cpu) 
 Tue Apr 12 22:46:01 2011

        *************************************************************
        *                                                           *
        *  Thank you very much for using Q-Chem.  Have a nice day.  *
        *                                                           *
        *************************************************************


0 sent ACK to 0 
now end server 0 ... 
 
**********************************************************************
Job 3 of 3 
**********************************************************************
 
Process 0 of 1 is on cl154.stfx.acenet.ca - thread support 1
initial socket setup ...start
initial socket setup ...done 
now start server 0 ... 

cmd = /usr/bin/ssh clhead /usr/local/qchem/bin/get_hostid 1407665990 > /globalscratch/itamblyn/bnl/g297_b3lyp_neut_g03Large_worked/g2g71116/omega600/qchem22376/lic.dat
                  Welcome to Q-Chem
     A Quantum Leap Into The Future Of Chemistry

 Y. Shao, L. Fusti-Molnar, Y. Jung, J. Kussmann, C. Ochsenfeld,
 S. T. Brown, A. T. B. Gilbert, L. V. Slipchenko,S. V. Levchenko,
 D. P. O'Neill, R. A. DiStasio Jr., R. C. Lochan, T. Wang,
 G. J. O. Beran, N. A. Besley, J. M. Herbert, C. Y. Lin,
 T. Van Voorhis, S. H. Chien, A. Sodt, R. P. Steele, 
 V. A. Rassolov, P. E. Maslen, P. P. Korambath, R. D. Adamson,
 B. Austin, J. Baker, E. F. C. Byrd, H. Dachsel, R. J. Doerksen,
 A. Dreuw, B. D. Dunietz, A. D. Dutoi, T. R. Furlani,
 S. R. Gwaltney, A. Heyden, S. Hirata, C.-P. Hsu, G. Kedziora,
 R. Z. Khaliullin, P. Klunzinger, A. M. Lee, M. S. Lee, W. Liang,
 I. Lotan, N. Nair, B. Peters, E. I. Proynov, P. A. Pieniazek, 
 Y. M. Rhee, J. Ritchie, E. Rosta, C. D. Sherrill, 
 A. C. Simmonett, J. E. Subotnik, H. L. Woodcock III,
 W. Zhang, A. T. Bell, A. K. Chakraborty, D. M. Chipman,
 F. J. Keil, A. Warshel, W. J. Hehre, H. F. Schaefer III,
 J. Kong, A. I. Krylov, P. M. W. Gill, M. Head-Gordon,
 Q-Chem, Version 3.1, Q-Chem, Inc., Pittsburgh, PA (2007).

 Additional authors for Version 3.1: 
 Z. Gan, Y. Zhao, N. E. Schultz, D. Truhlar, E. Epifanovsky and M. Oana.

 Additional authors for Version 3.2: 
 R. Baer, B. R. Brooks, D. Casanova, J.-D. Chai, C.-L. Cheng, 
 C. Cramer, D. Crittenden, A. Ghysels, G. Hawkins, E. G. Hohenstein, 
 C. Kelley, W. Kurlancheek, D. Liotard, E. Livshits, P. Manohar, 
 A. Marenich, D. Neuhauser, R. Olson, M. A. Rohrdanz, K. S. Thanthiriwatte, 
 A. J. W. Thom, V. Vanovschi, C. F. Williams, Q. Wu and Z.-Q. You. 


 Intel X86 Linux Version

 Q-chem begins on Tue Apr 12 22:46:07 2011  

 Parallel job on  1  processors
Processing $rem in /usr/local/qchem/config/preferences.

theFileMan(): MAXOPENFILES=974 MAX_SUB_FILE_NUM=16
Maximum size of a physical file is 2.0 GB, maximum size of a tmp-file is 32.0 GB


--------------------------------------------------------------
User input:
--------------------------------------------------------------

$molecule
1,2
C,0.0705120458,-1.4573954415,0.8284820118
C,0.0706032755,0.0699899665,0.8296505525
S,-0.0772163303,0.6847564096,-0.9073116523
H,-0.0525448241,2.0037488688,-0.6173179623
H,-0.7704122641,0.4525580601,1.4153010181
H,0.9984824652,0.4525675725,1.2647672455
H,0.1578428518,-1.8317736624,1.8546666253
H,-0.8561325083,-1.8543900243,0.4006016721
H,0.9115336364,-1.8543805185,0.2501724526

$end

$comment
positive
$end

$xc_functional
   X HF 1.0
   X BNL 1.0
   C LYP 1.0
$end

$rem
SYMMETRY_DECOMPOSITION	0
exchange 		general
BASIS                   g3large
omega			600
separate_jk		true
mem_static              760
max_scf_cycles          200
scf_final_print         1
sym_ignore              true
$end

--------------------------------------------------------------
 Writing REM_CC_EA            9
 ----------------------------------------------------
       Standard Nuclear Orientation (Angstroms)
    I     Atom         X            Y            Z
 ----------------------------------------------------
    1      C       0.070512    -1.457395     0.828482
    2      C       0.070603     0.069990     0.829651
    3      S      -0.077216     0.684756    -0.907312
    4      H      -0.052545     2.003749    -0.617318
    5      H      -0.770412     0.452558     1.415301
    6      H       0.998482     0.452568     1.264767
    7      H       0.157843    -1.831774     1.854667
    8      H      -0.856133    -1.854390     0.400602
    9      H       0.911534    -1.854381     0.250172
 ----------------------------------------------------
 Nuclear Repulsion Energy =   106.6838605976 hartrees
 There are       17 alpha and       16 beta electrons
 Requested basis set is G3large
 There are 75 shells and 210 basis functions

Total QAlloc Memory Limit   2000 MB
Mega-Array Size       743 MB
MEM_STATIC part       760 MB

                       Distance Matrix (Angstroms)
             C (  1)   C (  2)   S (  3)   H (  4)   H (  5)   H (  6)
   C (  2)  1.527386
   S (  3)  2.761090  1.848466
   H (  4)  3.752999  2.418327  1.350721
   H (  5)  2.167817  1.093916  2.434947  2.655761
   H (  6)  2.167817  1.093916  2.434947  2.655761  1.775288
   H (  7)  1.095829  2.162169  3.743888  4.567954  2.504570  2.504570
   H (  8)  1.095151  2.178568  2.960509  4.070276  2.521700  3.083575
   H (  9)  1.095151  2.178568  2.960509  4.070276  3.083575  2.521700
             H (  7)   H (  8)
   H (  8)  1.772840
   H (  9)  1.772840  1.774055
 
 A cutoff of  1.0D-08 yielded   2653 shell pairs
 There are  20885 function pairs ( 26225 Cartesian)
Evaluating contribution to one-electron hamiltonian from nuclear
 Smallest overlap matrix eigenvalue = 7.25E-05

 Q-Chem warning in module mkSTV.C, line 194:

 Overlap eigenvalue is smaller than square root of threshold

 Multipole matrices computed through 2nd order

  Scale SEOQF with 1.000000e-01/1.000000e-01/1.000000e-01

 Standard Electronic Orientation quadrupole field applied
 Nucleus-field energy     =    -0.0000000005 hartrees
 Guess from superposition of atomic densities
 Warning:  Energy on first SCF cycle will be non-variational
 An unrestricted hybrid HF-DFT SCF calculation will be
 performed using Pulay DIIS extrapolation
 Exchange:     1.0000 Hartree-Fock + 1.0000 BNL
 Correlation:  1.0000 LYP
 Using SG-1 standard quadrature grid
 SCF converges when DIIS error is below 1.0E-05
 Warning!  Inaccurate integrated density:
   Number of electrons =    33
   Numerical integral  =    33.999779825982
   Relative error      =     3.0296358363 %
 ---------------------------------------
  Cycle       Energy         DIIS Error
 ---------------------------------------
    1    -476.1559140366      2.84E-02
    2    -475.1282875136      2.99E-03
    3    -475.2006685024      1.40E-03
    4    -475.2125566831      3.68E-04
    5    -475.2156661382      1.41E-04
    6    -475.2166478035      7.69E-05
    7    -475.2171355639      4.42E-05
    8    -475.2173462281      2.28E-05
    9    -475.2174138413      1.25E-05
   10    -475.2174350508      6.97E-06 Convergence criterion met
 ---------------------------------------
 One-Electron    Energy =  -858.6615298458
 Total Coulomb   Energy =   312.6363469310
 Alpha Exchange  Energy =    -4.7307961979
 Beta  Exchange  Energy =    -4.4743693434
 DFT   Exchange  Energy =   -25.4880635415
 DFT Correlation Energy =    -1.1828836505
 Nuclear Repu.   Energy =   106.6838605971
 Nuclear Attr.   Energy = -1332.4118349412
 Kinetic         Energy =   473.7503050954
 <S^2> = 0.7567
 SCF time:  CPU 176.99 s  wall 282.16 s
 Final Alpha MO Eigenvalues
            1           2           3           4           5           6
    1 -88.3562155 -10.3573281 -10.2701450  -8.3000429  -6.3428839  -6.3351706
            7           8           9          10          11          12
    1  -6.3303389  -1.2892941  -1.1502033  -1.0053789  -0.8681839  -0.8536670
           13          14          15          16          17          18
    1  -0.7754715  -0.7339748  -0.7319553  -0.7042019  -0.6905279  -0.1428000
           19          20          21          22
    1  -0.1181977  -0.0907990  -0.0780932  -0.0738504
 Final Beta MO Eigenvalues
            1           2           3           4           5           6
    1 -88.3500696 -10.3574214 -10.2701803  -8.2935317  -6.3306710  -6.3277491
            7           8           9          10          11          12
    1  -6.3260354  -1.2562526  -1.1298311  -0.9982401  -0.8599293  -0.8305475
           13          14          15          16          17          18
    1  -0.7647954  -0.7313718  -0.7004139  -0.7003603  -0.3185557  -0.1396489
           19          20          21
    1  -0.1132444  -0.0872310  -0.0768396
 Analysis of SCF Wavefunction
 
 --------------------------------------------------------------
                    Orbital Energies (a.u.)
 --------------------------------------------------------------
 
 Alpha MOs
 -- Occupied --
-88.356 -10.357 -10.270  -8.300  -6.343  -6.335  -6.330  -1.289
 -1.150  -1.005  -0.868  -0.854  -0.775  -0.734  -0.732  -0.704
 -0.691
 -- Virtual --
 -0.143  -0.118  -0.091  -0.078  -0.074  -0.061  -0.039  -0.039
 -0.027  -0.027  -0.017   0.000   0.019   0.019   0.023   0.038
  0.040   0.048   0.051   0.071   0.077   0.084   0.107   0.113
  0.129   0.170   0.182   0.188   0.231   0.233   0.257   0.279
  0.285   0.334   0.353   0.368   0.425   0.436   0.454   0.464
  0.471   0.496   0.510   0.524   0.561   0.567   0.616   0.620
  0.637   0.638   0.682   0.725   0.731   0.750   0.776   0.793
  0.794   0.814   0.855   0.875   0.912   0.939   0.996   0.999
  1.023   1.043   1.072   1.112   1.120   1.133   1.145   1.165
  1.182   1.209   1.242   1.272   1.302   1.308   1.322   1.378
  1.386   1.405   1.418   1.433   1.452   1.504   1.534   1.567
  1.650   1.714   1.955   1.988   2.392   2.458   2.561   2.574
  2.614   2.710   2.776   2.779   2.847   2.891   2.917   2.961
  2.975   3.070   3.073   3.095   3.096   3.169   3.220   3.237
  3.277   3.285   3.331   3.365   3.373   3.390   3.461   3.462
  3.504   3.549   3.558   3.593   3.603   3.709   3.721   3.829
  3.860   3.867   3.936   3.946   3.979   3.993   4.026   4.077
  4.184   4.216   4.221   4.247   4.265   4.335   4.396   4.456
  4.501   4.520   4.542   4.551   4.642   4.643   4.666   4.889
  5.207   5.345   5.401   5.585   5.661   5.680   8.208  16.870
 17.065  17.170  23.343  23.357  23.406  23.418  23.603  24.113
 24.338  27.607  27.813  28.036  28.132  28.150  28.350  30.725
 30.736  30.736  30.741  30.745  30.762  30.770  40.792  40.829
 40.901  40.961  41.102  41.116  41.168  41.188  41.218  41.259
189.303
 
 Beta MOs
 -- Occupied --
-88.350 -10.357 -10.270  -8.294  -6.331  -6.328  -6.326  -1.256
 -1.130  -0.998  -0.860  -0.831  -0.765  -0.731  -0.700  -0.700
 -- Virtual --
 -0.319  -0.140  -0.113  -0.087  -0.077  -0.073  -0.057  -0.038
 -0.037  -0.025  -0.024  -0.013   0.003   0.019   0.023   0.024
  0.038   0.044   0.048   0.062   0.071   0.076   0.104   0.109
  0.120   0.131   0.171   0.196   0.208   0.232   0.235   0.261
  0.281   0.304   0.336   0.355   0.370   0.427   0.439   0.454
  0.466   0.472   0.496   0.510   0.526   0.567   0.568   0.619
  0.620   0.639   0.643   0.687   0.731   0.736   0.755   0.787
  0.804   0.813   0.824   0.869   0.886   0.916   0.941   0.999
  1.003   1.026   1.048   1.076   1.117   1.122   1.135   1.150
  1.167   1.188   1.215   1.243   1.274   1.304   1.314   1.324
  1.381   1.388   1.407   1.419   1.436   1.453   1.507   1.535
  1.568   1.651   1.742   1.961   1.995   2.394   2.460   2.562
  2.576   2.615   2.710   2.777   2.780   2.849   2.893   2.918
  2.963   2.977   3.074   3.076   3.097   3.097   3.169   3.232
  3.261   3.283   3.293   3.331   3.381   3.395   3.403   3.475
  3.487   3.512   3.549   3.560   3.595   3.606   3.710   3.726
  3.834   3.861   3.872   3.938   3.947   3.980   3.997   4.026
  4.079   4.188   4.220   4.223   4.251   4.267   4.338   4.409
  4.461   4.504   4.521   4.544   4.555   4.644   4.656   4.670
  4.908   5.209   5.350   5.404   5.588   5.661   5.681   8.220
 16.891  17.070  17.175  23.354  23.368  23.416  23.429  23.607
 24.113  24.338  27.607  27.813  28.036  28.132  28.150  28.350
 30.732  30.740  30.742  30.746  30.749  30.764  30.772  40.791
 40.829  40.901  40.961  41.103  41.116  41.168  41.188  41.218
 41.259 189.309
 --------------------------------------------------------------
 
          Ground-State Mulliken Net Atomic Charges

     Atom                 Charge (a.u.)    Spin (a.u.)
  --------------------------------------------------------
      1 C                    -0.389094       0.015705
      2 C                     0.039416      -0.056765
      3 S                     0.368108       0.998962
      4 H                     0.203116      -0.020700
      5 H                     0.163030       0.031232
      6 H                     0.163189       0.032049
      7 H                     0.156693      -0.001984
      8 H                     0.147784       0.000809
      9 H                     0.147759       0.000691
  --------------------------------------------------------
  Sum of atomic charges =     1.000000
  Sum of spin   charges =     1.000000

 -----------------------------------------------------------------
                    Cartesian Multipole Moments
 -----------------------------------------------------------------
    Charge (ESU x 10^10)
                 4.8032
    Dipole Moment (Debye)
         X      -0.0212      Y       2.4199      Z      -0.2192
       Tot       2.4299
    Quadrupole Moments (Debye-Ang)
        XX     -23.0000     XY      -0.3141     YY     -16.4391
        XZ       0.3231     YZ      -3.6819     ZZ     -19.3621
    Octapole Moments (Debye-Ang^2)
       XXX      -0.0873    XXY       1.5158    XYY      -0.2170
       YYY      10.3165    XXZ      -0.3192    XYZ       0.0590
       YYZ      -2.5106    XZZ       0.0954    YZZ       2.1293
       ZZZ       0.5843
    Hexadecapole Moments (Debye-Ang^3)
      XXXX     -36.7742   XXXY       4.3879   XXYY     -33.6692
      XYYY       2.9205   YYYY    -148.4994   XXXZ      -4.3785
      XXYZ      17.1279   XYYZ      -1.0889   YYYZ      34.3117
      XXZZ     -29.3284   XYZZ       0.4125   YYZZ     -46.4607
      XZZZ      -4.3218   YZZZ      39.3686   ZZZZ    -138.8178
 -----------------------------------------------------------------
 Total job time:  292.36s(wall), 177.26s(cpu) 
 Tue Apr 12 22:50:59 2011

        *************************************************************
        *                                                           *
        *  Thank you very much for using Q-Chem.  Have a nice day.  *
        *                                                           *
        *************************************************************


0 sent ACK to 0 
now end server 0 ... 
