Process 0 of 1 is on cl146.stfx.acenet.ca - thread support 1
initial socket setup ...start
initial socket setup ...done 
now start server 0 ... 

cmd = /usr/bin/ssh clhead /usr/local/qchem/bin/get_hostid 805241588 > /scratch/tmp/4503948.1.medium.q/qchem9507/lic.dat
                  Welcome to Q-Chem
     A Quantum Leap Into The Future Of Chemistry

 Y. Shao, L. Fusti-Molnar, Y. Jung, J. Kussmann, C. Ochsenfeld,
 S. T. Brown, A. T. B. Gilbert, L. V. Slipchenko,S. V. Levchenko,
 D. P. O'Neill, R. A. DiStasio Jr., R. C. Lochan, T. Wang,
 G. J. O. Beran, N. A. Besley, J. M. Herbert, C. Y. Lin,
 T. Van Voorhis, S. H. Chien, A. Sodt, R. P. Steele, 
 V. A. Rassolov, P. E. Maslen, P. P. Korambath, R. D. Adamson,
 B. Austin, J. Baker, E. F. C. Byrd, H. Dachsel, R. J. Doerksen,
 A. Dreuw, B. D. Dunietz, A. D. Dutoi, T. R. Furlani,
 S. R. Gwaltney, A. Heyden, S. Hirata, C.-P. Hsu, G. Kedziora,
 R. Z. Khaliullin, P. Klunzinger, A. M. Lee, M. S. Lee, W. Liang,
 I. Lotan, N. Nair, B. Peters, E. I. Proynov, P. A. Pieniazek, 
 Y. M. Rhee, J. Ritchie, E. Rosta, C. D. Sherrill, 
 A. C. Simmonett, J. E. Subotnik, H. L. Woodcock III,
 W. Zhang, A. T. Bell, A. K. Chakraborty, D. M. Chipman,
 F. J. Keil, A. Warshel, W. J. Hehre, H. F. Schaefer III,
 J. Kong, A. I. Krylov, P. M. W. Gill, M. Head-Gordon,
 Q-Chem, Version 3.1, Q-Chem, Inc., Pittsburgh, PA (2007).

 Additional authors for Version 3.1: 
 Z. Gan, Y. Zhao, N. E. Schultz, D. Truhlar, E. Epifanovsky and M. Oana.

 Additional authors for Version 3.2: 
 R. Baer, B. R. Brooks, D. Casanova, J.-D. Chai, C.-L. Cheng, 
 C. Cramer, D. Crittenden, A. Ghysels, G. Hawkins, E. G. Hohenstein, 
 C. Kelley, W. Kurlancheek, D. Liotard, E. Livshits, P. Manohar, 
 A. Marenich, D. Neuhauser, R. Olson, M. A. Rohrdanz, K. S. Thanthiriwatte, 
 A. J. W. Thom, V. Vanovschi, C. F. Williams, Q. Wu and Z.-Q. You. 


 Intel X86 Linux Version

 Q-chem begins on Sun Apr 17 21:00:45 2011  

 Parallel job on  1  processors
Processing $rem in /usr/local/qchem/config/preferences.

theFileMan(): MAXOPENFILES=974 MAX_SUB_FILE_NUM=16
Maximum size of a physical file is 2.0 GB, maximum size of a tmp-file is 32.0 GB


--------------------------------------------------------------
User input:
--------------------------------------------------------------

$molecule
0,1
C
H,1,CH
F,1,CF,2,FCH
F,1,CF,2,FCH,3,120.,0
F,1,CF,2,FCH,3,-120.,0

CH=1.09277054
CF=1.34203912
FCH=110.36172274

$end

$comment
neutral
$end

$xc_functional
   X HF 1.0
   X BNL 1.0
   C LYP 1.0
$end

$rem
SYMMETRY_DECOMPOSITION	0
exchange 		general
BASIS                   g3large
omega			530 
JOBTYPE                 opt
separate_jk		true
mem_static              760
max_scf_cycles          200
scf_final_print         1
sym_ignore              true
$end


--------------------------------------------------------------
 Writing REM_CC_EA            5
 ----------------------------------------------------
       Standard Nuclear Orientation (Angstroms)
    I     Atom         X            Y            Z
 ----------------------------------------------------
    1      C       0.000000     0.000000     0.000000
    2      H       0.000000     0.000000     1.092771
    3      F       1.258181     0.000000    -0.466957
    4      F      -0.629091    -1.089617    -0.466957
    5      F      -0.629091     1.089617    -0.466957
 ----------------------------------------------------
 Nuclear Repulsion Energy =   132.9203195221 hartrees
 There are       17 alpha and       17 beta electrons
 Requested basis set is G3large
 There are 46 shells and 178 basis functions

Total QAlloc Memory Limit   2000 MB
Mega-Array Size       743 MB
MEM_STATIC part       760 MB
 A cutoff of  1.0D-11 yielded    997 shell pairs
 There are  15160 function pairs ( 19642 Cartesian)
Evaluating contribution to one-electron hamiltonian from nuclear
 Smallest overlap matrix eigenvalue = 9.74E-04
 Multipole matrices computed through 2nd order

  Scale SEOQF with 1.000000e-01/1.000000e-01/1.000000e-01

 Standard Electronic Orientation quadrupole field applied
 Nucleus-field energy     =     0.0000000015 hartrees
 Guess from superposition of atomic densities
 Warning:  Energy on first SCF cycle will be non-variational
 A restricted hybrid HF-DFT SCF calculation will be
 performed using Pulay DIIS extrapolation
 Exchange:     1.0000 Hartree-Fock + 1.0000 BNL
 Correlation:  1.0000 LYP
 Using SG-1 standard quadrature grid
 SCF converges when DIIS error is below 1.0E-08
 ---------------------------------------
  Cycle       Energy         DIIS Error
 ---------------------------------------
    1    -336.3959772253      3.39E-02
    2    -335.6133762920      6.63E-03
    3    -335.6529198452      6.24E-03
    4    -335.7356021081      6.00E-04
    5    -335.7365311689      2.02E-04
    6    -335.7366795399      6.28E-05
    7    -335.7366912053      2.87E-05
    8    -335.7366936235      4.36E-06
    9    -335.7366937524      7.25E-07
   10    -335.7366937314      1.08E-07
   11    -335.7366937394      5.68E-08
   12    -335.7366937392      2.23E-08
   13    -335.7366937388      2.62E-09 Convergence criterion met
 ---------------------------------------
 One-Electron    Energy =  -732.9137163166
 Total Coulomb   Energy =   298.6845357170
 Alpha Exchange  Energy =    -4.4858625522
 Beta  Exchange  Energy =    -4.4858625522
 DFT   Exchange  Energy =   -24.1903986014
 DFT Correlation Energy =    -1.2657089570
 Nuclear Repu.   Energy =   132.9203195236
 Nuclear Attr.   Energy = -1067.4130416933
 Kinetic         Energy =   334.4993253767
 SCF time:  CPU 94.66 s  wall 98.09 s
 Final Alpha MO Eigenvalues
            1           2           3           4           5           6
    1 -24.3884929 -24.3884853 -24.3884787 -10.3241763  -1.5091548  -1.4096229
            7           8           9          10          11          12
    1  -1.4096204  -0.9064519  -0.7949815  -0.7745516  -0.7745496  -0.6499538
           13          14          15          16          17          18
    1  -0.6499428  -0.6109889  -0.6109846  -0.5882492  -0.5595804   0.0339379
           19          20          21          22
    1   0.0856950   0.0857190   0.0866507   0.1434120
 Analysis of SCF Wavefunction
 
 --------------------------------------------------------------
                    Orbital Energies (a.u.)
 --------------------------------------------------------------
 
 Alpha MOs
 -- Occupied --
-24.388 -24.388 -24.388 -10.324  -1.509  -1.410  -1.410  -0.906
 -0.795  -0.775  -0.775  -0.650  -0.650  -0.611  -0.611  -0.588
 -0.560
 -- Virtual --
  0.034   0.086   0.086   0.087   0.143   0.219   0.251   0.251
  0.280   0.280   0.304   0.313   0.313   0.343   0.383   0.383
  0.386   0.408   0.453   0.474   0.474   0.577   0.633   0.633
  0.716   0.871   0.871   0.962   1.089   1.164   1.164   1.252
  1.252   1.359   1.359   1.424   1.424   1.449   1.508   1.519
  1.532   1.569   1.569   1.940   1.941   2.046   2.073   2.093
  2.093   2.134   2.179   2.179   2.256   2.387   2.387   2.617
  2.617   2.673   2.719   2.826   2.826   2.903   3.343   3.343
  3.358   3.462   3.462   3.533   3.533   3.659   3.816   3.837
  3.837   3.863   3.918   4.251   4.251   4.433   4.433   5.372
  6.228   6.228   6.312   6.329   6.329   6.343   6.647   6.717
  6.717   6.726   6.742   6.742   6.743   6.757   6.757   6.778
  6.782   6.782   6.873   6.873   6.926   7.090   7.090   7.164
  7.328   7.328   7.401   7.541   7.745   7.745   9.162   9.162
  9.177   9.249   9.249   9.310   9.503   9.568   9.568   9.659
  9.813   9.873   9.873  10.137  10.137  24.632  27.879  27.879
 27.998  40.805  40.824  41.043  41.134  41.225  50.067  50.081
 50.112  50.113  50.139  50.140  50.197  50.241  50.250  50.299
 50.351  50.380  50.383  50.443  50.460  55.714  55.714  55.777
 55.785  55.785  55.811  56.111  56.236  56.236  66.956  66.956
 67.012
 --------------------------------------------------------------
 
          Ground-State Mulliken Net Atomic Charges

     Atom                 Charge (a.u.)
  ----------------------------------------
      1 C                     0.319429
      2 H                     0.204752
      3 F                    -0.174579
      4 F                    -0.174801
      5 F                    -0.174801
  ----------------------------------------
  Sum of atomic charges =     0.000000

 -----------------------------------------------------------------
                    Cartesian Multipole Moments
 -----------------------------------------------------------------
    Charge (ESU x 10^10)
                 0.0000
    Dipole Moment (Debye)
         X       0.0000      Y       0.0000      Z       1.8256
       Tot       1.8256
    Quadrupole Moments (Debye-Ang)
        XX     -22.8887     XY       0.0000     YY     -22.8891
        XZ       0.0001     YZ       0.0000     ZZ     -20.0746
    Octapole Moments (Debye-Ang^2)
       XXX      -1.3335    XXY       0.0000    XYY       1.3345
       YYY       0.0000    XXZ       7.2094    XYZ       0.0000
       YYZ       7.2096    XZZ       0.0002    YZZ       0.0000
       ZZZ      20.4625
    Hexadecapole Moments (Debye-Ang^3)
      XXXX     -88.2531   XXXY       0.0000   XXYY     -29.4177
      XYYY       0.0000   YYYY     -88.2561   XXXZ       0.0836
      XXYZ       0.0000   XYYZ      -0.0837   YYYZ       0.0000
      XXZZ     -21.3930   XYZZ       0.0000   YYZZ     -21.3937
      XZZZ      -0.0001   YZZZ       0.0000   ZZZZ     -38.2273
 -----------------------------------------------------------------
 Calculating analytic gradient of the SCF energy
 Gradient of AOints
            1           2           3           4           5
    1   0.0006410   0.0011211 -17.8338078   8.9160228   8.9160228
    2  -0.0000006   0.0000002   0.0000001  15.4443959 -15.4443957
    3  -4.8175454  -5.4804397   3.4331904   3.4323974   3.4323973
 Gradient of XC Energy
            1           2           3           4           5
    1   0.0001459  -0.0000236   0.2633881  -0.1317552  -0.1317552
    2   0.0000000  -0.0000000  -0.0000000  -0.2279818   0.2279818
    3   0.1055139   0.1557649  -0.0871977  -0.0870405  -0.0870405
 Gradient of SCF Energy
            1           2           3           4           5
    1   0.0001839  -0.0000027   0.0237281  -0.0119546  -0.0119546
    2  -0.0000000  -0.0000000   0.0000000  -0.0204427   0.0204427
    3   0.0175102   0.0010174  -0.0062677  -0.0061299  -0.0061299
 Max gradient component =       2.373E-02
 RMS gradient           =       1.185E-02
 Gradient time:  CPU 42.06 s  wall 42.44 s
 Geometry Optimization Parameters
   NAtoms,    NIC,     NZ,  NCons,   NDum,   NFix, NCnnct, MaxDiis
        5      20       5       0       0       0       0       0


** GEOMETRY OPTIMIZATION IN DELOCALIZED INTERNAL COORDINATES **
   Searching for a Minimum

   Optimization Cycle:   1

                       Coordinates (Angstroms)
     ATOM              X           Y           Z
    1  C           0.000000    0.000000    0.000000
    2  H           0.000000    0.000000    1.092771
    3  F           1.258181    0.000000   -0.466957
    4  F          -0.629091   -1.089617   -0.466957
    5  F          -0.629091    1.089617   -0.466957
   Point Group: c1    Number of degrees of freedom:   9


   Energy is   -335.736693739


 Attempting to Generate Delocalized Internal Coordinates

  9 Hessian modes will be used to form the next step
  Hessian Eigenvalues:
     0.160000    0.160000    0.206432    0.250000    0.250000    0.344944
     0.567504    0.567504    0.567504

 Minimum Search - Taking Simple RFO Step
 Searching for Lamda that Minimizes Along All modes
 Value Taken    Lamda =  -0.00339114
 Step Taken.  Stepsize is  0.082180

                             Maximum     Tolerance    Cnvgd?
         Gradient           0.036670      0.000300      NO
         Displacement       0.064820      0.001200      NO
         Energy change     *********      0.000001      NO


 New Cartesian Coordinates Obtained by Inverse Iteration

 Displacement from previous Coordinates is:  0.093054
 Writing REM_CC_EA            5
 ----------------------------------------------------
       Standard Nuclear Orientation (Angstroms)
    I     Atom         X            Y            Z
 ----------------------------------------------------
    1      C      -0.000356     0.000000     0.006152
    2      H       0.000236     0.000000     1.097377
    3      F       1.229962     0.000000    -0.470436
    4      F      -0.614921    -1.065857    -0.470597
    5      F      -0.614921     1.065857    -0.470597
 ----------------------------------------------------
 Nuclear Repulsion Energy =   135.3924607594 hartrees
 There are       17 alpha and       17 beta electrons
 Applying Cartesian multipole field
    Component          Value
    ---------          -----
     (2,0,0)        1.00000E-11
     (0,2,0)        2.00000E-11
     (0,0,2)       -3.00000E-11
 Nucleus-field energy     =     0.0000000014 hartrees
 Requested basis set is G3large
 There are 46 shells and 178 basis functions
 A cutoff of  1.0D-11 yielded   1003 shell pairs
 There are  15280 function pairs ( 19786 Cartesian)
Evaluating contribution to one-electron hamiltonian from nuclear
 Smallest overlap matrix eigenvalue = 9.09E-04
 Multipole matrices computed through 2nd order
 Guess MOs from SCF MO coefficient file
Reading MOs from coefficient file
Reading MOs from coefficient file
 A restricted hybrid HF-DFT SCF calculation will be
 performed using Pulay DIIS extrapolation
 Exchange:     1.0000 Hartree-Fock + 1.0000 BNL
 Correlation:  1.0000 LYP
 Using SG-1 standard quadrature grid
 SCF converges when DIIS error is below 1.0E-08
 ---------------------------------------
  Cycle       Energy         DIIS Error
 ---------------------------------------
    1    -335.7794532281      1.30E-03
    2    -335.7380774613      2.35E-04
    3    -335.7381869422      1.20E-04
    4    -335.7382190443      3.15E-05
    5    -335.7382214724      1.06E-05
    6    -335.7382219752      2.01E-06
    7    -335.7382219994      3.65E-07
    8    -335.7382220050      8.04E-08
    9    -335.7382220098      5.45E-08
   10    -335.7382220111      5.43E-09 Convergence criterion met
 ---------------------------------------
 One-Electron    Energy =  -737.7833503301
 Total Coulomb   Energy =   301.1280642001
 Alpha Exchange  Energy =    -4.4897771577
 Beta  Exchange  Energy =    -4.4897771577
 DFT   Exchange  Energy =   -24.2274549581
 DFT Correlation Energy =    -1.2683873684
 Nuclear Repu.   Energy =   135.3924607608
 Nuclear Attr.   Energy = -1072.4691943299
 Kinetic         Energy =   334.6858439998
 SCF time:  CPU 76.61 s  wall 79.49 s
 Final Alpha MO Eigenvalues
            1           2           3           4           5           6
    1 -24.3861738 -24.3861675 -24.3860670 -10.3168570  -1.5230532  -1.4142127
            7           8           9          10          11          12
    1  -1.4140757  -0.9052418  -0.8031527  -0.7801372  -0.7800559  -0.6531034
           13          14          15          16          17          18
    1  -0.6530098  -0.6095796  -0.6094802  -0.5854694  -0.5592146   0.0342715
           19          20          21          22
    1   0.0859162   0.0859486   0.0869037   0.1433326
 Analysis of SCF Wavefunction
 
 --------------------------------------------------------------
                    Orbital Energies (a.u.)
 --------------------------------------------------------------
 
 Alpha MOs
 -- Occupied --
-24.386 -24.386 -24.386 -10.317  -1.523  -1.414  -1.414  -0.905
 -0.803  -0.780  -0.780  -0.653  -0.653  -0.610  -0.609  -0.585
 -0.559
 -- Virtual --
  0.034   0.086   0.086   0.087   0.143   0.222   0.260   0.260
  0.280   0.280   0.318   0.318   0.319   0.355   0.383   0.383
  0.388   0.422   0.458   0.478   0.478   0.582   0.635   0.635
  0.726   0.882   0.882   0.957   1.081   1.172   1.172   1.250
  1.250   1.347   1.348   1.425   1.425   1.449   1.511   1.517
  1.530   1.570   1.570   1.935   1.935   2.054   2.072   2.102
  2.103   2.152   2.214   2.215   2.301   2.393   2.393   2.650
  2.650   2.679   2.766   2.823   2.824   2.926   3.335   3.336
  3.365   3.498   3.498   3.570   3.570   3.693   3.840   3.866
  3.868   3.869   3.922   4.268   4.268   4.447   4.448   5.375
  6.237   6.237   6.319   6.340   6.340   6.340   6.663   6.718
  6.718   6.731   6.740   6.740   6.742   6.757   6.757   6.783
  6.789   6.789   6.893   6.894   6.961   7.153   7.154   7.201
  7.375   7.376   7.442   7.579   7.845   7.846   9.167   9.168
  9.193   9.262   9.263   9.325   9.524   9.588   9.589   9.700
  9.845   9.909   9.909  10.152  10.152  24.772  27.895  27.895
 28.024  40.824  40.837  41.056  41.167  41.264  50.072  50.086
 50.118  50.119  50.145  50.147  50.206  50.249  50.258  50.318
 50.365  50.394  50.395  50.451  50.466  55.724  55.724  55.784
 55.797  55.797  55.820  56.145  56.294  56.294  66.965  66.966
 67.024
 --------------------------------------------------------------
 
          Ground-State Mulliken Net Atomic Charges

     Atom                 Charge (a.u.)
  ----------------------------------------
      1 C                     0.312382
      2 H                     0.201108
      3 F                    -0.171008
      4 F                    -0.171242
      5 F                    -0.171242
  ----------------------------------------
  Sum of atomic charges =     0.000000

 -----------------------------------------------------------------
                    Cartesian Multipole Moments
 -----------------------------------------------------------------
    Charge (ESU x 10^10)
                 0.0000
    Dipole Moment (Debye)
         X      -0.0013      Y       0.0000      Z       1.8248
       Tot       1.8248
    Quadrupole Moments (Debye-Ang)
        XX     -22.7378     XY       0.0000     YY     -22.7393
        XZ       0.0010     YZ       0.0000     ZZ     -20.0442
    Octapole Moments (Debye-Ang^2)
       XXX      -1.2986    XXY       0.0000    XYY       1.3040
       YYY       0.0000    XXZ       7.1702    XYZ       0.0000
       YYZ       7.1703    XZZ       0.0021    YZZ       0.0000
       ZZZ      20.3774
    Hexadecapole Moments (Debye-Ang^3)
      XXXX     -84.8457   XXXY       0.0000   XXYY     -28.2977
      XYYY       0.0000   YYYY     -84.9350   XXXZ       0.0731
      XXYZ       0.0000   XYYZ      -0.0771   YYYZ       0.0000
      XXZZ     -20.8313   XYZZ       0.0000   YYZZ     -20.8461
      XZZZ      -0.0012   YZZZ       0.0000   ZZZZ     -38.5234
 -----------------------------------------------------------------
 Calculating analytic gradient of the SCF energy
 Gradient of AOints
            1           2           3           4           5
    1   0.0158912  -0.0036363 -18.1090224   9.0483838   9.0483837
    2   0.0000003  -0.0000000  -0.0000001  15.6878163 -15.6878164
    3  -5.4647222  -5.5125939   3.6572955   3.6600103   3.6600103
 Gradient of XC Energy
            1           2           3           4           5
    1  -0.0002281   0.0001122   0.2666562  -0.1332701  -0.1332701
    2  -0.0000000   0.0000000   0.0000000  -0.2310266   0.2310266
    3   0.1274075   0.1559546  -0.0945271  -0.0944175  -0.0944175
 Gradient of SCF Energy
            1           2           3           4           5
    1   0.0000582   0.0001065  -0.0019028   0.0008691   0.0008691
    2  -0.0000000   0.0000000   0.0000000   0.0014167  -0.0014167
    3   0.0100608  -0.0011580  -0.0030226  -0.0029401  -0.0029401
 Max gradient component =       1.006E-02
 RMS gradient           =       3.035E-03
 Gradient time:  CPU 43.52 s  wall 43.91 s
 Geometry Optimization Parameters
   NAtoms,    NIC,     NZ,  NCons,   NDum,   NFix, NCnnct, MaxDiis
        5      20       5       0       0       0       0       0

 Cartesian Hessian Update
 Hessian Updated using BFGS Update


** GEOMETRY OPTIMIZATION IN DELOCALIZED INTERNAL COORDINATES **
   Searching for a Minimum

   Optimization Cycle:   2

                       Coordinates (Angstroms)
     ATOM              X           Y           Z
    1  C          -0.000356    0.000000    0.006152
    2  H           0.000236    0.000000    1.097377
    3  F           1.229962    0.000000   -0.470436
    4  F          -0.614921   -1.065857   -0.470597
    5  F          -0.614921    1.065857   -0.470597
   Point Group: c1    Number of degrees of freedom:   9


   Energy is   -335.738222011

 Hessian Updated using BFGS Update

  6 Hessian modes will be used to form the next step
  Hessian Eigenvalues:
     0.160001    0.233010    0.250053    0.345117    0.566529    0.571565

 Minimum Search - Taking Simple RFO Step
 Searching for Lamda that Minimizes Along All modes
 Value Taken    Lamda =  -0.00039451
 Step Taken.  Stepsize is  0.039975

                             Maximum     Tolerance    Cnvgd?
         Gradient           0.008421      0.000300      NO
         Displacement       0.031205      0.001200      NO
         Energy change     -0.001528      0.000001      NO


 New Cartesian Coordinates Obtained by Inverse Iteration

 Displacement from previous Coordinates is:  0.044087
 Writing REM_CC_EA            5
 ----------------------------------------------------
       Standard Nuclear Orientation (Angstroms)
    I     Atom         X            Y            Z
 ----------------------------------------------------
    1      C      -0.000247     0.000000    -0.006166
    2      H       0.000186     0.000000     1.086473
    3      F       1.235765     0.000000    -0.462711
    4      F      -0.617852    -1.070494    -0.462848
    5      F      -0.617852     1.070494    -0.462848
 ----------------------------------------------------
 Nuclear Repulsion Energy =   135.2485485575 hartrees
 There are       17 alpha and       17 beta electrons
 Applying Cartesian multipole field
    Component          Value
    ---------          -----
     (2,0,0)        1.00000E-11
     (0,2,0)        2.00000E-11
     (0,0,2)       -3.00000E-11
 Nucleus-field energy     =     0.0000000015 hartrees
 Requested basis set is G3large
 There are 46 shells and 178 basis functions
 A cutoff of  1.0D-11 yielded   1003 shell pairs
 There are  15280 function pairs ( 19786 Cartesian)
Evaluating contribution to one-electron hamiltonian from nuclear
 Smallest overlap matrix eigenvalue = 9.06E-04
 Multipole matrices computed through 2nd order
 Guess MOs from SCF MO coefficient file
Reading MOs from coefficient file
Reading MOs from coefficient file
 A restricted hybrid HF-DFT SCF calculation will be
 performed using Pulay DIIS extrapolation
 Exchange:     1.0000 Hartree-Fock + 1.0000 BNL
 Correlation:  1.0000 LYP
 Using SG-1 standard quadrature grid
 SCF converges when DIIS error is below 1.0E-08
 ---------------------------------------
  Cycle       Energy         DIIS Error
 ---------------------------------------
    1    -335.7370671231      5.20E-04
    2    -335.7382851955      8.96E-05
    3    -335.7383154949      5.53E-05
    4    -335.7383225275      1.95E-05
    5    -335.7383238723      3.42E-06
    6    -335.7383239600      4.11E-07
    7    -335.7383239519      1.03E-07
    8    -335.7383239436      2.00E-08
    9    -335.7383239440      1.32E-08
   10    -335.7383239432      2.29E-09 Convergence criterion met
 ---------------------------------------
 One-Electron    Energy =  -737.4620870018
 Total Coulomb   Energy =   300.9520838934
 Alpha Exchange  Energy =    -4.4899081790
 Beta  Exchange  Energy =    -4.4899081790
 DFT   Exchange  Energy =   -24.2286522479
 DFT Correlation Energy =    -1.2684007880
 Nuclear Repu.   Energy =   135.2485485590
 Nuclear Attr.   Energy = -1072.1519878061
 Kinetic         Energy =   334.6899008043
 SCF time:  CPU 73.69 s  wall 76.42 s
 Final Alpha MO Eigenvalues
            1           2           3           4           5           6
    1 -24.3875096 -24.3875038 -24.3874123 -10.3163193  -1.5234132  -1.4165904
            7           8           9          10          11          12
    1  -1.4164758  -0.9050717  -0.8029782  -0.7818832  -0.7818311  -0.6538295
           13          14          15          16          17          18
    1  -0.6537781  -0.6123817  -0.6123149  -0.5876233  -0.5546112   0.0348702
           19          20          21          22
    1   0.0864162   0.0864949   0.0864967   0.1434116
 Analysis of SCF Wavefunction
 
 --------------------------------------------------------------
                    Orbital Energies (a.u.)
 --------------------------------------------------------------
 
 Alpha MOs
 -- Occupied --
-24.388 -24.388 -24.387 -10.316  -1.523  -1.417  -1.416  -0.905
 -0.803  -0.782  -0.782  -0.654  -0.654  -0.612  -0.612  -0.588
 -0.555
 -- Virtual --
  0.035   0.086   0.086   0.086   0.143   0.223   0.262   0.262
  0.282   0.282   0.317   0.320   0.320   0.351   0.383   0.383
  0.387   0.417   0.458   0.475   0.475   0.586   0.639   0.640
  0.723   0.883   0.883   0.957   1.084   1.169   1.169   1.256
  1.256   1.352   1.352   1.422   1.422   1.446   1.509   1.519
  1.531   1.570   1.570   1.935   1.935   2.055   2.074   2.097
  2.097   2.143   2.202   2.203   2.288   2.406   2.406   2.655
  2.655   2.691   2.751   2.847   2.848   2.919   3.337   3.337
  3.381   3.490   3.490   3.568   3.568   3.690   3.857   3.865
  3.865   3.865   3.927   4.266   4.266   4.442   4.442   5.373
  6.235   6.235   6.319   6.338   6.338   6.345   6.656   6.720
  6.720   6.727   6.739   6.739   6.741   6.757   6.757   6.781
  6.792   6.792   6.897   6.898   6.950   7.141   7.142   7.204
  7.376   7.377   7.458   7.615   7.845   7.846   9.166   9.166
  9.187   9.261   9.261   9.327   9.526   9.593   9.593   9.686
  9.846   9.911   9.911  10.156  10.156  24.783  27.900  27.900
 28.015  40.830  40.841  41.057  41.162  41.264  50.070  50.084
 50.116  50.118  50.143  50.145  50.205  50.250  50.260  50.312
 50.367  50.394  50.396  50.450  50.466  55.721  55.721  55.784
 55.796  55.796  55.823  56.143  56.296  56.297  66.963  66.964
 67.023
 --------------------------------------------------------------
 
          Ground-State Mulliken Net Atomic Charges

     Atom                 Charge (a.u.)
  ----------------------------------------
      1 C                     0.311537
      2 H                     0.196165
      3 F                    -0.169141
      4 F                    -0.169281
      5 F                    -0.169281
  ----------------------------------------
  Sum of atomic charges =     0.000000

 -----------------------------------------------------------------
                    Cartesian Multipole Moments
 -----------------------------------------------------------------
    Charge (ESU x 10^10)
                 0.0000
    Dipole Moment (Debye)
         X      -0.0013      Y       0.0000      Z       1.7244
       Tot       1.7244
    Quadrupole Moments (Debye-Ang)
        XX     -22.7260     XY       0.0000     YY     -22.7260
        XZ       0.0009     YZ       0.0000     ZZ     -20.0751
    Octapole Moments (Debye-Ang^2)
       XXX      -1.2913    XXY       0.0000    XYY       1.2936
       YYY       0.0000    XXZ       7.1174    XYZ       0.0000
       YYZ       7.1173    XZZ       0.0013    YZZ       0.0000
       ZZZ      20.1152
    Hexadecapole Moments (Debye-Ang^3)
      XXXX     -85.3575   XXXY       0.0000   XXYY     -28.4589
      XYYY       0.0000   YYYY     -85.3942   XXXZ       0.0917
      XXYZ       0.0000   XYYZ      -0.0946   YYYZ       0.0000
      XXZZ     -20.8506   XYZZ       0.0000   YYZZ     -20.8568
      XZZZ      -0.0012   YZZZ       0.0000   ZZZZ     -37.9719
 -----------------------------------------------------------------
 Calculating analytic gradient of the SCF energy
 Gradient of AOints
            1           2           3           4           5
    1   0.0081411  -0.0023859 -18.1518095   9.0730272   9.0730272
    2   0.0000000   0.0000000  -0.0000000  15.7232765 -15.7232765
    3  -4.7922053  -5.4777090   3.4214338   3.4242402   3.4242403
 Gradient of XC Energy
            1           2           3           4           5
    1   0.0000066   0.0000747   0.2697506  -0.1349159  -0.1349159
    2  -0.0000000  -0.0000000   0.0000000  -0.2336718   0.2336718
    3   0.1101833   0.1550306  -0.0884320  -0.0883909  -0.0883909
 Gradient of SCF Energy
            1           2           3           4           5
    1   0.0000540   0.0000706  -0.0006110   0.0002432   0.0002432
    2   0.0000000   0.0000000   0.0000000   0.0005073  -0.0005073
    3  -0.0047579  -0.0007983   0.0017991   0.0018785   0.0018785
 Max gradient component =       4.758E-03
 RMS gradient           =       1.518E-03
 Gradient time:  CPU 42.23 s  wall 42.58 s
 Geometry Optimization Parameters
   NAtoms,    NIC,     NZ,  NCons,   NDum,   NFix, NCnnct, MaxDiis
        5      20       5       0       0       0       0       0

 Cartesian Hessian Update
 Hessian Updated using BFGS Update


** GEOMETRY OPTIMIZATION IN DELOCALIZED INTERNAL COORDINATES **
   Searching for a Minimum

   Optimization Cycle:   3

                       Coordinates (Angstroms)
     ATOM              X           Y           Z
    1  C          -0.000247    0.000000   -0.006166
    2  H           0.000186    0.000000    1.086473
    3  F           1.235765    0.000000   -0.462711
    4  F          -0.617852   -1.070494   -0.462848
    5  F          -0.617852    1.070494   -0.462848
   Point Group: c1    Number of degrees of freedom:   9


   Energy is   -335.738323943

 Hessian Updated using BFGS Update

  6 Hessian modes will be used to form the next step
  Hessian Eigenvalues:
     0.160000    0.249986    0.335121    0.371730    0.549295    0.567560

 Minimum Search - Taking Simple RFO Step
 Searching for Lamda that Minimizes Along All modes
 Value Taken    Lamda =  -0.00007089
 Step Taken.  Stepsize is  0.013869

                             Maximum     Tolerance    Cnvgd?
         Gradient           0.003792      0.000300      NO
         Displacement       0.010411      0.001200      NO
         Energy change     -0.000102      0.000001      NO


 New Cartesian Coordinates Obtained by Inverse Iteration

 Displacement from previous Coordinates is:  0.015505
 Writing REM_CC_EA            5
 ----------------------------------------------------
       Standard Nuclear Orientation (Angstroms)
    I     Atom         X            Y            Z
 ----------------------------------------------------
    1      C      -0.000259     0.000000    -0.002222
    2      H       0.000142     0.000000     1.091329
    3      F       1.234867     0.000000    -0.465684
    4      F      -0.617375    -1.069751    -0.465761
    5      F      -0.617375     1.069751    -0.465761
 ----------------------------------------------------
 Nuclear Repulsion Energy =   135.1918075840 hartrees
 There are       17 alpha and       17 beta electrons
 Applying Cartesian multipole field
    Component          Value
    ---------          -----
     (2,0,0)        1.00000E-11
     (0,2,0)        2.00000E-11
     (0,0,2)       -3.00000E-11
 Nucleus-field energy     =     0.0000000015 hartrees
 Requested basis set is G3large
 There are 46 shells and 178 basis functions
 A cutoff of  1.0D-11 yielded   1003 shell pairs
 There are  15280 function pairs ( 19786 Cartesian)
Evaluating contribution to one-electron hamiltonian from nuclear
 Smallest overlap matrix eigenvalue = 9.11E-04
 Multipole matrices computed through 2nd order
 Guess MOs from SCF MO coefficient file
Reading MOs from coefficient file
Reading MOs from coefficient file
 A restricted hybrid HF-DFT SCF calculation will be
 performed using Pulay DIIS extrapolation
 Exchange:     1.0000 Hartree-Fock + 1.0000 BNL
 Correlation:  1.0000 LYP
 Using SG-1 standard quadrature grid
 SCF converges when DIIS error is below 1.0E-08
 ---------------------------------------
  Cycle       Energy         DIIS Error
 ---------------------------------------
    1    -335.7368099614      1.88E-04
    2    -335.7383541285      3.14E-05
    3    -335.7383576626      1.65E-05
    4    -335.7383582338      6.64E-06
    5    -335.7383584711      1.65E-06
    6    -335.7383584368      3.64E-07
    7    -335.7383584069      6.20E-08
    8    -335.7383584145      1.58E-08
    9    -335.7383584148      5.50E-09 Convergence criterion met
 ---------------------------------------
 One-Electron    Energy =  -737.3644788571
 Total Coulomb   Energy =   300.9081841181
 Alpha Exchange  Energy =    -4.4896441322
 Beta  Exchange  Energy =    -4.4896441322
 DFT   Exchange  Energy =   -24.2263165437
 DFT Correlation Energy =    -1.2682664531
 Nuclear Repu.   Energy =   135.1918075855
 Nuclear Attr.   Energy = -1072.0430165549
 Kinetic         Energy =   334.6785376978
 SCF time:  CPU 67.00 s  wall 69.76 s
 Final Alpha MO Eigenvalues
            1           2           3           4           5           6
    1 -24.3871449 -24.3871390 -24.3870372 -10.3169189  -1.5227142  -1.4155659
            7           8           9          10          11          12
    1  -1.4154320  -0.9050445  -0.8025700  -0.7810402  -0.7809804  -0.6534456
           13          14          15          16          17          18
    1  -0.6533849  -0.6114457  -0.6113677  -0.5869774  -0.5561486   0.0346456
           19          20          21          22
    1   0.0862617   0.0862928   0.0865906   0.1433661
 Analysis of SCF Wavefunction
 
 --------------------------------------------------------------
                    Orbital Energies (a.u.)
 --------------------------------------------------------------
 
 Alpha MOs
 -- Occupied --
-24.387 -24.387 -24.387 -10.317  -1.523  -1.416  -1.415  -0.905
 -0.803  -0.781  -0.781  -0.653  -0.653  -0.611  -0.611  -0.587
 -0.556
 -- Virtual --
  0.035   0.086   0.086   0.087   0.143   0.222   0.261   0.261
  0.281   0.281   0.317   0.319   0.319   0.352   0.383   0.383
  0.387   0.418   0.458   0.476   0.476   0.583   0.638   0.638
  0.724   0.882   0.882   0.957   1.083   1.170   1.170   1.254
  1.254   1.351   1.351   1.423   1.423   1.447   1.509   1.517
  1.531   1.570   1.570   1.935   1.935   2.054   2.074   2.099
  2.099   2.145   2.205   2.205   2.291   2.401   2.401   2.651
  2.652   2.687   2.754   2.838   2.839   2.920   3.337   3.337
  3.375   3.492   3.492   3.567   3.567   3.689   3.850   3.864
  3.865   3.865   3.922   4.266   4.266   4.441   4.442   5.370
  6.236   6.236   6.319   6.338   6.338   6.343   6.658   6.719
  6.719   6.728   6.740   6.740   6.741   6.757   6.757   6.781
  6.791   6.791   6.895   6.895   6.952   7.143   7.143   7.201
  7.374   7.374   7.450   7.601   7.841   7.841   9.166   9.167
  9.188   9.261   9.261   9.326   9.524   9.590   9.591   9.689
  9.844   9.909   9.909  10.154  10.154  24.772  27.897  27.898
 28.016  40.827  40.838  41.056  41.162  41.263  50.071  50.085
 50.117  50.118  50.144  50.145  50.205  50.249  50.259  50.313
 50.365  50.394  50.395  50.450  50.466  55.722  55.722  55.784
 55.796  55.796  55.821  56.142  56.293  56.293  66.964  66.964
 67.023
 --------------------------------------------------------------
 
          Ground-State Mulliken Net Atomic Charges

     Atom                 Charge (a.u.)
  ----------------------------------------
      1 C                     0.312294
      2 H                     0.197832
      3 F                    -0.169962
      4 F                    -0.170082
      5 F                    -0.170082
  ----------------------------------------
  Sum of atomic charges =     0.000000

 -----------------------------------------------------------------
                    Cartesian Multipole Moments
 -----------------------------------------------------------------
    Charge (ESU x 10^10)
                 0.0000
    Dipole Moment (Debye)
         X      -0.0015      Y       0.0000      Z       1.7606
       Tot       1.7606
    Quadrupole Moments (Debye-Ang)
        XX     -22.7373     XY       0.0000     YY     -22.7373
        XZ       0.0009     YZ       0.0000     ZZ     -20.0656
    Octapole Moments (Debye-Ang^2)
       XXX      -1.2964    XXY       0.0000    XYY       1.2976
       YYY       0.0000    XXZ       7.1416    XYZ       0.0000
       YYZ       7.1413    XZZ       0.0009    YZZ       0.0000
       ZZZ      20.2282
    Hexadecapole Moments (Debye-Ang^3)
      XXXX     -85.3137   XXXY       0.0000   XXYY     -28.4453
      XYYY       0.0000   YYYY     -85.3561   XXXZ       0.0873
      XXYZ       0.0000   XYYZ      -0.0880   YYYZ       0.0000
      XXZZ     -20.8745   XYZZ       0.0000   YYZZ     -20.8816
      XZZZ       0.0004   YZZZ       0.0000   ZZZZ     -38.1923
 -----------------------------------------------------------------
 Calculating analytic gradient of the SCF energy
 Gradient of AOints
            1           2           3           4           5
    1   0.0084000  -0.0019662 -18.1258241   9.0596952   9.0596952
    2   0.0000002  -0.0000000  -0.0000000  15.7013586 -15.7013587
    3  -5.0112836  -5.4883877   3.4986787   3.5004963   3.5004962
 Gradient of XC Energy
            1           2           3           4           5
    1   0.0000089   0.0000644   0.2685370  -0.1343051  -0.1343051
    2  -0.0000000   0.0000000   0.0000000  -0.2326435   0.2326435
    3   0.1157198   0.1552365  -0.0903678  -0.0902942  -0.0902942
 Gradient of SCF Energy
            1           2           3           4           5
    1   0.0000362   0.0000629   0.0001237  -0.0001114  -0.0001114
    2   0.0000000   0.0000000   0.0000000  -0.0001301   0.0001301
    3   0.0000957   0.0000888  -0.0001386  -0.0000229  -0.0000229
 Max gradient component =       1.386E-04
 RMS gradient           =       8.815E-05
 Gradient time:  CPU 42.18 s  wall 42.51 s
 Geometry Optimization Parameters
   NAtoms,    NIC,     NZ,  NCons,   NDum,   NFix, NCnnct, MaxDiis
        5      20       5       0       0       0       0       0

 Cartesian Hessian Update
 Hessian Updated using BFGS Update


** GEOMETRY OPTIMIZATION IN DELOCALIZED INTERNAL COORDINATES **
   Searching for a Minimum

   Optimization Cycle:   4

                       Coordinates (Angstroms)
     ATOM              X           Y           Z
    1  C          -0.000259    0.000000   -0.002222
    2  H           0.000142    0.000000    1.091329
    3  F           1.234867    0.000000   -0.465684
    4  F          -0.617375   -1.069751   -0.465761
    5  F          -0.617375    1.069751   -0.465761
   Point Group: c1    Number of degrees of freedom:   9


   Energy is   -335.738358415

 Hessian Updated using BFGS Update

  6 Hessian modes will be used to form the next step
  Hessian Eigenvalues:
     0.160003    0.249999    0.332758    0.378843    0.556325    0.567596

 Minimum Search - Taking Simple RFO Step
 Searching for Lamda that Minimizes Along All modes
 Value Taken    Lamda =   0.00000000
 Step Taken.  Stepsize is  0.000591

                             Maximum     Tolerance    Cnvgd?
         Gradient           0.000291      0.000300     YES
         Displacement       0.000567      0.001200     YES
         Energy change     -0.000034      0.000001      NO


                       Distance Matrix (Angstroms)
             C (  1)   H (  2)   F (  3)   F (  4)
   H (  2)  1.093552
   F (  3)  1.319217  1.987168
   F (  4)  1.319117  1.987518  2.138964
   F (  5)  1.319117  1.987518  2.138964  2.139503
 


 ******************************
 **  OPTIMIZATION CONVERGED  **
 ******************************
 Analysis of SCF Wavefunction
 
 --------------------------------------------------------------
                    Orbital Energies (a.u.)
 --------------------------------------------------------------
 
 Alpha MOs
 -- Occupied --
-24.387 -24.387 -24.387 -10.317  -1.523  -1.416  -1.415  -0.905
 -0.803  -0.781  -0.781  -0.653  -0.653  -0.611  -0.611  -0.587
 -0.556
 -- Virtual --
  0.035   0.086   0.086   0.087   0.143   0.222   0.261   0.261
  0.281   0.281   0.317   0.319   0.319   0.352   0.383   0.383
  0.387   0.418   0.458   0.476   0.476   0.583   0.638   0.638
  0.724   0.882   0.882   0.957   1.083   1.170   1.170   1.254
  1.254   1.351   1.351   1.423   1.423   1.447   1.509   1.517
  1.531   1.570   1.570   1.935   1.935   2.054   2.074   2.099
  2.099   2.145   2.205   2.205   2.291   2.401   2.401   2.651
  2.652   2.687   2.754   2.838   2.839   2.920   3.337   3.337
  3.375   3.492   3.492   3.567   3.567   3.689   3.850   3.864
  3.865   3.865   3.922   4.266   4.266   4.441   4.442   5.370
  6.236   6.236   6.319   6.338   6.338   6.343   6.658   6.719
  6.719   6.728   6.740   6.740   6.741   6.757   6.757   6.781
  6.791   6.791   6.895   6.895   6.952   7.143   7.143   7.201
  7.374   7.374   7.450   7.601   7.841   7.841   9.166   9.167
  9.188   9.261   9.261   9.326   9.524   9.590   9.591   9.689
  9.844   9.909   9.909  10.154  10.154  24.772  27.897  27.898
 28.016  40.827  40.838  41.056  41.162  41.263  50.071  50.085
 50.117  50.118  50.144  50.145  50.205  50.249  50.259  50.313
 50.365  50.394  50.395  50.450  50.466  55.722  55.722  55.784
 55.796  55.796  55.821  56.142  56.293  56.293  66.964  66.964
 67.023
 --------------------------------------------------------------
 
          Ground-State Mulliken Net Atomic Charges

     Atom                 Charge (a.u.)
  ----------------------------------------
      1 C                     0.312294
      2 H                     0.197832
      3 F                    -0.169962
      4 F                    -0.170082
      5 F                    -0.170082
  ----------------------------------------
  Sum of atomic charges =     0.000000

 -----------------------------------------------------------------
                    Cartesian Multipole Moments
 -----------------------------------------------------------------
    Charge (ESU x 10^10)
                 0.0000
    Dipole Moment (Debye)
         X      -0.0015      Y       0.0000      Z       1.7606
       Tot       1.7606
    Quadrupole Moments (Debye-Ang)
        XX     -22.7373     XY       0.0000     YY     -22.7373
        XZ       0.0009     YZ       0.0000     ZZ     -20.0656
    Octapole Moments (Debye-Ang^2)
       XXX      -1.2964    XXY       0.0000    XYY       1.2976
       YYY       0.0000    XXZ       7.1416    XYZ       0.0000
       YYZ       7.1413    XZZ       0.0009    YZZ       0.0000
       ZZZ      20.2282
    Hexadecapole Moments (Debye-Ang^3)
      XXXX     -85.3137   XXXY       0.0000   XXYY     -28.4453
      XYYY       0.0000   YYYY     -85.3561   XXXZ       0.0873
      XXYZ       0.0000   XYYZ      -0.0880   YYYZ       0.0000
      XXZZ     -20.8745   XYZZ       0.0000   YYZZ     -20.8816
      XZZZ       0.0004   YZZZ       0.0000   ZZZZ     -38.1923
 -----------------------------------------------------------------
 Total job time:  496.03s(wall), 482.65s(cpu) 
 Sun Apr 17 21:09:01 2011

        *************************************************************
        *                                                           *
        *  Thank you very much for using Q-Chem.  Have a nice day.  *
        *                                                           *
        *************************************************************


0 sent ACK to 0 
now end server 0 ... 
 
**********************************************************************
Job 2 of 2 
**********************************************************************
 
Process 0 of 1 is on cl146.stfx.acenet.ca - thread support 1
initial socket setup ...start
initial socket setup ...done 
now start server 0 ... 

cmd = /usr/bin/ssh clhead /usr/local/qchem/bin/get_hostid 428877228 > /scratch/tmp/4503948.1.medium.q/qchem9507/lic.dat
                  Welcome to Q-Chem
     A Quantum Leap Into The Future Of Chemistry

 Y. Shao, L. Fusti-Molnar, Y. Jung, J. Kussmann, C. Ochsenfeld,
 S. T. Brown, A. T. B. Gilbert, L. V. Slipchenko,S. V. Levchenko,
 D. P. O'Neill, R. A. DiStasio Jr., R. C. Lochan, T. Wang,
 G. J. O. Beran, N. A. Besley, J. M. Herbert, C. Y. Lin,
 T. Van Voorhis, S. H. Chien, A. Sodt, R. P. Steele, 
 V. A. Rassolov, P. E. Maslen, P. P. Korambath, R. D. Adamson,
 B. Austin, J. Baker, E. F. C. Byrd, H. Dachsel, R. J. Doerksen,
 A. Dreuw, B. D. Dunietz, A. D. Dutoi, T. R. Furlani,
 S. R. Gwaltney, A. Heyden, S. Hirata, C.-P. Hsu, G. Kedziora,
 R. Z. Khaliullin, P. Klunzinger, A. M. Lee, M. S. Lee, W. Liang,
 I. Lotan, N. Nair, B. Peters, E. I. Proynov, P. A. Pieniazek, 
 Y. M. Rhee, J. Ritchie, E. Rosta, C. D. Sherrill, 
 A. C. Simmonett, J. E. Subotnik, H. L. Woodcock III,
 W. Zhang, A. T. Bell, A. K. Chakraborty, D. M. Chipman,
 F. J. Keil, A. Warshel, W. J. Hehre, H. F. Schaefer III,
 J. Kong, A. I. Krylov, P. M. W. Gill, M. Head-Gordon,
 Q-Chem, Version 3.1, Q-Chem, Inc., Pittsburgh, PA (2007).

 Additional authors for Version 3.1: 
 Z. Gan, Y. Zhao, N. E. Schultz, D. Truhlar, E. Epifanovsky and M. Oana.

 Additional authors for Version 3.2: 
 R. Baer, B. R. Brooks, D. Casanova, J.-D. Chai, C.-L. Cheng, 
 C. Cramer, D. Crittenden, A. Ghysels, G. Hawkins, E. G. Hohenstein, 
 C. Kelley, W. Kurlancheek, D. Liotard, E. Livshits, P. Manohar, 
 A. Marenich, D. Neuhauser, R. Olson, M. A. Rohrdanz, K. S. Thanthiriwatte, 
 A. J. W. Thom, V. Vanovschi, C. F. Williams, Q. Wu and Z.-Q. You. 


 Intel X86 Linux Version

 Q-chem begins on Sun Apr 17 21:09:04 2011  

 Parallel job on  1  processors
Processing $rem in /usr/local/qchem/config/preferences.

theFileMan(): MAXOPENFILES=974 MAX_SUB_FILE_NUM=16
Maximum size of a physical file is 2.0 GB, maximum size of a tmp-file is 32.0 GB


--------------------------------------------------------------
User input:
--------------------------------------------------------------

$molecule 
READ 
$end 

$xc_functional
   X HF 1.0
   X BNL 1.0
   C LYP 1.0
$end

$rem
SYMMETRY_DECOMPOSITION	0
exchange 		general
BASIS                   g3large
omega			530 
JOBTYPE                 freq
IDERIV 0
SCF_GUESS READ
separate_jk		true
mem_static              760
max_scf_cycles          200
scf_final_print         1
sym_ignore              true
$end

--------------------------------------------------------------
 Writing REM_CC_EA            5
 ----------------------------------------------------
       Standard Nuclear Orientation (Angstroms)
    I     Atom         X            Y            Z
 ----------------------------------------------------
    1      C      -0.000259     0.000000    -0.002222
    2      H       0.000142     0.000000     1.091329
    3      F       1.234867     0.000000    -0.465684
    4      F      -0.617375    -1.069751    -0.465761
    5      F      -0.617375     1.069751    -0.465761
 ----------------------------------------------------
 Nuclear Repulsion Energy =   135.1918075840 hartrees
 There are       17 alpha and       17 beta electrons
 Requested basis set is G3large
 There are 46 shells and 178 basis functions

Total QAlloc Memory Limit   2000 MB
Mega-Array Size       759 MB
MEM_STATIC part       760 MB

                       Distance Matrix (Angstroms)
             C (  1)   H (  2)   F (  3)   F (  4)
   H (  2)  1.093552
   F (  3)  1.319217  1.987168
   F (  4)  1.319117  1.987518  2.138964
   F (  5)  1.319117  1.987518  2.138964  2.139503
 
 A cutoff of  1.0D-11 yielded   1003 shell pairs
 There are  15280 function pairs ( 19786 Cartesian)
Evaluating contribution to one-electron hamiltonian from nuclear
 Smallest overlap matrix eigenvalue = 9.11E-04
 Multipole matrices computed through 2nd order
 Guess MOs from SCF MO coefficient file
Reading MOs from coefficient file
Reading MOs from coefficient file
 A restricted hybrid HF-DFT SCF calculation will be
 performed using Pulay DIIS extrapolation
 Exchange:     1.0000 Hartree-Fock + 1.0000 BNL
 Correlation:  1.0000 LYP
 Using SG-1 standard quadrature grid
 SCF converges when DIIS error is below 1.0E-08
 ---------------------------------------
  Cycle       Energy         DIIS Error
 ---------------------------------------
    1    -335.7383584243      2.58E-09
    2    -335.7383584244      2.71E-09 Convergence criterion met
 ---------------------------------------
 One-Electron    Energy =  -737.3644789391
 Total Coulomb   Energy =   300.9081842026
 Alpha Exchange  Energy =    -4.4896441336
 Beta  Exchange  Energy =    -4.4896441336
 DFT   Exchange  Energy =   -24.2263165505
 DFT Correlation Energy =    -1.2682664541
 Nuclear Repu.   Energy =   135.1918075840
 Nuclear Attr.   Energy = -1072.0430165261
 Kinetic         Energy =   334.6785375870
 SCF time:  CPU 17.27 s  wall 18.08 s
 Final Alpha MO Eigenvalues
            1           2           3           4           5           6
    1 -24.3871449 -24.3871390 -24.3870370 -10.3169189  -1.5227142  -1.4155659
            7           8           9          10          11          12
    1  -1.4154320  -0.9050445  -0.8025700  -0.7810402  -0.7809804  -0.6534456
           13          14          15          16          17          18
    1  -0.6533849  -0.6114457  -0.6113677  -0.5869774  -0.5561486   0.0346456
           19          20          21          22
    1   0.0862617   0.0862928   0.0865906   0.1433661
 Analysis of SCF Wavefunction
 
 --------------------------------------------------------------
                    Orbital Energies (a.u.)
 --------------------------------------------------------------
 
 Alpha MOs
 -- Occupied --
-24.387 -24.387 -24.387 -10.317  -1.523  -1.416  -1.415  -0.905
 -0.803  -0.781  -0.781  -0.653  -0.653  -0.611  -0.611  -0.587
 -0.556
 -- Virtual --
  0.035   0.086   0.086   0.087   0.143   0.222   0.261   0.261
  0.281   0.281   0.317   0.319   0.319   0.352   0.383   0.383
  0.387   0.418   0.458   0.476   0.476   0.583   0.638   0.638
  0.724   0.882   0.882   0.957   1.083   1.170   1.170   1.254
  1.254   1.351   1.351   1.423   1.423   1.447   1.509   1.517
  1.531   1.570   1.570   1.935   1.935   2.054   2.074   2.099
  2.099   2.145   2.205   2.205   2.291   2.401   2.401   2.651
  2.652   2.687   2.754   2.838   2.839   2.920   3.337   3.337
  3.375   3.492   3.492   3.567   3.567   3.689   3.850   3.864
  3.865   3.865   3.922   4.266   4.266   4.441   4.442   5.370
  6.236   6.236   6.319   6.338   6.338   6.343   6.658   6.719
  6.719   6.728   6.740   6.740   6.741   6.757   6.757   6.781
  6.791   6.791   6.895   6.895   6.952   7.143   7.143   7.201
  7.374   7.374   7.450   7.601   7.841   7.841   9.166   9.167
  9.188   9.261   9.261   9.326   9.524   9.590   9.591   9.689
  9.844   9.909   9.909  10.154  10.154  24.772  27.897  27.898
 28.016  40.827  40.838  41.056  41.162  41.263  50.071  50.085
 50.117  50.118  50.144  50.145  50.205  50.249  50.259  50.313
 50.365  50.394  50.395  50.450  50.466  55.722  55.722  55.784
 55.796  55.796  55.821  56.142  56.293  56.293  66.964  66.964
 67.023
 --------------------------------------------------------------
 
          Ground-State Mulliken Net Atomic Charges

     Atom                 Charge (a.u.)
  ----------------------------------------
      1 C                     0.312294
      2 H                     0.197832
      3 F                    -0.169962
      4 F                    -0.170082
      5 F                    -0.170082
  ----------------------------------------
  Sum of atomic charges =     0.000000

 -----------------------------------------------------------------
                    Cartesian Multipole Moments
 -----------------------------------------------------------------
    Charge (ESU x 10^10)
                 0.0000
    Dipole Moment (Debye)
         X      -0.0015      Y       0.0000      Z       1.7606
       Tot       1.7606
    Quadrupole Moments (Debye-Ang)
        XX     -22.7373     XY       0.0000     YY     -22.7373
        XZ       0.0009     YZ       0.0000     ZZ     -20.0656
    Octapole Moments (Debye-Ang^2)
       XXX      -1.2964    XXY       0.0000    XYY       1.2976
       YYY       0.0000    XXZ       7.1416    XYZ       0.0000
       YYZ       7.1413    XZZ       0.0009    YZZ       0.0000
       ZZZ      20.2282
    Hexadecapole Moments (Debye-Ang^3)
      XXXX     -85.3137   XXXY       0.0000   XXYY     -28.4453
      XYYY       0.0000   YYYY     -85.3561   XXXZ       0.0873
      XXYZ       0.0000   XYYZ      -0.0880   YYYZ       0.0000
      XXZZ     -20.8745   XYZZ       0.0000   YYZZ     -20.8816
      XZZZ       0.0004   YZZZ       0.0000   ZZZZ     -38.1923
 -----------------------------------------------------------------
 No analytic derivatives required
 ######################################################
 ######################################################
 # Starting finite difference calculation for IDERIV  #
 Finite diff step size: 1.89e-03 a.u.
 Writing REM_CC_EA            5
 ----------------------------------------------------
       Standard Nuclear Orientation (Angstroms)
    I     Atom         X            Y            Z
 ----------------------------------------------------
    1      C       0.001741     0.000000    -0.002222
    2      H       0.000142     0.000000     1.091329
    3      F       1.234867     0.000000    -0.465684
    4      F      -0.617375    -1.069751    -0.465761
    5      F      -0.617375     1.069751    -0.465761
 ----------------------------------------------------
 Nuclear Repulsion Energy =   135.1918435145 hartrees
 There are       17 alpha and       17 beta electrons

                       Distance Matrix (Angstroms)
             C (  1)   H (  2)   F (  3)   F (  4)
   H (  2)  1.093553
   F (  3)  1.317345  1.987168
   F (  4)  1.320053  1.987518  2.138964
   F (  5)  1.320053  1.987518  2.138964  2.139503
 
 Requested basis set is G3large
 There are 46 shells and 178 basis functions
 A cutoff of  1.0D-11 yielded   1003 shell pairs
 There are  15280 function pairs ( 19786 Cartesian)
Evaluating contribution to one-electron hamiltonian from nuclear
 Smallest overlap matrix eigenvalue = 9.11E-04
 Multipole matrices computed through 2nd order
 Guess MOs from SCF MO coefficient file
Reading MOs from coefficient file
Reading MOs from coefficient file
 A restricted hybrid HF-DFT SCF calculation will be
 performed using Pulay DIIS extrapolation
 Exchange:     1.0000 Hartree-Fock + 1.0000 BNL
 Correlation:  1.0000 LYP
 Using SG-1 standard quadrature grid
 SCF converges when DIIS error is below 1.0E-08
 ---------------------------------------
  Cycle       Energy         DIIS Error
 ---------------------------------------
    1    -335.7383509313      8.38E-05
    2    -335.7383528555      2.27E-05
    3    -335.7383535014      1.90E-05
    4    -335.7383542072      2.23E-06
    5    -335.7383542885      5.36E-07
    6    -335.7383542060      8.71E-08
    7    -335.7383542189      1.50E-08
    8    -335.7383542186      6.64E-09 Convergence criterion met
 ---------------------------------------
 One-Electron    Energy =  -737.3645346275
 Total Coulomb   Energy =   300.9082092320
 Alpha Exchange  Energy =    -4.4896439974
 Beta  Exchange  Energy =    -4.4896439974
 DFT   Exchange  Energy =   -24.2263180104
 DFT Correlation Energy =    -1.2682663324
 Nuclear Repu.   Energy =   135.1918435145
 Nuclear Attr.   Energy = -1072.0430901662
 Kinetic         Energy =   334.6785555387
 SCF time:  CPU 59.93 s  wall 62.27 s
 Final Alpha MO Eigenvalues
            1           2           3           4           5           6
    1 -24.3877712 -24.3867782 -24.3867719 -10.3169191  -1.5227223  -1.4160827
            7           8           9          10          11          12
    1  -1.4149093  -0.9050456  -0.8025741  -0.7811615  -0.7808625  -0.6534840
           13          14          15          16          17          18
    1  -0.6533468  -0.6116668  -0.6111450  -0.5869729  -0.5561472   0.0346456
           19          20          21          22
    1   0.0862675   0.0862856   0.0865917   0.1433661
 Analysis of SCF Wavefunction
 
 --------------------------------------------------------------
                    Orbital Energies (a.u.)
 --------------------------------------------------------------
 
 Alpha MOs
 -- Occupied --
-24.388 -24.387 -24.387 -10.317  -1.523  -1.416  -1.415  -0.905
 -0.803  -0.781  -0.781  -0.653  -0.653  -0.612  -0.611  -0.587
 -0.556
 -- Virtual --
  0.035   0.086   0.086   0.087   0.143   0.222   0.261   0.261
  0.281   0.281   0.317   0.319   0.319   0.352   0.383   0.383
  0.387   0.418   0.458   0.476   0.476   0.583   0.637   0.638
  0.724   0.882   0.882   0.957   1.083   1.169   1.170   1.254
  1.254   1.351   1.351   1.423   1.423   1.447   1.509   1.517
  1.531   1.570   1.570   1.935   1.936   2.054   2.074   2.099
  2.099   2.145   2.205   2.206   2.291   2.400   2.402   2.650
  2.653   2.687   2.754   2.839   2.839   2.920   3.337   3.338
  3.375   3.491   3.493   3.565   3.568   3.689   3.850   3.864
  3.865   3.866   3.922   4.266   4.266   4.441   4.442   5.370
  6.235   6.236   6.319   6.338   6.338   6.343   6.658   6.719
  6.719   6.728   6.739   6.740   6.741   6.757   6.757   6.781
  6.791   6.791   6.895   6.895   6.952   7.143   7.143   7.201
  7.372   7.376   7.450   7.601   7.839   7.843   9.166   9.167
  9.188   9.261   9.261   9.326   9.524   9.590   9.591   9.689
  9.844   9.908   9.909  10.154  10.155  24.772  27.897  27.898
 28.016  40.827  40.838  41.056  41.163  41.262  50.070  50.085
 50.117  50.118  50.144  50.145  50.205  50.249  50.258  50.313
 50.365  50.394  50.395  50.450  50.466  55.722  55.722  55.784
 55.796  55.796  55.821  56.142  56.291  56.295  66.964  66.964
 67.023
 --------------------------------------------------------------
 
          Ground-State Mulliken Net Atomic Charges

     Atom                 Charge (a.u.)
  ----------------------------------------
      1 C                     0.312288
      2 H                     0.197833
      3 F                    -0.168407
      4 F                    -0.170857
      5 F                    -0.170857
  ----------------------------------------
  Sum of atomic charges =     0.000000

 -----------------------------------------------------------------
                    Cartesian Multipole Moments
 -----------------------------------------------------------------
    Charge (ESU x 10^10)
                 0.0000
    Dipole Moment (Debye)
         X       0.0164      Y       0.0000      Z       1.7606
       Tot       1.7607
    Quadrupole Moments (Debye-Ang)
        XX     -22.7284     XY       0.0000     YY     -22.7461
        XZ      -0.0061     YZ       0.0000     ZZ     -20.0656
    Octapole Moments (Debye-Ang^2)
       XXX      -1.2912    XXY       0.0000    XYY       1.2993
       YYY       0.0000    XXZ       7.1375    XYZ       0.0000
       YYZ       7.1454    XZZ      -0.0006    YZZ       0.0000
       ZZZ      20.2282
    Hexadecapole Moments (Debye-Ang^3)
      XXXX     -85.2769   XXXY       0.0000   XXYY     -28.4423
      XYYY       0.0000   YYYY     -85.3991   XXXZ       0.0761
      XXYZ       0.0000   XYYZ      -0.0918   YYYZ       0.0000
      XXZZ     -20.8670   XYZZ       0.0000   YYZZ     -20.8891
      XZZZ      -0.0135   YZZZ       0.0000   ZZZZ     -38.1923
 -----------------------------------------------------------------
 Writing REM_CC_EA            5
 ----------------------------------------------------
       Standard Nuclear Orientation (Angstroms)
    I     Atom         X            Y            Z
 ----------------------------------------------------
    1      C      -0.000259     0.000000    -0.002222
    2      H       0.000142     0.000000     1.091329
    3      F       1.234867     0.000000    -0.465684
    4      F      -0.617375    -1.069751    -0.465761
    5      F      -0.617375     1.069751    -0.465761
 ----------------------------------------------------
 Nuclear Repulsion Energy =   135.1918075840 hartrees
 There are       17 alpha and       17 beta electrons

                       Distance Matrix (Angstroms)
             C (  1)   H (  2)   F (  3)   F (  4)
   H (  2)  1.093552
   F (  3)  1.319217  1.987168
   F (  4)  1.319117  1.987518  2.138964
   F (  5)  1.319117  1.987518  2.138964  2.139503
 
 Requested basis set is G3large
 There are 46 shells and 178 basis functions
 A cutoff of  1.0D-11 yielded   1003 shell pairs
 There are  15280 function pairs ( 19786 Cartesian)
Evaluating contribution to one-electron hamiltonian from nuclear
 Smallest overlap matrix eigenvalue = 9.11E-04
 Multipole matrices computed through 2nd order
 Guess MOs from SCF MO coefficient file
Reading MOs from coefficient file
Reading MOs from coefficient file
 A restricted hybrid HF-DFT SCF calculation will be
 performed using Pulay DIIS extrapolation
 Exchange:     1.0000 Hartree-Fock + 1.0000 BNL
 Correlation:  1.0000 LYP
 Using SG-1 standard quadrature grid
 SCF converges when DIIS error is below 1.0E-08
 ---------------------------------------
  Cycle       Energy         DIIS Error
 ---------------------------------------
    1    -335.7383618211      8.38E-05
    2    -335.7383571080      2.27E-05
    3    -335.7383576835      1.90E-05
    4    -335.7383583567      2.23E-06
    5    -335.7383583023      5.35E-07
    6    -335.7383583899      8.67E-08
    7    -335.7383583768      1.38E-08
    8    -335.7383583775      2.60E-09 Convergence criterion met
 ---------------------------------------
 One-Electron    Energy =  -737.3644784466
 Total Coulomb   Energy =   300.9081836378
 Alpha Exchange  Energy =    -4.4896441300
 Beta  Exchange  Energy =    -4.4896441300
 DFT   Exchange  Energy =   -24.2263164432
 DFT Correlation Energy =    -1.2682664495
 Nuclear Repu.   Energy =   135.1918075840
 Nuclear Attr.   Energy = -1072.0430153851
 Kinetic         Energy =   334.6785369384
 SCF time:  CPU 59.32 s  wall 61.68 s
 Final Alpha MO Eigenvalues
            1           2           3           4           5           6
    1 -24.3871450 -24.3871391 -24.3870371 -10.3169189  -1.5227142  -1.4155659
            7           8           9          10          11          12
    1  -1.4154320  -0.9050445  -0.8025701  -0.7810403  -0.7809804  -0.6534456
           13          14          15          16          17          18
    1  -0.6533849  -0.6114457  -0.6113677  -0.5869774  -0.5561486   0.0346456
           19          20          21          22
    1   0.0862617   0.0862928   0.0865906   0.1433661
 Analysis of SCF Wavefunction
 
 --------------------------------------------------------------
                    Orbital Energies (a.u.)
 --------------------------------------------------------------
 
 Alpha MOs
 -- Occupied --
-24.387 -24.387 -24.387 -10.317  -1.523  -1.416  -1.415  -0.905
 -0.803  -0.781  -0.781  -0.653  -0.653  -0.611  -0.611  -0.587
 -0.556
 -- Virtual --
  0.035   0.086   0.086   0.087   0.143   0.222   0.261   0.261
  0.281   0.281   0.317   0.319   0.319   0.352   0.383   0.383
  0.387   0.418   0.458   0.476   0.476   0.583   0.638   0.638
  0.724   0.882   0.882   0.957   1.083   1.170   1.170   1.254
  1.254   1.351   1.351   1.423   1.423   1.447   1.509   1.517
  1.531   1.570   1.570   1.935   1.935   2.054   2.074   2.099
  2.099   2.145   2.205   2.205   2.291   2.401   2.401   2.651
  2.652   2.687   2.754   2.838   2.839   2.920   3.337   3.337
  3.375   3.492   3.492   3.567   3.567   3.689   3.850   3.864
  3.865   3.865   3.922   4.266   4.266   4.441   4.442   5.370
  6.236   6.236   6.319   6.338   6.338   6.343   6.658   6.719
  6.719   6.728   6.740   6.740   6.741   6.757   6.757   6.781
  6.791   6.791   6.895   6.895   6.952   7.143   7.143   7.201
  7.374   7.374   7.450   7.601   7.841   7.841   9.166   9.167
  9.188   9.261   9.261   9.326   9.524   9.590   9.591   9.689
  9.844   9.909   9.909  10.154  10.154  24.772  27.897  27.898
 28.016  40.827  40.838  41.056  41.162  41.263  50.071  50.085
 50.117  50.118  50.144  50.145  50.205  50.249  50.259  50.313
 50.365  50.394  50.395  50.450  50.466  55.722  55.722  55.784
 55.796  55.796  55.821  56.142  56.293  56.293  66.964  66.964
 67.023
 --------------------------------------------------------------
 
          Ground-State Mulliken Net Atomic Charges

     Atom                 Charge (a.u.)
  ----------------------------------------
      1 C                     0.312294
      2 H                     0.197832
      3 F                    -0.169962
      4 F                    -0.170082
      5 F                    -0.170082
  ----------------------------------------
  Sum of atomic charges =     0.000000

 -----------------------------------------------------------------
                    Cartesian Multipole Moments
 -----------------------------------------------------------------
    Charge (ESU x 10^10)
                 0.0000
    Dipole Moment (Debye)
         X      -0.0015      Y       0.0000      Z       1.7606
       Tot       1.7606
    Quadrupole Moments (Debye-Ang)
        XX     -22.7373     XY       0.0000     YY     -22.7373
        XZ       0.0009     YZ       0.0000     ZZ     -20.0656
    Octapole Moments (Debye-Ang^2)
       XXX      -1.2964    XXY       0.0000    XYY       1.2976
       YYY       0.0000    XXZ       7.1416    XYZ       0.0000
       YYZ       7.1413    XZZ       0.0009    YZZ       0.0000
       ZZZ      20.2282
    Hexadecapole Moments (Debye-Ang^3)
      XXXX     -85.3137   XXXY       0.0000   XXYY     -28.4453
      XYYY       0.0000   YYYY     -85.3561   XXXZ       0.0873
      XXYZ       0.0000   XYYZ      -0.0880   YYYZ       0.0000
      XXZZ     -20.8745   XYZZ       0.0000   YYZZ     -20.8816
      XZZZ       0.0004   YZZZ       0.0000   ZZZZ     -38.1923
 -----------------------------------------------------------------
 Writing REM_CC_EA            5
 ----------------------------------------------------
       Standard Nuclear Orientation (Angstroms)
    I     Atom         X            Y            Z
 ----------------------------------------------------
    1      C       0.000741     0.001000    -0.002222
    2      H       0.000142     0.000000     1.091329
    3      F       1.234867     0.000000    -0.465684
    4      F      -0.617375    -1.069751    -0.465761
    5      F      -0.617375     1.069751    -0.465761
 ----------------------------------------------------
 Nuclear Repulsion Energy =   135.1918254851 hartrees
 There are       17 alpha and       17 beta electrons

                       Distance Matrix (Angstroms)
             C (  1)   H (  2)   F (  3)   F (  4)
   H (  2)  1.093552
   F (  3)  1.318281  1.987168
   F (  4)  1.320396  1.987518  2.138964
   F (  5)  1.318774  1.987518  2.138964  2.139503
 
 Requested basis set is G3large
 There are 46 shells and 178 basis functions
 A cutoff of  1.0D-11 yielded   1003 shell pairs
 There are  15280 function pairs ( 19786 Cartesian)
Evaluating contribution to one-electron hamiltonian from nuclear
 Smallest overlap matrix eigenvalue = 9.11E-04
 Multipole matrices computed through 2nd order
 Guess MOs from SCF MO coefficient file
Reading MOs from coefficient file
Reading MOs from coefficient file
 A restricted hybrid HF-DFT SCF calculation will be
 performed using Pulay DIIS extrapolation
 Exchange:     1.0000 Hartree-Fock + 1.0000 BNL
 Correlation:  1.0000 LYP
 Using SG-1 standard quadrature grid
 SCF converges when DIIS error is below 1.0E-08
 ---------------------------------------
  Cycle       Energy         DIIS Error
 ---------------------------------------
    1    -335.7383546732      5.92E-05
    2    -335.7383556372      1.60E-05
    3    -335.7383559813      1.34E-05
    4    -335.7383563249      1.58E-06
    5    -335.7383563200      3.78E-07
    6    -335.7383562989      6.14E-08
    7    -335.7383562988      1.03E-08
    8    -335.7383562992      4.11E-09 Convergence criterion met
 ---------------------------------------
 One-Electron    Energy =  -737.3645065928
 Total Coulomb   Energy =   300.9081965702
 Alpha Exchange  Energy =    -4.4896440649
 Beta  Exchange  Energy =    -4.4896440649
 DFT   Exchange  Energy =   -24.2263172411
 DFT Correlation Energy =    -1.2682663907
 Nuclear Repu.   Energy =   135.1918254851
 Nuclear Attr.   Energy = -1072.0430530227
 Kinetic         Energy =   334.6785464298
 SCF time:  CPU 58.30 s  wall 60.56 s
 Final Alpha MO Eigenvalues
            1           2           3           4           5           6
    1 -24.3874041 -24.3872762 -24.3866409 -10.3169190  -1.5227182  -1.4159186
            7           8           9          10          11          12
    1  -1.4150763  -0.9050451  -0.8025721  -0.7811206  -0.7809018  -0.6534695
           13          14          15          16          17          18
    1  -0.6533611  -0.6115951  -0.6112176  -0.5869751  -0.5561479   0.0346456
           19          20          21          22
    1   0.0862685   0.0862850   0.0865914   0.1433661
 Analysis of SCF Wavefunction
 
 --------------------------------------------------------------
                    Orbital Energies (a.u.)
 --------------------------------------------------------------
 
 Alpha MOs
 -- Occupied --
-24.387 -24.387 -24.387 -10.317  -1.523  -1.416  -1.415  -0.905
 -0.803  -0.781  -0.781  -0.653  -0.653  -0.612  -0.611  -0.587
 -0.556
 -- Virtual --
  0.035   0.086   0.086   0.087   0.143   0.222   0.261   0.261
  0.281   0.281   0.317   0.319   0.319   0.352   0.383   0.383
  0.387   0.418   0.458   0.476   0.476   0.583   0.638   0.638
  0.724   0.882   0.882   0.957   1.083   1.169   1.170   1.254
  1.254   1.351   1.351   1.423   1.423   1.447   1.509   1.517
  1.531   1.570   1.570   1.935   1.936   2.054   2.074   2.099
  2.099   2.145   2.205   2.205   2.291   2.400   2.402   2.651
  2.653   2.687   2.754   2.839   2.839   2.920   3.337   3.338
  3.375   3.492   3.492   3.566   3.567   3.689   3.850   3.864
  3.865   3.866   3.922   4.266   4.266   4.441   4.442   5.370
  6.235   6.236   6.319   6.338   6.338   6.343   6.658   6.719
  6.719   6.728   6.739   6.740   6.741   6.757   6.757   6.781
  6.791   6.791   6.895   6.895   6.952   7.143   7.143   7.201
  7.372   7.375   7.450   7.601   7.840   7.843   9.166   9.167
  9.188   9.261   9.261   9.326   9.524   9.590   9.591   9.689
  9.844   9.908   9.909  10.154  10.155  24.772  27.897  27.898
 28.016  40.827  40.838  41.056  41.163  41.262  50.070  50.085
 50.117  50.118  50.144  50.145  50.205  50.249  50.259  50.313
 50.365  50.394  50.395  50.450  50.466  55.722  55.722  55.784
 55.796  55.796  55.821  56.142  56.292  56.295  66.964  66.964
 67.023
 --------------------------------------------------------------
 
          Ground-State Mulliken Net Atomic Charges

     Atom                 Charge (a.u.)
  ----------------------------------------
      1 C                     0.312291
      2 H                     0.197833
      3 F                    -0.169185
      4 F                    -0.171140
      5 F                    -0.169798
  ----------------------------------------
  Sum of atomic charges =     0.000000

 -----------------------------------------------------------------
                    Cartesian Multipole Moments
 -----------------------------------------------------------------
    Charge (ESU x 10^10)
                 0.0000
    Dipole Moment (Debye)
         X       0.0075      Y       0.0090      Z       1.7606
       Tot       1.7606
    Quadrupole Moments (Debye-Ang)
        XX     -22.7328     XY      -0.0044     YY     -22.7417
        XZ      -0.0026     YZ      -0.0035     ZZ     -20.0656
    Octapole Moments (Debye-Ang^2)
       XXX      -1.2938    XXY       0.0009    XYY       1.2984
       YYY       0.0026    XXZ       7.1396    XYZ       0.0020
       YYZ       7.1433    XZZ       0.0002    YZZ      -0.0007
       ZZZ      20.2282
    Hexadecapole Moments (Debye-Ang^3)
      XXXX     -85.2953   XXXY      -0.0115   XXYY     -28.4438
      XYYY      -0.0085   YYYY     -85.3776   XXXZ       0.0817
      XXYZ      -0.0019   XYYZ      -0.0899   YYYZ      -0.0056
      XXZZ     -20.8707   XYZZ      -0.0037   YYZZ     -20.8853
      XZZZ      -0.0065   YZZZ      -0.0070   ZZZZ     -38.1923
 -----------------------------------------------------------------
 Writing REM_CC_EA            5
 ----------------------------------------------------
       Standard Nuclear Orientation (Angstroms)
    I     Atom         X            Y            Z
 ----------------------------------------------------
    1      C       0.000741    -0.001000    -0.002222
    2      H       0.000142     0.000000     1.091329
    3      F       1.234867     0.000000    -0.465684
    4      F      -0.617375    -1.069751    -0.465761
    5      F      -0.617375     1.069751    -0.465761
 ----------------------------------------------------
 Nuclear Repulsion Energy =   135.1918254846 hartrees
 There are       17 alpha and       17 beta electrons

                       Distance Matrix (Angstroms)
             C (  1)   H (  2)   F (  3)   F (  4)
   H (  2)  1.093552
   F (  3)  1.318281  1.987168
   F (  4)  1.318774  1.987518  2.138964
   F (  5)  1.320396  1.987518  2.138964  2.139503
 
 Requested basis set is G3large
 There are 46 shells and 178 basis functions
 A cutoff of  1.0D-11 yielded   1003 shell pairs
 There are  15280 function pairs ( 19786 Cartesian)
Evaluating contribution to one-electron hamiltonian from nuclear
 Smallest overlap matrix eigenvalue = 9.11E-04
 Multipole matrices computed through 2nd order
 Guess MOs from SCF MO coefficient file
Reading MOs from coefficient file
Reading MOs from coefficient file
 A restricted hybrid HF-DFT SCF calculation will be
 performed using Pulay DIIS extrapolation
 Exchange:     1.0000 Hartree-Fock + 1.0000 BNL
 Correlation:  1.0000 LYP
 Using SG-1 standard quadrature grid
 SCF converges when DIIS error is below 1.0E-08
 ---------------------------------------
  Cycle       Energy         DIIS Error
 ---------------------------------------
    1    -335.7383563409      8.37E-05
    2    -335.7383549862      2.27E-05
    3    -335.7383556056      1.90E-05
    4    -335.7383562790      2.23E-06
    5    -335.7383563023      5.35E-07
    6    -335.7383563166      8.67E-08
    7    -335.7383563038      1.43E-08
    8    -335.7383563042      5.24E-09 Convergence criterion met
 ---------------------------------------
 One-Electron    Energy =  -737.3645064768
 Total Coulomb   Energy =   300.9081964385
 Alpha Exchange  Energy =    -4.4896440641
 Beta  Exchange  Energy =    -4.4896440641
 DFT   Exchange  Energy =   -24.2263172314
 DFT Correlation Energy =    -1.2682663908
 Nuclear Repu.   Energy =   135.1918254846
 Nuclear Attr.   Energy = -1072.0430527557
 Kinetic         Energy =   334.6785462790
 SCF time:  CPU 59.21 s  wall 61.34 s
 Final Alpha MO Eigenvalues
            1           2           3           4           5           6
    1 -24.3874042 -24.3872761 -24.3866408 -10.3169190  -1.5227182  -1.4159187
            7           8           9          10          11          12
    1  -1.4150763  -0.9050451  -0.8025721  -0.7811206  -0.7809018  -0.6534695
           13          14          15          16          17          18
    1  -0.6533611  -0.6115951  -0.6112176  -0.5869751  -0.5561479   0.0346456
           19          20          21          22
    1   0.0862685   0.0862850   0.0865914   0.1433661
 Analysis of SCF Wavefunction
 
 --------------------------------------------------------------
                    Orbital Energies (a.u.)
 --------------------------------------------------------------
 
 Alpha MOs
 -- Occupied --
-24.387 -24.387 -24.387 -10.317  -1.523  -1.416  -1.415  -0.905
 -0.803  -0.781  -0.781  -0.653  -0.653  -0.612  -0.611  -0.587
 -0.556
 -- Virtual --
  0.035   0.086   0.086   0.087   0.143   0.222   0.261   0.261
  0.281   0.281   0.317   0.319   0.319   0.352   0.383   0.383
  0.387   0.418   0.458   0.476   0.476   0.583   0.638   0.638
  0.724   0.882   0.882   0.957   1.083   1.169   1.170   1.254
  1.254   1.351   1.351   1.423   1.423   1.447   1.509   1.517
  1.531   1.570   1.570   1.935   1.936   2.054   2.074   2.099
  2.099   2.145   2.205   2.205   2.291   2.400   2.402   2.651
  2.653   2.687   2.754   2.839   2.839   2.920   3.337   3.338
  3.375   3.492   3.492   3.566   3.567   3.689   3.850   3.864
  3.865   3.866   3.922   4.266   4.266   4.441   4.442   5.370
  6.235   6.236   6.319   6.338   6.338   6.343   6.658   6.719
  6.719   6.728   6.739   6.740   6.741   6.757   6.757   6.781
  6.791   6.791   6.895   6.895   6.952   7.143   7.143   7.201
  7.372   7.375   7.450   7.601   7.840   7.843   9.166   9.167
  9.188   9.261   9.261   9.326   9.524   9.590   9.591   9.689
  9.844   9.908   9.909  10.154  10.155  24.772  27.897  27.898
 28.016  40.827  40.838  41.056  41.163  41.262  50.070  50.085
 50.117  50.118  50.144  50.145  50.205  50.249  50.259  50.313
 50.365  50.394  50.395  50.450  50.466  55.722  55.722  55.784
 55.796  55.796  55.821  56.142  56.292  56.295  66.964  66.964
 67.023
 --------------------------------------------------------------
 
          Ground-State Mulliken Net Atomic Charges

     Atom                 Charge (a.u.)
  ----------------------------------------
      1 C                     0.312291
      2 H                     0.197832
      3 F                    -0.169185
      4 F                    -0.169798
      5 F                    -0.171140
  ----------------------------------------
  Sum of atomic charges =     0.000000

 -----------------------------------------------------------------
                    Cartesian Multipole Moments
 -----------------------------------------------------------------
    Charge (ESU x 10^10)
                 0.0000
    Dipole Moment (Debye)
         X       0.0075      Y      -0.0090      Z       1.7606
       Tot       1.7606
    Quadrupole Moments (Debye-Ang)
        XX     -22.7328     XY       0.0044     YY     -22.7417
        XZ      -0.0026     YZ       0.0035     ZZ     -20.0656
    Octapole Moments (Debye-Ang^2)
       XXX      -1.2938    XXY      -0.0009    XYY       1.2984
       YYY      -0.0026    XXZ       7.1396    XYZ      -0.0020
       YYZ       7.1433    XZZ       0.0002    YZZ       0.0007
       ZZZ      20.2282
    Hexadecapole Moments (Debye-Ang^3)
      XXXX     -85.2953   XXXY       0.0115   XXYY     -28.4438
      XYYY       0.0085   YYYY     -85.3776   XXXZ       0.0817
      XXYZ       0.0019   XYYZ      -0.0899   YYYZ       0.0056
      XXZZ     -20.8707   XYZZ       0.0037   YYZZ     -20.8853
      XZZZ      -0.0065   YZZZ       0.0070   ZZZZ     -38.1923
 -----------------------------------------------------------------
 Writing REM_CC_EA            5
 ----------------------------------------------------
       Standard Nuclear Orientation (Angstroms)
    I     Atom         X            Y            Z
 ----------------------------------------------------
    1      C       0.000741     0.000000    -0.001222
    2      H       0.000142     0.000000     1.091329
    3      F       1.234867     0.000000    -0.465684
    4      F      -0.617375    -1.069751    -0.465761
    5      F      -0.617375     1.069751    -0.465761
 ----------------------------------------------------
 Nuclear Repulsion Energy =   135.1771566265 hartrees
 There are       17 alpha and       17 beta electrons

                       Distance Matrix (Angstroms)
             C (  1)   H (  2)   F (  3)   F (  4)
   H (  2)  1.092552
   F (  3)  1.318633  1.987168
   F (  4)  1.319936  1.987518  2.138964
   F (  5)  1.319936  1.987518  2.138964  2.139503
 
 Requested basis set is G3large
 There are 46 shells and 178 basis functions
 A cutoff of  1.0D-11 yielded   1003 shell pairs
 There are  15280 function pairs ( 19786 Cartesian)
Evaluating contribution to one-electron hamiltonian from nuclear
 Smallest overlap matrix eigenvalue = 9.11E-04
 Multipole matrices computed through 2nd order
 Guess MOs from SCF MO coefficient file
Reading MOs from coefficient file
Reading MOs from coefficient file
 A restricted hybrid HF-DFT SCF calculation will be
[...]
 DFT   Exchange  Energy =   -24.2266517113
 DFT Correlation Energy =    -1.2682874947
 Nuclear Repu.   Energy =   135.2052066484
 Nuclear Attr.   Energy = -1072.0696279764
 Kinetic         Energy =   334.6801845843
 SCF time:  CPU 57.69 s  wall 66.05 s
 Final Alpha MO Eigenvalues
            1           2           3           4           5           6
    1 -24.3872960 -24.3871111 -24.3870063 -10.3168421  -1.5228328  -1.4158093
            7           8           9          10          11          12
    1  -1.4154312  -0.9050341  -0.8026294  -0.7811740  -0.7810572  -0.6535190
           13          14          15          16          17          18
    1  -0.6534126  -0.6115887  -0.6114080  -0.5870343  -0.5559803   0.0346700
           19          20          21          22
    1   0.0862793   0.0863169   0.0865764   0.1433689
 Analysis of SCF Wavefunction
 
 --------------------------------------------------------------
                    Orbital Energies (a.u.)
 --------------------------------------------------------------
 
 Alpha MOs
 -- Occupied --
-24.387 -24.387 -24.387 -10.317  -1.523  -1.416  -1.415  -0.905
 -0.803  -0.781  -0.781  -0.654  -0.653  -0.612  -0.611  -0.587
 -0.556
 -- Virtual --
  0.035   0.086   0.086   0.087   0.143   0.222   0.261   0.261
  0.281   0.281   0.317   0.319   0.319   0.352   0.383   0.383
  0.387   0.418   0.458   0.476   0.476   0.584   0.638   0.638
  0.724   0.882   0.882   0.957   1.083   1.170   1.170   1.254
  1.254   1.351   1.351   1.423   1.423   1.447   1.509   1.517
  1.531   1.570   1.570   1.935   1.936   2.055   2.074   2.098
  2.099   2.145   2.205   2.205   2.290   2.401   2.402   2.652
  2.653   2.687   2.754   2.839   2.840   2.920   3.337   3.337
  3.376   3.492   3.492   3.566   3.567   3.689   3.851   3.864
  3.865   3.866   3.923   4.266   4.266   4.441   4.442   5.370
  6.236   6.236   6.319   6.338   6.338   6.343   6.658   6.719
  6.719   6.728   6.739   6.740   6.741   6.757   6.757   6.781
  6.791   6.791   6.895   6.895   6.952   7.143   7.143   7.202
  7.374   7.375   7.451   7.602   7.842   7.843   9.166   9.167
  9.188   9.261   9.261   9.326   9.525   9.591   9.591   9.689
  9.844   9.909   9.909  10.154  10.155  24.773  27.897  27.898
 28.016  40.827  40.838  41.056  41.163  41.263  50.071  50.085
 50.117  50.118  50.144  50.145  50.205  50.249  50.259  50.313
 50.365  50.394  50.395  50.450  50.466  55.722  55.722  55.784
 55.796  55.796  55.821  56.143  56.293  56.294  66.964  66.964
 67.023
 --------------------------------------------------------------
 
          Ground-State Mulliken Net Atomic Charges

     Atom                 Charge (a.u.)
  ----------------------------------------
      1 C                     0.312202
      2 H                     0.197630
      3 F                    -0.170040
      4 F                    -0.170159
      5 F                    -0.169634
  ----------------------------------------
  Sum of atomic charges =     0.000000

 -----------------------------------------------------------------
                    Cartesian Multipole Moments
 -----------------------------------------------------------------
    Charge (ESU x 10^10)
                 0.0000
    Dipole Moment (Debye)
         X      -0.0029      Y       0.0025      Z       1.7569
       Tot       1.7569
    Quadrupole Moments (Debye-Ang)
        XX     -22.7364     XY      -0.0013     YY     -22.7349
        XZ       0.0023     YZ      -0.0024     ZZ     -20.0651
    Octapole Moments (Debye-Ang^2)
       XXX      -1.2993    XXY       0.0020    XYY       1.2958
       YYY       0.0060    XXZ       7.1310    XYZ       0.0015
       YYZ       7.1290    XZZ      -0.0013    YZZ       0.0038
       ZZZ      20.1934
    Hexadecapole Moments (Debye-Ang^3)
      XXXX     -85.3114   XXXY      -0.0035   XXYY     -28.4429
      XYYY      -0.0039   YYYY     -85.3453   XXXZ       0.1075
      XXYZ      -0.0116   XYYZ      -0.0814   YYYZ      -0.0347
      XXZZ     -20.8657   XYZZ      -0.0012   YYZZ     -20.8715
      XZZZ       0.0197   YZZZ      -0.0334   ZZZZ     -38.1410
 -----------------------------------------------------------------
 Writing REM_CC_EA            5
 ----------------------------------------------------
       Standard Nuclear Orientation (Angstroms)
    I     Atom         X            Y            Z
 ----------------------------------------------------
    1      C      -0.000259     0.000000    -0.002222
    2      H       0.000142     0.000000     1.091329
    3      F       1.234867     0.000000    -0.465684
    4      F      -0.617375    -1.069751    -0.465761
    5      F      -0.617375     1.069751    -0.467761
 ----------------------------------------------------
 Nuclear Repulsion Energy =   135.1783441842 hartrees
 There are       17 alpha and       17 beta electrons

                       Distance Matrix (Angstroms)
             C (  1)   H (  2)   F (  3)   F (  4)
   H (  2)  1.093552
   F (  3)  1.319217  1.987168
   F (  4)  1.319117  1.987518  2.138964
   F (  5)  1.319821  1.989085  2.138965  2.139504
 
 Requested basis set is G3large
 There are 46 shells and 178 basis functions
 A cutoff of  1.0D-11 yielded   1003 shell pairs
 There are  15280 function pairs ( 19786 Cartesian)
Evaluating contribution to one-electron hamiltonian from nuclear
 Smallest overlap matrix eigenvalue = 9.12E-04
 Multipole matrices computed through 2nd order
 Guess MOs from SCF MO coefficient file
Reading MOs from coefficient file
Reading MOs from coefficient file
 A restricted hybrid HF-DFT SCF calculation will be
 performed using Pulay DIIS extrapolation
 Exchange:     1.0000 Hartree-Fock + 1.0000 BNL
 Correlation:  1.0000 LYP
 Using SG-1 standard quadrature grid
 SCF converges when DIIS error is below 1.0E-08
 ---------------------------------------
  Cycle       Energy         DIIS Error
 ---------------------------------------
    1    -335.7378477832      7.05E-05
    2    -335.7383569931      1.18E-05
    3    -335.7383573571      7.66E-06
    4    -335.7383574886      2.46E-06
    5    -335.7383575226      5.59E-07
    6    -335.7383574943      1.53E-07
    7    -335.7383575064      5.03E-08
    8    -335.7383575053      1.51E-08
    9    -335.7383575066      3.03E-09 Convergence criterion met
 ---------------------------------------
 One-Electron    Energy =  -737.3393842982
 Total Coulomb   Energy =   300.8961259498
 Alpha Exchange  Energy =    -4.4896086786
 Beta  Exchange  Energy =    -4.4896086786
 DFT   Exchange  Energy =   -24.2259806390
 DFT Correlation Energy =    -1.2682453462
 Nuclear Repu.   Energy =   135.1783441842
 Nuclear Attr.   Energy = -1072.0162739655
 Kinetic         Energy =   334.6768896673
 SCF time:  CPU 64.31 s  wall 73.09 s
 Final Alpha MO Eigenvalues
            1           2           3           4           5           6
    1 -24.3871732 -24.3870683 -24.3869873 -10.3169960  -1.5225961  -1.4155047
            7           8           9          10          11          12
    1  -1.4152497  -0.9050553  -0.8025109  -0.7809394  -0.7808707  -0.6533953
           13          14          15          16          17          18
    1  -0.6533337  -0.6113713  -0.6112587  -0.5869201  -0.5563165   0.0346213
           19          20          21          22
    1   0.0862428   0.0862694   0.0866051   0.1433633
 Analysis of SCF Wavefunction
 
 --------------------------------------------------------------
                    Orbital Energies (a.u.)
 --------------------------------------------------------------
 
 Alpha MOs
 -- Occupied --
-24.387 -24.387 -24.387 -10.317  -1.523  -1.416  -1.415  -0.905
 -0.803  -0.781  -0.781  -0.653  -0.653  -0.611  -0.611  -0.587
 -0.556
 -- Virtual --
  0.035   0.086   0.086   0.087   0.143   0.222   0.261   0.261
  0.281   0.281   0.317   0.319   0.319   0.352   0.383   0.383
  0.387   0.418   0.458   0.476   0.476   0.583   0.637   0.638
  0.724   0.882   0.882   0.957   1.083   1.170   1.170   1.254
  1.254   1.350   1.351   1.423   1.423   1.448   1.510   1.517
  1.531   1.570   1.570   1.935   1.936   2.054   2.074   2.099
  2.099   2.146   2.205   2.206   2.291   2.400   2.401   2.651
  2.652   2.687   2.754   2.837   2.838   2.920   3.337   3.337
  3.375   3.492   3.492   3.566   3.567   3.689   3.849   3.864
  3.865   3.865   3.922   4.266   4.266   4.441   4.442   5.370
  6.236   6.236   6.319   6.338   6.338   6.343   6.658   6.719
  6.719   6.728   6.740   6.740   6.741   6.757   6.757   6.781
  6.791   6.791   6.895   6.895   6.952   7.143   7.143   7.201
  7.373   7.374   7.449   7.599   7.840   7.841   9.166   9.167
  9.188   9.261   9.261   9.325   9.524   9.590   9.590   9.690
  9.844   9.908   9.909  10.154  10.154  24.770  27.897  27.897
 28.016  40.827  40.838  41.056  41.162  41.262  50.071  50.085
 50.117  50.118  50.144  50.145  50.205  50.249  50.259  50.313
 50.365  50.394  50.394  50.450  50.466  55.722  55.722  55.784
 55.796  55.796  55.821  56.142  56.292  56.293  66.964  66.964
 67.023
 --------------------------------------------------------------
 
          Ground-State Mulliken Net Atomic Charges

     Atom                 Charge (a.u.)
  ----------------------------------------
      1 C                     0.312386
      2 H                     0.198032
      3 F                    -0.169884
      4 F                    -0.170004
      5 F                    -0.170530
  ----------------------------------------
  Sum of atomic charges =     0.000000

 -----------------------------------------------------------------
                    Cartesian Multipole Moments
 -----------------------------------------------------------------
    Charge (ESU x 10^10)
                 0.0000
    Dipole Moment (Debye)
         X      -0.0001      Y      -0.0025      Z       1.7643
       Tot       1.7643
    Quadrupole Moments (Debye-Ang)
        XX     -22.7381     XY       0.0013     YY     -22.7396
        XZ      -0.0005     YZ       0.0024     ZZ     -20.0661
    Octapole Moments (Debye-Ang^2)
       XXX      -1.2934    XXY      -0.0020    XYY       1.2993
       YYY      -0.0061    XXZ       7.1521    XYZ      -0.0015
       YYZ       7.1537    XZZ       0.0031    YZZ      -0.0038
       ZZZ      20.2631
    Hexadecapole Moments (Debye-Ang^3)
      XXXX     -85.3160   XXXY       0.0035   XXYY     -28.4477
      XYYY       0.0039   YYYY     -85.3670   XXXZ       0.0672
      XXYZ       0.0116   XYYZ      -0.0947   YYYZ       0.0348
      XXZZ     -20.8832   XYZZ       0.0012   YYZZ     -20.8917
      XZZZ      -0.0189   YZZZ       0.0334   ZZZZ     -38.2438
 -----------------------------------------------------------------
 Writing REM_CC_EA            5
 ----------------------------------------------------
       Standard Nuclear Orientation (Angstroms)
    I     Atom         X            Y            Z
 ----------------------------------------------------
    1      C      -0.000259     0.000000    -0.002222
    2      H       0.000142     0.000000     1.091329
    3      F       1.234867     0.000000    -0.465684
    4      F      -0.617375    -1.069751    -0.465761
    5      F      -0.617375     1.069751    -0.465761
 ----------------------------------------------------
 Nuclear Repulsion Energy =   135.1918075840 hartrees
 There are       17 alpha and       17 beta electrons
FINAL TENSOR RESULT:
Order 2, Length 15
Order 1, Length 15
   0.5643418  -0.0000982  -0.0002582  -0.0503055   0.0000094  -0.0000257  -0.2730279   0.0000279   0.1013799  -0.1261082  -0.0854012  -0.0504131  -0.1253075   0.0854673  -0.0508041
Order 1, Length 15
  -0.0000982   0.5635979  -0.0000048  -0.0000038  -0.0502284   0.0000462   0.0000001  -0.0772927  -0.0001427  -0.0849042  -0.2267487  -0.0883965   0.0849043  -0.2248240   0.0879247
Order 1, Length 15
  -0.0002582  -0.0000048   0.7874062   0.0059153  -0.0000115  -0.3315988   0.1145028   0.0000236  -0.1551121  -0.0580631  -0.1006988  -0.1534715  -0.0580633   0.1009875  -0.1538397
Order 1, Length 15
  -0.0503055  -0.0000038   0.0059153   0.0552645   0.0008846   0.0000422  -0.0207922   0.0000000   0.0434931   0.0022015  -0.0132620  -0.0216995   0.0021957   0.0132657  -0.0217015
Order 1, Length 15
   0.0000094  -0.0502284  -0.0000115   0.0008846   0.0611192   0.0000062   0.0000023   0.0098604   0.0000055  -0.0132744  -0.0131238  -0.0376236   0.0132622  -0.0131228   0.0376310
Order 1, Length 15
  -0.0000257   0.0000462  -0.3315988   0.0000422   0.0000062   0.3481992   0.0089897   0.0000058  -0.0082696  -0.0053007  -0.0091315  -0.0081821  -0.0053015   0.0091460  -0.0081877
Order 1, Length 15
  -0.2730279   0.0000001   0.1145028  -0.0207922   0.0000023   0.0089897   0.4208177  -0.0053561  -0.1278157  -0.0633495  -0.0433518   0.0007514  -0.0642154   0.0426505   0.0007290
Order 1, Length 15
   0.0000279  -0.0772927   0.0000236   0.0000000   0.0098604   0.0000058  -0.0053561   0.0812634   0.0000038  -0.0531826  -0.0086198   0.0094540   0.0531901  -0.0086269  -0.0094270
Order 1, Length 15
   0.1013799  -0.0001427  -0.1551121   0.0434931   0.0000055  -0.0082696  -0.1278157   0.0000038   0.1081075  -0.0080339   0.0040467   0.0233013  -0.0084112  -0.0040376   0.0233067
Order 1, Length 15
  -0.1261082  -0.0849042  -0.0580631   0.0022015  -0.0132744  -0.0053007  -0.0633495  -0.0531826  -0.0080339   0.1689496   0.1523001   0.0641409   0.0194368   0.0050724   0.0077518
Order 1, Length 15
  -0.0854012  -0.2267487  -0.1006988  -0.0132620  -0.0131238  -0.0091315  -0.0433518  -0.0086198   0.0040467   0.1523001   0.3294559   0.1126555  -0.0050484  -0.0915918  -0.0052923
Order 1, Length 15
  -0.0504131  -0.0883965  -0.1534715  -0.0216995  -0.0376236  -0.0081821   0.0007514   0.0094540   0.0233013   0.0641409   0.1126555   0.1073808   0.0091401   0.0052682   0.0233702
Order 1, Length 15
  -0.1253075   0.0849043  -0.0580633   0.0021957   0.0132622  -0.0053015  -0.0642154   0.0531901  -0.0084112   0.0194368  -0.0050484   0.0091401   0.1649177  -0.1410681   0.0640497
Order 1, Length 15
   0.0854673  -0.2248240   0.1009875   0.0132657  -0.0131228   0.0091460   0.0426505  -0.0086269  -0.0040376   0.0050724  -0.0915918   0.0052682  -0.1410681   0.3312290  -0.1126538
Order 1, Length 15
  -0.0508041   0.0879247  -0.1538397  -0.0217015   0.0376310  -0.0081877   0.0007290  -0.0094270   0.0233067   0.0077518  -0.0052923   0.0233702   0.0640497  -0.1126538   0.1140190


 # Finishing finite difference calculation for IDERIV #
 ######################################################
 ######################################################
 Requested basis set is G3large
 There are 46 shells and 178 basis functions
 **********************************************************************
 **                                                                  **
 **                       VIBRATIONAL ANALYSIS                       **
 **                       --------------------                       **
 **                                                                  **
 **        VIBRATIONAL FREQUENCIES (CM**-1) AND NORMAL MODES         **
 **     FORCE CONSTANTS (mDYN/ANGSTROM) AND REDUCED MASSES (AMU)     **
 **                                                                  **
 **********************************************************************
 

 Mode:                 1                      2                      3
 Frequency:       512.29                 522.30                 723.39
 Force Cnst:      1.8944                 2.0803                 3.9661
 Red. Mass:      12.2517                12.9430                12.8639
 IR Active:          YES                    YES                    YES
 Raman Active:       YES                    YES                    YES
               X      Y      Z        X      Y      Z        X      Y      Z
 C         -0.232  0.097  0.000   -0.102 -0.240  0.002    0.003 -0.005 -0.467
 H         -0.551  0.215 -0.002   -0.231 -0.507  0.001    0.070 -0.009 -0.501
 F         -0.339 -0.192 -0.061   -0.147  0.474 -0.027    0.403  0.003  0.111
 F          0.402 -0.292  0.009   -0.247 -0.295  0.065   -0.206 -0.350  0.106
 F          0.112  0.411  0.052    0.470  0.000 -0.040   -0.203  0.350  0.105
 TransDip   0.000  0.000  0.000    0.000  0.000  0.000    0.000  0.000  0.000

 Mode:                 4                      5                      6
 Frequency:      1185.57                1205.35                1219.23
 Force Cnst:      2.2265                 3.5635                 2.5389
 Red. Mass:       2.6886                 4.1629                 2.8988
 IR Active:          YES                    YES                    YES
 Raman Active:       YES                    YES                    YES
               X      Y      Z        X      Y      Z        X      Y      Z
 C          0.174 -0.019 -0.210    0.192 -0.069  0.340    0.057  0.296  0.038
 H          0.903 -0.105 -0.225    0.754 -0.247  0.367    0.184  0.907  0.041
 F         -0.182  0.000  0.116    0.001  0.001 -0.014   -0.017 -0.005  0.009
 F          0.017  0.022  0.021   -0.066 -0.112 -0.091   -0.078 -0.139 -0.093
 F          0.007 -0.005  0.008   -0.096  0.168 -0.129    0.049 -0.092  0.058
 TransDip   0.000  0.000  0.000    0.000  0.000  0.000    0.000  0.000  0.000

 Mode:                 7                      8                      9
 Frequency:      1345.96                1376.88                3147.49
 Force Cnst:      2.1639                 1.7409                 6.3888
 Red. Mass:       2.0273                 1.5586                 1.0946
 IR Active:          YES                    YES                    YES
 Raman Active:       YES                    YES                    YES
               X      Y      Z        X      Y      Z        X      Y      Z
 C          0.282 -0.042 -0.019   -0.032 -0.211  0.002    0.000  0.000 -0.089
 H         -0.943  0.144 -0.022    0.146  0.965  0.002   -0.001  0.000  0.996
 F         -0.065  0.004  0.007    0.006  0.019  0.001    0.000  0.000  0.001
 F         -0.030 -0.005  0.003    0.010  0.033 -0.009    0.000  0.000  0.001
 F         -0.034  0.020  0.003   -0.003  0.031  0.007    0.000  0.000  0.001
 TransDip   0.000  0.000  0.000    0.000  0.000  0.000    0.000  0.000  0.000

 STANDARD THERMODYNAMIC QUANTITIES AT   298.18 K  AND     1.00 ATM

   This Molecule has  0 Imaginary Frequencies
   Zero point vibrational energy:       16.066 kcal/mol

   Atom    1 Element C  Has Mass   12.00000
   Atom    2 Element H  Has Mass    1.00783
   Atom    3 Element F  Has Mass   18.99840
   Atom    4 Element F  Has Mass   18.99840
   Atom    5 Element F  Has Mass   18.99840
   Molecular Mass:    70.003030 amu
   Principal axes and moments of inertia in atomic units:
                             1           2           3
    Eigenvalues --      170.51198   170.61618   310.45221
          X               0.00001     1.00000    -0.00002
          Y               1.00000    -0.00001     0.00000
          Z               0.00000     0.00002     1.00000
   Rotational Symmetry Number is   1
   The Molecule is an Asymmetric Top
   Translational Enthalpy:        0.889 kcal/mol
   Rotational Enthalpy:           0.889 kcal/mol
   Vibrational Enthalpy:         16.439 kcal/mol
   gas constant (RT):             0.593 kcal/mol
   Translational Entropy:        38.655  cal/mol.K
   Rotational Entropy:           23.717  cal/mol.K
   Vibrational Entropy:           1.678  cal/mol.K

   Total Enthalpy:               18.809 kcal/mol
   Total Entropy:                64.050  cal/mol.K
 Total job time:  29775.47s(wall), 26228.02s(cpu) 
 Mon Apr 18 05:25:20 2011

        *************************************************************
        *                                                           *
        *  Thank you very much for using Q-Chem.  Have a nice day.  *
        *                                                           *
        *************************************************************


0 sent ACK to 0 
now end server 0 ... 
