Process 0 of 1 is on cl225.stfx.acenet.ca - thread support 1
initial socket setup ...start
initial socket setup ...done 
now start server 0 ... 

cmd = /usr/bin/ssh clhead /usr/local/qchem/bin/get_hostid 2644645 > /scratch/tmp/4825314.1.medium.q/qchem14943/lic.dat
                  Welcome to Q-Chem
     A Quantum Leap Into The Future Of Chemistry

 Y. Shao, L. Fusti-Molnar, Y. Jung, J. Kussmann, C. Ochsenfeld,
 S. T. Brown, A. T. B. Gilbert, L. V. Slipchenko,S. V. Levchenko,
 D. P. O'Neill, R. A. DiStasio Jr., R. C. Lochan, T. Wang,
 G. J. O. Beran, N. A. Besley, J. M. Herbert, C. Y. Lin,
 T. Van Voorhis, S. H. Chien, A. Sodt, R. P. Steele, 
 V. A. Rassolov, P. E. Maslen, P. P. Korambath, R. D. Adamson,
 B. Austin, J. Baker, E. F. C. Byrd, H. Dachsel, R. J. Doerksen,
 A. Dreuw, B. D. Dunietz, A. D. Dutoi, T. R. Furlani,
 S. R. Gwaltney, A. Heyden, S. Hirata, C.-P. Hsu, G. Kedziora,
 R. Z. Khaliullin, P. Klunzinger, A. M. Lee, M. S. Lee, W. Liang,
 I. Lotan, N. Nair, B. Peters, E. I. Proynov, P. A. Pieniazek, 
 Y. M. Rhee, J. Ritchie, E. Rosta, C. D. Sherrill, 
 A. C. Simmonett, J. E. Subotnik, H. L. Woodcock III,
 W. Zhang, A. T. Bell, A. K. Chakraborty, D. M. Chipman,
 F. J. Keil, A. Warshel, W. J. Hehre, H. F. Schaefer III,
 J. Kong, A. I. Krylov, P. M. W. Gill, M. Head-Gordon,
 Q-Chem, Version 3.1, Q-Chem, Inc., Pittsburgh, PA (2007).

 Additional authors for Version 3.1: 
 Z. Gan, Y. Zhao, N. E. Schultz, D. Truhlar, E. Epifanovsky and M. Oana.

 Additional authors for Version 3.2: 
 R. Baer, B. R. Brooks, D. Casanova, J.-D. Chai, C.-L. Cheng, 
 C. Cramer, D. Crittenden, A. Ghysels, G. Hawkins, E. G. Hohenstein, 
 C. Kelley, W. Kurlancheek, D. Liotard, E. Livshits, P. Manohar, 
 A. Marenich, D. Neuhauser, R. Olson, M. A. Rohrdanz, K. S. Thanthiriwatte, 
 A. J. W. Thom, V. Vanovschi, C. F. Williams, Q. Wu and Z.-Q. You. 


 Intel X86 Linux Version

 Q-chem begins on Mon Nov 14 15:05:11 2011  

 Parallel job on  1  processors
Processing $rem in /usr/local/qchem/config/preferences.

theFileMan(): MAXOPENFILES=974 MAX_SUB_FILE_NUM=16
Maximum size of a physical file is 2.0 GB, maximum size of a tmp-file is 32.0 GB


--------------------------------------------------------------
User input:
--------------------------------------------------------------

$molecule
-1,1
S
H,1,R

R=1.35543613

$end

$comment
negative
$end

$xc_functional
   X HF 1.0
   X BNL 1.0
   C LYP 1.0
$end

$rem
SYMMETRY_DECOMPOSITION	0
exchange 		general
BASIS                   g3large
omega			500
separate_jk		true
mem_static              760
max_scf_cycles          200
scf_final_print         1
sym_ignore              true
$end

--------------------------------------------------------------
 Writing REM_CC_EA            2
 ----------------------------------------------------
       Standard Nuclear Orientation (Angstroms)
    I     Atom         X            Y            Z
 ----------------------------------------------------
    1      S       0.000000     0.000000     0.000000
    2      H       0.000000     0.000000     1.355436
 ----------------------------------------------------
 Nuclear Repulsion Energy =     6.2465764232 hartrees
 There are        9 alpha and        9 beta electrons
 Requested basis set is G3large
 There are 25 shells and 76 basis functions

Total QAlloc Memory Limit   2000 MB
Mega-Array Size       743 MB
MEM_STATIC part       760 MB

                       Distance Matrix (Angstroms)
             S (  1)
   H (  2)  1.355436
 
 A cutoff of  1.0D-08 yielded    325 shell pairs
 There are   3056 function pairs (  4227 Cartesian)
Evaluating contribution to one-electron hamiltonian from nuclear
 Smallest overlap matrix eigenvalue = 3.71E-03
 Multipole matrices computed through 2nd order

  Scale SEOQF with 1.000000e-01/1.000000e-01/1.000000e-01

 Standard Electronic Orientation quadrupole field applied
 Nucleus-field energy     =    -0.0000000002 hartrees
 Guess from superposition of atomic densities
 Warning:  Energy on first SCF cycle will be non-variational
 A restricted hybrid HF-DFT SCF calculation will be
 performed using Pulay DIIS extrapolation
 Exchange:     1.0000 Hartree-Fock + 1.0000 BNL
 Correlation:  1.0000 LYP
 Using SG-1 standard quadrature grid
 SCF converges when DIIS error is below 1.0E-05
 Warning!  Inaccurate integrated density:
   Number of electrons =    18
   Numerical integral  =    17.000017771455
   Relative error      =    -5.5554568253 %
 ---------------------------------------
  Cycle       Energy         DIIS Error
 ---------------------------------------
    1    -396.8883537483      3.10E-02
    2    -397.0755317712      7.25E-03
    3    -397.1214916227      5.48E-03
    4    -397.1372695216      5.86E-04
    5    -397.1375777954      1.51E-04
    6    -397.1376285193      3.19E-05
    7    -397.1376314069      8.16E-06 Convergence criterion met
 ---------------------------------------
 One-Electron    Energy =  -567.9200066656
 Total Coulomb   Energy =   189.0083842071
 Alpha Exchange  Energy =    -2.1841117982
 Beta  Exchange  Energy =    -2.1841117982
 DFT   Exchange  Energy =   -19.4054991498
 DFT Correlation Energy =    -0.6988626252
 Nuclear Repu.   Energy =     6.2465764230
 Nuclear Attr.   Energy =  -964.3090446420
 Kinetic         Energy =   396.3890379763
 SCF time:  CPU 8.34 s  wall 28.89 s
 Final Alpha MO Eigenvalues
            1           2           3           4           5           6
    1 -87.6528785  -7.6004744  -5.6465247  -5.6387441  -5.6387356  -0.5870408
            7           8           9          10          11          12
    1  -0.2449013  -0.1035230  -0.1034906   0.1841572   0.2525175   0.2638337
           13          14
    1   0.2638463   0.3119719
 Analysis of SCF Wavefunction
 
 --------------------------------------------------------------
                    Orbital Energies (a.u.)
 --------------------------------------------------------------
 
 Alpha MOs
 -- Occupied --
-87.653  -7.600  -5.647  -5.639  -5.639  -0.587  -0.245  -0.104
 -0.103
 -- Virtual --
  0.184   0.253   0.264   0.264   0.312   0.390   0.568   0.568
  0.578   0.596   0.596   0.707   0.732   0.732   0.892   1.142
  1.142   1.162   1.241   1.265   1.265   1.284   1.284   1.374
  1.374   1.410   1.411   1.530   1.594   1.594   1.875   2.190
  2.190   2.410   3.139   3.716   3.822   3.822   3.912   3.912
  3.926   3.926   4.372   4.372   4.679   4.955   4.958   4.974
  4.974   5.658   8.434  17.415  17.415  17.563  23.827  23.938
 23.938  23.939  24.085  31.315  31.315  31.320  31.320  31.322
 31.322  31.334 189.478
 --------------------------------------------------------------
 
          Ground-State Mulliken Net Atomic Charges

     Atom                 Charge (a.u.)
  ----------------------------------------
      1 S                    -1.041473
      2 H                     0.041473
  ----------------------------------------
  Sum of atomic charges =    -1.000000

 -----------------------------------------------------------------
                    Cartesian Multipole Moments
 -----------------------------------------------------------------
    Charge (ESU x 10^10)
                -4.8032
    Dipole Moment (Debye)
         X      -0.0002      Y       0.0003      Z       0.3404
       Tot       0.3404
    Quadrupole Moments (Debye-Ang)
        XX     -21.4413     XY      -0.0020     YY     -21.4412
        XZ       0.0000     YZ       0.0000     ZZ     -17.0836
    Octapole Moments (Debye-Ang^2)
       XXX      -0.0006    XXY       0.0004    XYY      -0.0002
       YYY       0.0013    XXZ      -1.3043    XYZ      -0.0001
       YYZ      -1.3043    XZZ      -0.0008    YZZ       0.0016
       ZZZ      -3.4907
    Hexadecapole Moments (Debye-Ang^3)
      XXXX     -49.2031   XXXY      -0.0097   XXYY     -16.4010
      XYYY      -0.0097   YYYY     -49.2025   XXXZ      -0.0002
      XXYZ       0.0002   XYYZ      -0.0001   YYYZ       0.0005
      XXZZ     -15.2371   XYZZ      -0.0032   YYZZ     -15.2370
      XZZZ      -0.0006   YZZZ       0.0012   ZZZZ     -39.8220
 -----------------------------------------------------------------
 Total job time:  29.43s(wall), 8.43s(cpu) 
 Mon Nov 14 15:05:40 2011

        *************************************************************
        *                                                           *
        *  Thank you very much for using Q-Chem.  Have a nice day.  *
        *                                                           *
        *************************************************************


0 sent ACK to 0 
now end server 0 ... 
 
**********************************************************************
Job 2 of 3 
**********************************************************************
 
Process 0 of 1 is on cl225.stfx.acenet.ca - thread support 1
initial socket setup ...start
initial socket setup ...done 
now start server 0 ... 

cmd = /usr/bin/ssh clhead /usr/local/qchem/bin/get_hostid 1776253188 > /scratch/tmp/4825314.1.medium.q/qchem14943/lic.dat
                  Welcome to Q-Chem
     A Quantum Leap Into The Future Of Chemistry

 Y. Shao, L. Fusti-Molnar, Y. Jung, J. Kussmann, C. Ochsenfeld,
 S. T. Brown, A. T. B. Gilbert, L. V. Slipchenko,S. V. Levchenko,
 D. P. O'Neill, R. A. DiStasio Jr., R. C. Lochan, T. Wang,
 G. J. O. Beran, N. A. Besley, J. M. Herbert, C. Y. Lin,
 T. Van Voorhis, S. H. Chien, A. Sodt, R. P. Steele, 
 V. A. Rassolov, P. E. Maslen, P. P. Korambath, R. D. Adamson,
 B. Austin, J. Baker, E. F. C. Byrd, H. Dachsel, R. J. Doerksen,
 A. Dreuw, B. D. Dunietz, A. D. Dutoi, T. R. Furlani,
 S. R. Gwaltney, A. Heyden, S. Hirata, C.-P. Hsu, G. Kedziora,
 R. Z. Khaliullin, P. Klunzinger, A. M. Lee, M. S. Lee, W. Liang,
 I. Lotan, N. Nair, B. Peters, E. I. Proynov, P. A. Pieniazek, 
 Y. M. Rhee, J. Ritchie, E. Rosta, C. D. Sherrill, 
 A. C. Simmonett, J. E. Subotnik, H. L. Woodcock III,
 W. Zhang, A. T. Bell, A. K. Chakraborty, D. M. Chipman,
 F. J. Keil, A. Warshel, W. J. Hehre, H. F. Schaefer III,
 J. Kong, A. I. Krylov, P. M. W. Gill, M. Head-Gordon,
 Q-Chem, Version 3.1, Q-Chem, Inc., Pittsburgh, PA (2007).

 Additional authors for Version 3.1: 
 Z. Gan, Y. Zhao, N. E. Schultz, D. Truhlar, E. Epifanovsky and M. Oana.

 Additional authors for Version 3.2: 
 R. Baer, B. R. Brooks, D. Casanova, J.-D. Chai, C.-L. Cheng, 
 C. Cramer, D. Crittenden, A. Ghysels, G. Hawkins, E. G. Hohenstein, 
 C. Kelley, W. Kurlancheek, D. Liotard, E. Livshits, P. Manohar, 
 A. Marenich, D. Neuhauser, R. Olson, M. A. Rohrdanz, K. S. Thanthiriwatte, 
 A. J. W. Thom, V. Vanovschi, C. F. Williams, Q. Wu and Z.-Q. You. 


 Intel X86 Linux Version

 Q-chem begins on Mon Nov 14 15:05:45 2011  

 Parallel job on  1  processors
Processing $rem in /usr/local/qchem/config/preferences.

theFileMan(): MAXOPENFILES=974 MAX_SUB_FILE_NUM=16
Maximum size of a physical file is 2.0 GB, maximum size of a tmp-file is 32.0 GB


--------------------------------------------------------------
User input:
--------------------------------------------------------------

$molecule
0,2
S
H,1,R

R=1.35543613

$end

$comment
neutral
$end

$xc_functional
   X HF 1.0
   X BNL 1.0
   C LYP 1.0
$end

$rem
SYMMETRY_DECOMPOSITION	0
exchange 		general
BASIS                   g3large
omega			500
separate_jk		true
mem_static              760
max_scf_cycles          200
scf_final_print         1
sym_ignore              true
$end

--------------------------------------------------------------
 Writing REM_CC_EA            2
 ----------------------------------------------------
       Standard Nuclear Orientation (Angstroms)
    I     Atom         X            Y            Z
 ----------------------------------------------------
    1      S       0.000000     0.000000     0.000000
    2      H       0.000000     0.000000     1.355436
 ----------------------------------------------------
 Nuclear Repulsion Energy =     6.2465764232 hartrees
 There are        9 alpha and        8 beta electrons
 Requested basis set is G3large
 There are 25 shells and 76 basis functions

Total QAlloc Memory Limit   2000 MB
Mega-Array Size       743 MB
MEM_STATIC part       760 MB

                       Distance Matrix (Angstroms)
             S (  1)
   H (  2)  1.355436
 
 A cutoff of  1.0D-08 yielded    325 shell pairs
 There are   3056 function pairs (  4227 Cartesian)
Evaluating contribution to one-electron hamiltonian from nuclear
 Smallest overlap matrix eigenvalue = 3.71E-03
 Multipole matrices computed through 2nd order

  Scale SEOQF with 1.000000e-01/1.000000e-01/1.000000e-01

 Standard Electronic Orientation quadrupole field applied
 Nucleus-field energy     =    -0.0000000002 hartrees
 Guess from superposition of atomic densities
 Warning:  Energy on first SCF cycle will be non-variational
 An unrestricted hybrid HF-DFT SCF calculation will be
 performed using Pulay DIIS extrapolation
 Exchange:     1.0000 Hartree-Fock + 1.0000 BNL
 Correlation:  1.0000 LYP
 Using SG-1 standard quadrature grid
 SCF converges when DIIS error is below 1.0E-05
 ---------------------------------------
  Cycle       Energy         DIIS Error
 ---------------------------------------
    1    -396.8883537483      3.10E-02
    2    -397.0460784370      2.57E-03
    3    -397.0542219802      1.14E-03
    4    -397.0551391690      2.07E-04
    5    -397.0552887876      6.91E-05
    6    -397.0553123988      2.09E-05
    7    -397.0553144715      5.51E-06 Convergence criterion met
 ---------------------------------------
 One-Electron    Energy =  -562.5127847584
 Total Coulomb   Energy =   183.4639620538
 Alpha Exchange  Energy =    -2.2215926168
 Beta  Exchange  Energy =    -2.0022935354
 DFT   Exchange  Energy =   -19.3618983113
 DFT Correlation Energy =    -0.6672837264
 Nuclear Repu.   Energy =     6.2465764230
 Nuclear Attr.   Energy =  -958.8249189998
 Kinetic         Energy =   396.3121342414
 <S^2> = 0.7546
 SCF time:  CPU 9.20 s  wall 22.05 s
 Final Alpha MO Eigenvalues
            1           2           3           4           5           6
    1 -87.9837357  -7.9300980  -5.9809529  -5.9719604  -5.9626797  -0.9120349
            7           8           9          10          11          12
    1  -0.5408212  -0.4524666  -0.4034596   0.0351732   0.0922819   0.0975303
           13          14
    1   0.1020479   0.1197629
 Final Beta MO Eigenvalues
            1           2           3           4           5           6
    1 -87.9781529  -7.9241701  -5.9679934  -5.9679281  -5.9578112  -0.8599839
            7           8           9          10          11          12
    1  -0.5264048  -0.3886397  -0.0706263   0.0356485   0.0920085   0.1023630
           13
    1   0.1049929
 Analysis of SCF Wavefunction
 
 --------------------------------------------------------------
                    Orbital Energies (a.u.)
 --------------------------------------------------------------
 
 Alpha MOs
 -- Occupied --
-87.984  -7.930  -5.981  -5.972  -5.963  -0.912  -0.541  -0.452
 -0.403
 -- Virtual --
  0.035   0.092   0.098   0.102   0.120   0.171   0.288   0.310
  0.316   0.319   0.351   0.472   0.473   0.493   0.638   0.867
  0.883   0.884   0.970   0.984   0.985   0.996   0.996   1.055
  1.083   1.088   1.090   1.262   1.319   1.336   1.596   1.864
  1.899   2.121   2.866   3.412   3.494   3.522   3.581   3.583
  3.585   3.585   4.083   4.094   4.384   4.622   4.625   4.640
  4.663   5.344   8.108  17.073  17.093  17.239  23.492  23.603
 23.605  23.616  23.758  30.983  30.986  30.987  30.989  30.991
 31.001  31.011 189.148
 
 Beta MOs
 -- Occupied --
-87.978  -7.924  -5.968  -5.968  -5.958  -0.860  -0.526  -0.389
 -- Virtual --
 -0.071   0.036   0.092   0.102   0.105   0.123   0.176   0.312
  0.319   0.346   0.349   0.356   0.476   0.495   0.497   0.642
  0.876   0.885   0.897   0.979   0.994   0.996   1.010   1.011
  1.083   1.090   1.118   1.119   1.268   1.328   1.339   1.604
  1.895   1.908   2.128   2.866   3.426   3.523   3.530   3.609
  3.610   3.622   3.623   4.089   4.094   4.390   4.638   4.641
  4.657   4.667   5.354   8.120  17.089  17.100  17.243  23.503
 23.614  23.616  23.620  23.765  30.988  30.990  30.993  30.994
 30.995  31.003  31.013 189.154
 --------------------------------------------------------------
 
          Ground-State Mulliken Net Atomic Charges

     Atom                 Charge (a.u.)    Spin (a.u.)
  --------------------------------------------------------
      1 S                    -0.136206       1.016581
      2 H                     0.136206      -0.016581
  --------------------------------------------------------
  Sum of atomic charges =     0.000000
  Sum of spin   charges =     1.000000

 -----------------------------------------------------------------
                    Cartesian Multipole Moments
 -----------------------------------------------------------------
    Charge (ESU x 10^10)
                 0.0000
    Dipole Moment (Debye)
         X       0.0002      Y       0.0003      Z       0.8877
       Tot       0.8877
    Quadrupole Moments (Debye-Ang)
        XX     -14.5221     XY       1.3618     YY     -14.5452
        XZ      -0.0010     YZ      -0.0010     ZZ     -11.8942
    Octapole Moments (Debye-Ang^2)
       XXX       0.0003    XXY       0.0002    XYY       0.0001
       YYY       0.0004    XXZ      -1.0609    XYZ       0.0726
       YYZ      -1.0621    XZZ      -0.0005    YZZ       0.0000
       ZZZ      -0.8981
    Hexadecapole Moments (Debye-Ang^3)
      XXXX     -20.4802   XXXY       1.9042   XXYY      -6.8285
      XYYY       1.9039   YYYY     -20.5450   XXXZ      -0.0012
      XXYZ      -0.0004   XYYZ      -0.0004   YYYZ      -0.0012
      XXZZ      -7.7114   XYZZ       0.6730   YYZZ      -7.7228
      XZZZ      -0.0017   YZZZ      -0.0014   ZZZZ     -20.7128
 -----------------------------------------------------------------
 Total job time:  22.32s(wall), 9.29s(cpu) 
 Mon Nov 14 15:06:07 2011

        *************************************************************
        *                                                           *
        *  Thank you very much for using Q-Chem.  Have a nice day.  *
        *                                                           *
        *************************************************************


0 sent ACK to 0 
now end server 0 ... 
 
**********************************************************************
Job 3 of 3 
**********************************************************************
 
Process 0 of 1 is on cl225.stfx.acenet.ca - thread support 1
initial socket setup ...start
initial socket setup ...done 
now start server 0 ... 

cmd = /usr/bin/ssh clhead /usr/local/qchem/bin/get_hostid 1850765554 > /scratch/tmp/4825314.1.medium.q/qchem14943/lic.dat
                  Welcome to Q-Chem
     A Quantum Leap Into The Future Of Chemistry

 Y. Shao, L. Fusti-Molnar, Y. Jung, J. Kussmann, C. Ochsenfeld,
 S. T. Brown, A. T. B. Gilbert, L. V. Slipchenko,S. V. Levchenko,
 D. P. O'Neill, R. A. DiStasio Jr., R. C. Lochan, T. Wang,
 G. J. O. Beran, N. A. Besley, J. M. Herbert, C. Y. Lin,
 T. Van Voorhis, S. H. Chien, A. Sodt, R. P. Steele, 
 V. A. Rassolov, P. E. Maslen, P. P. Korambath, R. D. Adamson,
 B. Austin, J. Baker, E. F. C. Byrd, H. Dachsel, R. J. Doerksen,
 A. Dreuw, B. D. Dunietz, A. D. Dutoi, T. R. Furlani,
 S. R. Gwaltney, A. Heyden, S. Hirata, C.-P. Hsu, G. Kedziora,
 R. Z. Khaliullin, P. Klunzinger, A. M. Lee, M. S. Lee, W. Liang,
 I. Lotan, N. Nair, B. Peters, E. I. Proynov, P. A. Pieniazek, 
 Y. M. Rhee, J. Ritchie, E. Rosta, C. D. Sherrill, 
 A. C. Simmonett, J. E. Subotnik, H. L. Woodcock III,
 W. Zhang, A. T. Bell, A. K. Chakraborty, D. M. Chipman,
 F. J. Keil, A. Warshel, W. J. Hehre, H. F. Schaefer III,
 J. Kong, A. I. Krylov, P. M. W. Gill, M. Head-Gordon,
 Q-Chem, Version 3.1, Q-Chem, Inc., Pittsburgh, PA (2007).

 Additional authors for Version 3.1: 
 Z. Gan, Y. Zhao, N. E. Schultz, D. Truhlar, E. Epifanovsky and M. Oana.

 Additional authors for Version 3.2: 
 R. Baer, B. R. Brooks, D. Casanova, J.-D. Chai, C.-L. Cheng, 
 C. Cramer, D. Crittenden, A. Ghysels, G. Hawkins, E. G. Hohenstein, 
 C. Kelley, W. Kurlancheek, D. Liotard, E. Livshits, P. Manohar, 
 A. Marenich, D. Neuhauser, R. Olson, M. A. Rohrdanz, K. S. Thanthiriwatte, 
 A. J. W. Thom, V. Vanovschi, C. F. Williams, Q. Wu and Z.-Q. You. 


 Intel X86 Linux Version

 Q-chem begins on Mon Nov 14 15:06:16 2011  

 Parallel job on  1  processors
Processing $rem in /usr/local/qchem/config/preferences.

theFileMan(): MAXOPENFILES=974 MAX_SUB_FILE_NUM=16
Maximum size of a physical file is 2.0 GB, maximum size of a tmp-file is 32.0 GB


--------------------------------------------------------------
User input:
--------------------------------------------------------------

$molecule
1,3
S
H,1,R

R=1.35543613

$end

$comment
positive
$end

$xc_functional
   X HF 1.0
   X BNL 1.0
   C LYP 1.0
$end

$rem
SYMMETRY_DECOMPOSITION	0
exchange 		general
BASIS                   g3large
omega			500
separate_jk		true
mem_static              760
max_scf_cycles          200
scf_final_print         1
sym_ignore              true
$end

--------------------------------------------------------------
 Writing REM_CC_EA            2
 ----------------------------------------------------
       Standard Nuclear Orientation (Angstroms)
    I     Atom         X            Y            Z
 ----------------------------------------------------
    1      S       0.000000     0.000000     0.000000
    2      H       0.000000     0.000000     1.355436
 ----------------------------------------------------
 Nuclear Repulsion Energy =     6.2465764232 hartrees
 There are        9 alpha and        7 beta electrons
 Requested basis set is G3large
 There are 25 shells and 76 basis functions

Total QAlloc Memory Limit   2000 MB
Mega-Array Size       743 MB
MEM_STATIC part       760 MB

                       Distance Matrix (Angstroms)
             S (  1)
   H (  2)  1.355436
 
 A cutoff of  1.0D-08 yielded    325 shell pairs
 There are   3056 function pairs (  4227 Cartesian)
Evaluating contribution to one-electron hamiltonian from nuclear
 Smallest overlap matrix eigenvalue = 3.71E-03
 Multipole matrices computed through 2nd order

  Scale SEOQF with 1.000000e-01/1.000000e-01/1.000000e-01

 Standard Electronic Orientation quadrupole field applied
 Nucleus-field energy     =    -0.0000000002 hartrees
 Guess from superposition of atomic densities
 Warning:  Energy on first SCF cycle will be non-variational
 An unrestricted hybrid HF-DFT SCF calculation will be
 performed using Pulay DIIS extrapolation
 Exchange:     1.0000 Hartree-Fock + 1.0000 BNL
 Correlation:  1.0000 LYP
 Using SG-1 standard quadrature grid
 SCF converges when DIIS error is below 1.0E-05
 Warning!  Inaccurate integrated density:
   Number of electrons =    16
   Numerical integral  =    17.000017771455
   Relative error      =     6.2501110716 %
 ---------------------------------------
  Cycle       Energy         DIIS Error
 ---------------------------------------
    1    -396.8883537483      3.10E-02
    2    -396.6172065986      6.32E-03
    3    -396.6669219483      2.99E-03
    4    -396.6697439754      4.18E-04
    5    -396.6701348310      1.11E-04
    6    -396.6702236620      5.03E-05
    7    -396.6702518605      3.05E-05
    8    -396.6702665570      1.27E-05
    9    -396.6702692882      2.22E-06 Convergence criterion met
 ---------------------------------------
 One-Electron    Energy =  -555.9678587911
 Total Coulomb   Energy =   177.0177595367
 Alpha Exchange  Energy =    -2.2482780038
 Beta  Exchange  Energy =    -1.8008456353
 DFT   Exchange  Energy =   -19.2888998553
 DFT Correlation Energy =    -0.6287229625
 Nuclear Repu.   Energy =     6.2465764230
 Nuclear Attr.   Energy =  -951.9587885644
 Kinetic         Energy =   395.9909297733
 <S^2> = 2.0060
 SCF time:  CPU 11.69 s  wall 19.74 s
 Final Alpha MO Eigenvalues
            1           2           3           4           5           6
    1 -88.3995598  -8.3393712  -6.3863663  -6.3863657  -6.3757286  -1.2939265
            7           8           9          10          11          12
    1  -0.8872737  -0.8077557  -0.8077552  -0.1812211  -0.1160855  -0.0799364
           13          14
    1  -0.0728680  -0.0728673
 Final Beta MO Eigenvalues
            1           2           3           4           5           6
    1 -88.3868605  -8.3259734  -6.3667082  -6.3661675  -6.3661668  -1.1850306
            7           8           9          10          11          12
    1  -0.8568083  -0.3871254  -0.3871229  -0.1670985  -0.1131163  -0.0803533
 Analysis of SCF Wavefunction
 
 --------------------------------------------------------------
                    Orbital Energies (a.u.)
 --------------------------------------------------------------
 
 Alpha MOs
 -- Occupied --
-88.400  -8.339  -6.386  -6.386  -6.376  -1.294  -0.887  -0.808
 -0.808
 -- Virtual --
 -0.181  -0.116  -0.080  -0.073  -0.073  -0.013  -0.006  -0.006
  0.005   0.005   0.113   0.225   0.225   0.229   0.362   0.577
  0.580   0.580   0.670   0.674   0.674   0.678   0.678   0.715
  0.715   0.717   0.717   0.964   1.036   1.036   1.280   1.525
  1.525   1.788   2.557   3.058   3.137   3.137   3.174   3.174
  3.187   3.187   3.763   3.763   4.038   4.217   4.220   4.261
  4.261   4.966   7.711  16.670  16.670  16.839  23.076  23.189
 23.202  23.202  23.353  30.572  30.572  30.583  30.583  30.588
 30.588  30.605 188.734
 
 Beta MOs
 -- Occupied --
-88.387  -8.326  -6.367  -6.366  -6.366  -1.185  -0.857
 -- Virtual --
 -0.387  -0.387  -0.167  -0.113  -0.080  -0.070  -0.070  -0.012
  0.029   0.029   0.063   0.063   0.123   0.232   0.242   0.242
  0.367   0.588   0.588   0.598   0.684   0.692   0.692   0.701
  0.701   0.751   0.751   0.776   0.776   0.976   1.043   1.043
  1.294   1.566   1.566   1.801   2.554   3.086   3.176   3.176
  3.249   3.249   3.259   3.259   3.768   3.768   4.049   4.253
  4.256   4.284   4.284   4.989   7.737  16.698  16.698  16.848
 23.102  23.214  23.218  23.218  23.367  30.584  30.584  30.592
 30.592  30.596  30.596  30.612 188.748
 --------------------------------------------------------------
 
          Ground-State Mulliken Net Atomic Charges

     Atom                 Charge (a.u.)    Spin (a.u.)
  --------------------------------------------------------
      1 S                     0.767778       2.032706
      2 H                     0.232222      -0.032706
  --------------------------------------------------------
  Sum of atomic charges =     1.000000
  Sum of spin   charges =     2.000000

 -----------------------------------------------------------------
                    Cartesian Multipole Moments
 -----------------------------------------------------------------
    Charge (ESU x 10^10)
                 4.8032
    Dipole Moment (Debye)
         X       0.0000      Y       0.0000      Z       1.5598
       Tot       1.5598
    Quadrupole Moments (Debye-Ang)
        XX     -10.2692     XY       0.0000     YY     -10.2691
        XZ       0.0000     YZ       0.0000     ZZ      -8.1114
    Octapole Moments (Debye-Ang^2)
       XXX       0.0000    XXY       0.0000    XYY       0.0000
       YYY       0.0000    XXZ      -0.7955    XYZ       0.0000
       YYZ      -0.7955    XZZ       0.0000    YZZ       0.0000
       ZZZ       1.5347
    Hexadecapole Moments (Debye-Ang^3)
      XXXX     -10.3543   XXXY       0.0000   XXYY      -3.4515
      XYYY       0.0000   YYYY     -10.3543   XXXZ       0.0000
      XXYZ       0.0000   XYYZ       0.0000   YYYZ       0.0000
      XXZZ      -4.6775   XYZZ       0.0000   YYZZ      -4.6775
      XZZZ       0.0000   YZZZ       0.0000   ZZZZ     -10.4025
 -----------------------------------------------------------------
 Total job time:  19.94s(wall), 11.77s(cpu) 
 Mon Nov 14 15:06:36 2011

        *************************************************************
        *                                                           *
        *  Thank you very much for using Q-Chem.  Have a nice day.  *
        *                                                           *
        *************************************************************


0 sent ACK to 0 
now end server 0 ... 
