Process 0 of 1 is on cl072.stfx.acenet.ca - thread support 1
initial socket setup ...start
initial socket setup ...done 
now start server 0 ... 

cmd = /usr/bin/ssh clhead /usr/local/qchem/bin/get_hostid 1081198158 > /scratch/tmp/5955714.1.short.q/qchem24461/lic.dat
                  Welcome to Q-Chem
     A Quantum Leap Into The Future Of Chemistry

 Y. Shao, L. Fusti-Molnar, Y. Jung, J. Kussmann, C. Ochsenfeld,
 S. T. Brown, A. T. B. Gilbert, L. V. Slipchenko,S. V. Levchenko,
 D. P. O'Neill, R. A. DiStasio Jr., R. C. Lochan, T. Wang,
 G. J. O. Beran, N. A. Besley, J. M. Herbert, C. Y. Lin,
 T. Van Voorhis, S. H. Chien, A. Sodt, R. P. Steele, 
 V. A. Rassolov, P. E. Maslen, P. P. Korambath, R. D. Adamson,
 B. Austin, J. Baker, E. F. C. Byrd, H. Dachsel, R. J. Doerksen,
 A. Dreuw, B. D. Dunietz, A. D. Dutoi, T. R. Furlani,
 S. R. Gwaltney, A. Heyden, S. Hirata, C.-P. Hsu, G. Kedziora,
 R. Z. Khaliullin, P. Klunzinger, A. M. Lee, M. S. Lee, W. Liang,
 I. Lotan, N. Nair, B. Peters, E. I. Proynov, P. A. Pieniazek, 
 Y. M. Rhee, J. Ritchie, E. Rosta, C. D. Sherrill, 
 A. C. Simmonett, J. E. Subotnik, H. L. Woodcock III,
 W. Zhang, A. T. Bell, A. K. Chakraborty, D. M. Chipman,
 F. J. Keil, A. Warshel, W. J. Hehre, H. F. Schaefer III,
 J. Kong, A. I. Krylov, P. M. W. Gill, M. Head-Gordon,
 Q-Chem, Version 3.1, Q-Chem, Inc., Pittsburgh, PA (2007).

 Additional authors for Version 3.1: 
 Z. Gan, Y. Zhao, N. E. Schultz, D. Truhlar, E. Epifanovsky and M. Oana.

 Additional authors for Version 3.2: 
 R. Baer, B. R. Brooks, D. Casanova, J.-D. Chai, C.-L. Cheng, 
 C. Cramer, D. Crittenden, A. Ghysels, G. Hawkins, E. G. Hohenstein, 
 C. Kelley, W. Kurlancheek, D. Liotard, E. Livshits, P. Manohar, 
 A. Marenich, D. Neuhauser, R. Olson, M. A. Rohrdanz, K. S. Thanthiriwatte, 
 A. J. W. Thom, V. Vanovschi, C. F. Williams, Q. Wu and Z.-Q. You. 


 Intel X86 Linux Version

 Q-chem begins on Tue Apr 30 21:15:19 2013  

 Parallel job on  1  processors
Processing $rem in /usr/local/qchem/config/preferences.

theFileMan(): MAXOPENFILES=974 MAX_SUB_FILE_NUM=16
Maximum size of a physical file is 2.0 GB, maximum size of a tmp-file is 32.0 GB


--------------------------------------------------------------
User input:
--------------------------------------------------------------

$molecule
-1,2
O
O,1,AA
H,1,AH4,2,H4AA
H,2,AH4,1,H4AA,3,H4AAH8,0

AA=1.4557049
AH4=0.97363519
H4AA=99.66701987
H4AAH8=118.66374246

$end

$comment
negative
$end

$xc_functional
C PBE   1.00
X wPBE  1.00
$end

$rem
SYMMETRY_DECOMPOSITION	0
exchange 		general
LRC_DFT                 true
BASIS                   g3large
omega			490
mem_static              760
max_scf_cycles          200
scf_final_print         1
sym_ignore              true
$end

--------------------------------------------------------------
 Writing REM_CC_EA            4
 ----------------------------------------------------
       Standard Nuclear Orientation (Angstroms)
    I     Atom         X            Y            Z
 ----------------------------------------------------
    1      O       0.000000     0.000000     0.000000
    2      O       0.000000     0.000000     1.455705
    3      H       0.959810     0.000000    -0.163495
    4      H      -0.460390     0.842185     1.619200
 ----------------------------------------------------
 Nuclear Repulsion Energy =    36.6772788812 hartrees
 There are       10 alpha and        9 beta electrons
 Requested basis set is G3large
 There are 32 shells and 104 basis functions

Total QAlloc Memory Limit   2000 MB
Mega-Array Size       743 MB
MEM_STATIC part       760 MB

                       Distance Matrix (Angstroms)
             O (  1)   O (  2)   H (  3)
   O (  2)  1.455705
   H (  3)  0.973635  1.882297
   H (  4)  1.882297  0.973635  2.429865
 
 A cutoff of  1.0D-08 yielded    522 shell pairs
 There are   5558 function pairs (  6945 Cartesian)
Evaluating contribution to one-electron hamiltonian from nuclear
 Smallest overlap matrix eigenvalue = 1.29E-03
 Multipole matrices computed through 2nd order

  Scale SEOQF with 1.000000e-01/1.000000e+00/1.000000e-01

 Standard Electronic Orientation quadrupole field applied
 Nucleus-field energy     =    -0.0000000016 hartrees
 Guess from superposition of atomic densities
 Warning:  Energy on first SCF cycle will be non-variational
 Long-range K will be added via erf
 Coulomb attenuation parameter = 0.49 bohr**(-1)
 An unrestricted Kohn-Sham SCF calculation will be
 performed using Pulay DIIS extrapolation
 Exchange:  wPBE + LR-HF      Correlation:  PBE
 Using SG-1 standard quadrature grid
 SCF converges when DIIS error is below 1.0E-05
 Requested basis set is G3large
 There are 32 shells and 104 basis functions
 A cutoff of  1.0D-08 yielded    522 shell pairs
 There are   5558 function pairs (  6945 Cartesian)
 Warning!  Inaccurate integrated density:
   Number of electrons =    19
   Numerical integral  =    18.000018897406
   Relative error      =    -5.2630584347 %
 ---------------------------------------
  Cycle       Energy         DIIS Error
 ---------------------------------------
    1    -151.5243278101      3.80E-02
    2    -151.2292102762      1.21E-02
    3    -151.1434284959      1.78E-02
    4    -151.4454446240      2.12E-03
    5    -151.4538645105      1.45E-03
    6    -151.4597749854      8.09E-04
    7    -151.4650454605      3.93E-04
    8    -151.4677356564      1.22E-04
    9    -151.4683529040      1.23E-04
   10    -151.4687695855      1.27E-04
   11    -151.4680912369      1.39E-04
   12    -151.4672220380      8.20E-05
   13    -151.4672288567      3.39E-05
   14    -151.4672191085      4.25E-06 Convergence criterion met
 ---------------------------------------
 One-Electron    Energy =  -284.2792638812
 Total Coulomb   Energy =   113.9882385976
 Alpha Exchange  Energy =    -2.2567884396
 Beta  Exchange  Energy =    -2.1740646608
 DFT   Exchange  Energy =   -12.8143124851
 DFT Correlation Energy =    -0.6083071191
 Nuclear Repu.   Energy =    36.6772788797
 Nuclear Attr.   Energy =  -435.4413537446
 Kinetic         Energy =   151.1620898634
 <S^2> = 0.7506
 SCF time:  CPU 29.90 s  wall 32.10 s
 Final Alpha MO Eigenvalues
            1           2           3           4           5           6
    1 -18.8947656 -18.8946429  -1.1275587  -0.8968620  -0.5055000  -0.4852022
            7           8           9          10          11          12
    1  -0.4071635  -0.3086058  -0.2607251   0.0465001   0.1467326   0.2711746
           13          14          15
    1   0.3630693   0.3643273   0.3742952
 Final Beta MO Eigenvalues
            1           2           3           4           5           6
    1 -18.8935682 -18.8935102  -1.1234795  -0.8929595  -0.5039881  -0.4834220
            7           8           9          10          11          12
    1  -0.4032679  -0.3056501  -0.2590556   0.1765413   0.1861781   0.2880267
           13          14
    1   0.3672645   0.3761645
 Analysis of SCF Wavefunction
 
 --------------------------------------------------------------
                    Orbital Energies (a.u.)
 --------------------------------------------------------------
 
 Alpha MOs
 -- Occupied --
-18.895 -18.895  -1.128  -0.897  -0.505  -0.485  -0.407  -0.309
 -0.261   0.047
 -- Virtual --
  0.147   0.271   0.363   0.364   0.374   0.386   0.399   0.418
  0.419   0.451   0.498   0.554   0.783   0.789   0.940   0.948
  1.035   1.092   1.168   1.180   1.265   1.338   1.361   1.388
  1.593   1.632   1.683   1.759   1.810   1.845   2.047   2.097
  2.104   2.380   2.421   2.487   2.547   2.817   3.008   3.015
  3.899   3.951   3.971   4.121   4.403   4.415   4.701   4.815
  4.880   5.131   5.146   5.203   5.229   5.387   5.396   5.440
  5.528   5.733   5.771   5.835   5.899   6.137   6.162   6.859
  7.067   7.155   7.157   7.207   7.312   7.389   7.483   7.550
  7.657   7.704   7.923   8.209  43.912  43.930  43.944  43.972
 43.989  44.007  44.046  44.075  44.096  44.160  45.722  45.749
 45.776  46.210  46.306  46.708  49.938  49.946
 
 Beta MOs
 -- Occupied --
-18.894 -18.894  -1.123  -0.893  -0.504  -0.483  -0.403  -0.306
 -0.259
 -- Virtual --
  0.177   0.186   0.288   0.367   0.376   0.377   0.389   0.407
  0.422   0.423   0.453   0.498   0.553   0.783   0.789   0.943
  0.950   1.038   1.094   1.170   1.180   1.267   1.339   1.362
  1.391   1.595   1.634   1.684   1.761   1.812   1.847   2.048
  2.098   2.105   2.382   2.423   2.487   2.547   2.818   3.008
  3.016   3.900   3.952   3.972   4.122   4.406   4.417   4.703
  4.816   4.882   5.133   5.148   5.205   5.230   5.390   5.399
  5.441   5.530   5.736   5.772   5.836   5.903   6.139   6.165
  6.863   7.071   7.159   7.160   7.209   7.314   7.392   7.486
  7.553   7.657   7.705   7.926   8.211  43.914  43.931  43.946
 43.973  43.989  44.009  44.047  44.077  44.097  44.162  45.725
 45.750  45.777  46.212  46.307  46.709  49.940  49.947
 --------------------------------------------------------------
 
          Ground-State Mulliken Net Atomic Charges

     Atom                 Charge (a.u.)    Spin (a.u.)
  --------------------------------------------------------
      1 O                    -0.182654      -0.107079
      2 O                    -0.181823      -0.109803
      3 H                    -0.314745       0.605212
      4 H                    -0.320778       0.611669
  --------------------------------------------------------
  Sum of atomic charges =    -1.000000
  Sum of spin   charges =     1.000000

 -----------------------------------------------------------------
                    Cartesian Multipole Moments
 -----------------------------------------------------------------
    Charge (ESU x 10^10)
                -4.8032
    Dipole Moment (Debye)
         X      -0.6446      Y      -1.1388      Z      -3.5210
       Tot       3.7563
    Quadrupole Moments (Debye-Ang)
        XX     -31.0461     XY       3.7667     YY     -26.9708
        XZ       8.1056     YZ      -5.9353     ZZ     -38.7242
    Octapole Moments (Debye-Ang^2)
       XXX     -17.6862    XXY      -7.3427    XYY       0.2292
       YYY     -22.6727    XXZ     -17.3154    XYZ       5.6875
       YYZ     -25.0830    XZZ       5.3750    YZZ     -19.6245
       ZZZ     -81.0206
    Hexadecapole Moments (Debye-Ang^3)
      XXXX    -223.0571   XXXY      33.0641   XXYY     -61.0777
      XYYY      35.2434   YYYY    -148.9483   XXXZ      72.2663
      XXYZ     -22.0399   XYYZ      28.5533   YYYZ     -67.3379
      XXZZ    -103.5786   XYZZ      19.3717   YYZZ    -102.8617
      XZZZ      81.4965   YZZZ     -83.1662   ZZZZ    -425.7130
 -----------------------------------------------------------------
 Total job time:  32.23s(wall), 30.00s(cpu) 
 Tue Apr 30 21:15:51 2013

        *************************************************************
        *                                                           *
        *  Thank you very much for using Q-Chem.  Have a nice day.  *
        *                                                           *
        *************************************************************


0 sent ACK to 0 
now end server 0 ... 
 
**********************************************************************
Job 2 of 3 
**********************************************************************
 
Process 0 of 1 is on cl072.stfx.acenet.ca - thread support 1
initial socket setup ...start
initial socket setup ...done 
now start server 0 ... 

cmd = /usr/bin/ssh clhead /usr/local/qchem/bin/get_hostid 1175652056 > /scratch/tmp/5955714.1.short.q/qchem24461/lic.dat
                  Welcome to Q-Chem
     A Quantum Leap Into The Future Of Chemistry

 Y. Shao, L. Fusti-Molnar, Y. Jung, J. Kussmann, C. Ochsenfeld,
 S. T. Brown, A. T. B. Gilbert, L. V. Slipchenko,S. V. Levchenko,
 D. P. O'Neill, R. A. DiStasio Jr., R. C. Lochan, T. Wang,
 G. J. O. Beran, N. A. Besley, J. M. Herbert, C. Y. Lin,
 T. Van Voorhis, S. H. Chien, A. Sodt, R. P. Steele, 
 V. A. Rassolov, P. E. Maslen, P. P. Korambath, R. D. Adamson,
 B. Austin, J. Baker, E. F. C. Byrd, H. Dachsel, R. J. Doerksen,
 A. Dreuw, B. D. Dunietz, A. D. Dutoi, T. R. Furlani,
 S. R. Gwaltney, A. Heyden, S. Hirata, C.-P. Hsu, G. Kedziora,
 R. Z. Khaliullin, P. Klunzinger, A. M. Lee, M. S. Lee, W. Liang,
 I. Lotan, N. Nair, B. Peters, E. I. Proynov, P. A. Pieniazek, 
 Y. M. Rhee, J. Ritchie, E. Rosta, C. D. Sherrill, 
 A. C. Simmonett, J. E. Subotnik, H. L. Woodcock III,
 W. Zhang, A. T. Bell, A. K. Chakraborty, D. M. Chipman,
 F. J. Keil, A. Warshel, W. J. Hehre, H. F. Schaefer III,
 J. Kong, A. I. Krylov, P. M. W. Gill, M. Head-Gordon,
 Q-Chem, Version 3.1, Q-Chem, Inc., Pittsburgh, PA (2007).

 Additional authors for Version 3.1: 
 Z. Gan, Y. Zhao, N. E. Schultz, D. Truhlar, E. Epifanovsky and M. Oana.

 Additional authors for Version 3.2: 
 R. Baer, B. R. Brooks, D. Casanova, J.-D. Chai, C.-L. Cheng, 
 C. Cramer, D. Crittenden, A. Ghysels, G. Hawkins, E. G. Hohenstein, 
 C. Kelley, W. Kurlancheek, D. Liotard, E. Livshits, P. Manohar, 
 A. Marenich, D. Neuhauser, R. Olson, M. A. Rohrdanz, K. S. Thanthiriwatte, 
 A. J. W. Thom, V. Vanovschi, C. F. Williams, Q. Wu and Z.-Q. You. 


 Intel X86 Linux Version

 Q-chem begins on Tue Apr 30 21:15:54 2013  

 Parallel job on  1  processors
Processing $rem in /usr/local/qchem/config/preferences.

theFileMan(): MAXOPENFILES=974 MAX_SUB_FILE_NUM=16
Maximum size of a physical file is 2.0 GB, maximum size of a tmp-file is 32.0 GB


--------------------------------------------------------------
User input:
--------------------------------------------------------------

$molecule
0,1
O
O,1,AA
H,1,AH4,2,H4AA
H,2,AH4,1,H4AA,3,H4AAH8,0

AA=1.4557049
AH4=0.97363519
H4AA=99.66701987
H4AAH8=118.66374246

$end

$comment
neutral
$end

$xc_functional
C PBE   1.00
X wPBE  1.00
$end


$rem
SYMMETRY_DECOMPOSITION	0
LRC_DFT                 true
exchange 		general
BASIS                   g3large
omega			490
mem_static              760
max_scf_cycles          200
scf_final_print         1
sym_ignore              true
$end

--------------------------------------------------------------
 Writing REM_CC_EA            4
 ----------------------------------------------------
       Standard Nuclear Orientation (Angstroms)
    I     Atom         X            Y            Z
 ----------------------------------------------------
    1      O       0.000000     0.000000     0.000000
    2      O       0.000000     0.000000     1.455705
    3      H       0.959810     0.000000    -0.163495
    4      H      -0.460390     0.842185     1.619200
 ----------------------------------------------------
 Nuclear Repulsion Energy =    36.6772788812 hartrees
 There are        9 alpha and        9 beta electrons
 Requested basis set is G3large
 There are 32 shells and 104 basis functions

Total QAlloc Memory Limit   2000 MB
Mega-Array Size       743 MB
MEM_STATIC part       760 MB

                       Distance Matrix (Angstroms)
             O (  1)   O (  2)   H (  3)
   O (  2)  1.455705
   H (  3)  0.973635  1.882297
   H (  4)  1.882297  0.973635  2.429865
 
 A cutoff of  1.0D-08 yielded    522 shell pairs
 There are   5558 function pairs (  6945 Cartesian)
Evaluating contribution to one-electron hamiltonian from nuclear
 Smallest overlap matrix eigenvalue = 1.29E-03
 Multipole matrices computed through 2nd order

  Scale SEOQF with 1.000000e-01/1.000000e+00/1.000000e-01

 Standard Electronic Orientation quadrupole field applied
 Nucleus-field energy     =    -0.0000000016 hartrees
 Guess from superposition of atomic densities
 Warning:  Energy on first SCF cycle will be non-variational
 Long-range K will be added via erf
 Coulomb attenuation parameter = 0.49 bohr**(-1)
 A restricted Kohn-Sham SCF calculation will be
 performed using Pulay DIIS extrapolation
 Exchange:  wPBE + LR-HF      Correlation:  PBE
 Using SG-1 standard quadrature grid
 SCF converges when DIIS error is below 1.0E-05
 Requested basis set is G3large
 There are 32 shells and 104 basis functions
 A cutoff of  1.0D-08 yielded    522 shell pairs
 There are   5558 function pairs (  6945 Cartesian)
 ---------------------------------------
  Cycle       Energy         DIIS Error
 ---------------------------------------
    1    -151.5243278101      3.80E-02
    2    -151.4642273159      6.41E-03
    3    -151.5064133268      3.29E-03
    4    -151.5152479468      8.94E-04
    5    -151.5164035192      3.82E-04
    6    -151.5167380111      2.36E-04
    7    -151.5168190947      5.67E-05
    8    -151.5168317228      1.33E-05
    9    -151.5168327799      4.50E-06 Convergence criterion met
 ---------------------------------------
 One-Electron    Energy =  -281.1447228948
 Total Coulomb   Energy =   110.7029317939
 Alpha Exchange  Energy =    -2.1767663073
 Beta  Exchange  Energy =    -2.1767663073
 DFT   Exchange  Energy =   -12.7990774381
 DFT Correlation Energy =    -0.5997105061
 Nuclear Repu.   Energy =    36.6772788797
 Nuclear Attr.   Energy =  -432.1671774217
 Kinetic         Energy =   151.0224545268
 SCF time:  CPU 15.94 s  wall 17.57 s
 Final Alpha MO Eigenvalues
            1           2           3           4           5           6
    1 -19.0749642 -19.0749271  -1.3048587  -1.0732154  -0.6832184  -0.6592497
            7           8           9          10          11          12
    1  -0.5793070  -0.4825296  -0.4355793   0.0438965   0.0552006   0.1255342
           13          14
    1   0.2145100   0.2221371
 Analysis of SCF Wavefunction
 
 --------------------------------------------------------------
                    Orbital Energies (a.u.)
 --------------------------------------------------------------
 
 Alpha MOs
 -- Occupied --
-19.075 -19.075  -1.305  -1.073  -0.683  -0.659  -0.579  -0.483
 -0.436
 -- Virtual --
  0.044   0.055   0.126   0.215   0.222   0.229   0.238   0.263
  0.281   0.281   0.304   0.349   0.408   0.618   0.622   0.765
  0.775   0.862   0.918   1.007   1.016   1.102   1.173   1.195
  1.225   1.419   1.456   1.514   1.584   1.640   1.670   1.872
  1.924   1.929   2.208   2.247   2.314   2.375   2.644   2.829
  2.841   3.718   3.770   3.790   3.941   4.222   4.234   4.524
  4.638   4.704   4.956   4.970   5.028   5.054   5.212   5.220
  5.264   5.353   5.556   5.594   5.658   5.722   5.960   5.985
  6.682   6.891   6.980   6.981   7.031   7.133   7.210   7.308
  7.375   7.482   7.528   7.747   8.034  43.732  43.750  43.765
 43.792  43.809  43.828  43.866  43.895  43.916  43.980  45.543
 45.569  45.597  46.030  46.126  46.528  49.758  49.766
 --------------------------------------------------------------
 
          Ground-State Mulliken Net Atomic Charges

     Atom                 Charge (a.u.)
  ----------------------------------------
      1 O                    -0.277720
      2 O                    -0.277666
      3 H                     0.277716
      4 H                     0.277671
  ----------------------------------------
  Sum of atomic charges =     0.000000

 -----------------------------------------------------------------
                    Cartesian Multipole Moments
 -----------------------------------------------------------------
    Charge (ESU x 10^10)
                 0.0000
    Dipole Moment (Debye)
         X       0.8891      Y       1.4991      Z       0.0001
       Tot       1.7429
    Quadrupole Moments (Debye-Ang)
        XX     -10.0499     XY      -1.0708     YY     -11.2207
        XZ      -2.0773     YZ       2.7067     ZZ     -11.5807
    Octapole Moments (Debye-Ang^2)
       XXX       1.0598    XXY      -0.0062    XYY      -0.9907
       YYY       0.1223    XXZ      -9.0103    XYZ      -1.7063
       YYZ      -6.4715    XZZ      -2.8485    YZZ       4.2355
       ZZZ     -25.2868
    Hexadecapole Moments (Debye-Ang^3)
      XXXX     -10.2415   XXXY       0.0339   XXYY      -3.7237
      XYYY      -0.4945   YYYY     -10.7453   XXXZ       0.1388
      XXYZ       0.0894   XYYZ      -0.9305   YYYZ       0.4942
      XXZZ     -16.7265   XYZZ      -2.6838   YYZZ     -13.2495
      XZZZ      -3.7870   YZZZ       6.2430   ZZZZ     -83.0417
 -----------------------------------------------------------------
 Total job time:  17.69s(wall), 16.03s(cpu) 
 Tue Apr 30 21:16:11 2013

        *************************************************************
        *                                                           *
        *  Thank you very much for using Q-Chem.  Have a nice day.  *
        *                                                           *
        *************************************************************


0 sent ACK to 0 
now end server 0 ... 
 
**********************************************************************
Job 3 of 3 
**********************************************************************
 
Process 0 of 1 is on cl072.stfx.acenet.ca - thread support 1
initial socket setup ...start
initial socket setup ...done 
now start server 0 ... 

cmd = /usr/bin/ssh clhead /usr/local/qchem/bin/get_hostid 1230867024 > /scratch/tmp/5955714.1.short.q/qchem24461/lic.dat
                  Welcome to Q-Chem
     A Quantum Leap Into The Future Of Chemistry

 Y. Shao, L. Fusti-Molnar, Y. Jung, J. Kussmann, C. Ochsenfeld,
 S. T. Brown, A. T. B. Gilbert, L. V. Slipchenko,S. V. Levchenko,
 D. P. O'Neill, R. A. DiStasio Jr., R. C. Lochan, T. Wang,
 G. J. O. Beran, N. A. Besley, J. M. Herbert, C. Y. Lin,
 T. Van Voorhis, S. H. Chien, A. Sodt, R. P. Steele, 
 V. A. Rassolov, P. E. Maslen, P. P. Korambath, R. D. Adamson,
 B. Austin, J. Baker, E. F. C. Byrd, H. Dachsel, R. J. Doerksen,
 A. Dreuw, B. D. Dunietz, A. D. Dutoi, T. R. Furlani,
 S. R. Gwaltney, A. Heyden, S. Hirata, C.-P. Hsu, G. Kedziora,
 R. Z. Khaliullin, P. Klunzinger, A. M. Lee, M. S. Lee, W. Liang,
 I. Lotan, N. Nair, B. Peters, E. I. Proynov, P. A. Pieniazek, 
 Y. M. Rhee, J. Ritchie, E. Rosta, C. D. Sherrill, 
 A. C. Simmonett, J. E. Subotnik, H. L. Woodcock III,
 W. Zhang, A. T. Bell, A. K. Chakraborty, D. M. Chipman,
 F. J. Keil, A. Warshel, W. J. Hehre, H. F. Schaefer III,
 J. Kong, A. I. Krylov, P. M. W. Gill, M. Head-Gordon,
 Q-Chem, Version 3.1, Q-Chem, Inc., Pittsburgh, PA (2007).

 Additional authors for Version 3.1: 
 Z. Gan, Y. Zhao, N. E. Schultz, D. Truhlar, E. Epifanovsky and M. Oana.

 Additional authors for Version 3.2: 
 R. Baer, B. R. Brooks, D. Casanova, J.-D. Chai, C.-L. Cheng, 
 C. Cramer, D. Crittenden, A. Ghysels, G. Hawkins, E. G. Hohenstein, 
 C. Kelley, W. Kurlancheek, D. Liotard, E. Livshits, P. Manohar, 
 A. Marenich, D. Neuhauser, R. Olson, M. A. Rohrdanz, K. S. Thanthiriwatte, 
 A. J. W. Thom, V. Vanovschi, C. F. Williams, Q. Wu and Z.-Q. You. 


 Intel X86 Linux Version

 Q-chem begins on Tue Apr 30 21:16:14 2013  

 Parallel job on  1  processors
Processing $rem in /usr/local/qchem/config/preferences.

theFileMan(): MAXOPENFILES=974 MAX_SUB_FILE_NUM=16
Maximum size of a physical file is 2.0 GB, maximum size of a tmp-file is 32.0 GB


--------------------------------------------------------------
User input:
--------------------------------------------------------------

$molecule
1,2
O
O,1,AA
H,1,AH4,2,H4AA
H,2,AH4,1,H4AA,3,H4AAH8,0

AA=1.4557049
AH4=0.97363519
H4AA=99.66701987
H4AAH8=118.66374246

$end

$comment
positive
$end

$xc_functional
C PBE   1.00
X wPBE  1.00
$end

$rem
SYMMETRY_DECOMPOSITION	0
LRC_DFT                 true
exchange 		general
BASIS                   g3large
omega			490
mem_static              760
max_scf_cycles          200
scf_final_print         1
sym_ignore              true
$end

--------------------------------------------------------------
 Writing REM_CC_EA            4
 ----------------------------------------------------
       Standard Nuclear Orientation (Angstroms)
    I     Atom         X            Y            Z
 ----------------------------------------------------
    1      O       0.000000     0.000000     0.000000
    2      O       0.000000     0.000000     1.455705
    3      H       0.959810     0.000000    -0.163495
    4      H      -0.460390     0.842185     1.619200
 ----------------------------------------------------
 Nuclear Repulsion Energy =    36.6772788812 hartrees
 There are        9 alpha and        8 beta electrons
 Requested basis set is G3large
 There are 32 shells and 104 basis functions

Total QAlloc Memory Limit   2000 MB
Mega-Array Size       743 MB
MEM_STATIC part       760 MB

                       Distance Matrix (Angstroms)
             O (  1)   O (  2)   H (  3)
   O (  2)  1.455705
   H (  3)  0.973635  1.882297
   H (  4)  1.882297  0.973635  2.429865
 
 A cutoff of  1.0D-08 yielded    522 shell pairs
 There are   5558 function pairs (  6945 Cartesian)
Evaluating contribution to one-electron hamiltonian from nuclear
 Smallest overlap matrix eigenvalue = 1.29E-03
 Multipole matrices computed through 2nd order

  Scale SEOQF with 1.000000e-01/1.000000e+00/1.000000e-01

 Standard Electronic Orientation quadrupole field applied
 Nucleus-field energy     =    -0.0000000016 hartrees
 Guess from superposition of atomic densities
 Warning:  Energy on first SCF cycle will be non-variational
 Long-range K will be added via erf
 Coulomb attenuation parameter = 0.49 bohr**(-1)
 An unrestricted Kohn-Sham SCF calculation will be
 performed using Pulay DIIS extrapolation
 Exchange:  wPBE + LR-HF      Correlation:  PBE
 Using SG-1 standard quadrature grid
 SCF converges when DIIS error is below 1.0E-05
 Requested basis set is G3large
 There are 32 shells and 104 basis functions
 A cutoff of  1.0D-08 yielded    522 shell pairs
 There are   5558 function pairs (  6945 Cartesian)
 Warning!  Inaccurate integrated density:
   Number of electrons =    17
   Numerical integral  =    18.000018897406
   Relative error      =     5.8824641024 %
 ---------------------------------------
  Cycle       Energy         DIIS Error
 ---------------------------------------
    1    -151.5243278101      3.80E-02
    2    -150.9857973107      7.49E-03
    3    -151.0505248401      4.51E-03
    4    -151.0677046170      1.93E-03
    5    -151.0724684139      8.72E-04
    6    -151.0751579800      3.56E-04
    7    -151.0769262548      2.19E-04
    8    -151.0786013576      1.26E-04
    9    -151.0794403405      9.79E-05
   10    -151.0798038810      8.91E-05
   11    -151.0799849196      8.34E-05
   12    -151.0802911385      5.70E-05
   13    -151.0804098500      2.94E-05
   14    -151.0804579286      1.73E-05
   15    -151.0804689577      1.15E-05
   16    -151.0804812361      4.06E-06 Convergence criterion met
 ---------------------------------------
 One-Electron    Energy =  -273.9915962232
 Total Coulomb   Energy =   103.5565307638
 Alpha Exchange  Energy =    -2.2036735896
 Beta  Exchange  Energy =    -1.9236970630
 DFT   Exchange  Energy =   -12.6339471249
 DFT Correlation Energy =    -0.5613768789
 Nuclear Repu.   Energy =    36.6772788797
 Nuclear Attr.   Energy =  -424.5549695590
 Kinetic         Energy =   150.5633733358
 <S^2> = 0.7544
 SCF time:  CPU 34.23 s  wall 36.94 s
 Final Alpha MO Eigenvalues
            1           2           3           4           5           6
    1 -19.5181694 -19.5180354  -1.7177976  -1.4827738  -1.0838391  -1.0465201
            7           8           9          10          11          12
    1  -0.9974296  -0.8837106  -0.8785917  -0.2623196  -0.1607048  -0.1190601
           13          14
    1  -0.0184791  -0.0105841
 Final Beta MO Eigenvalues
            1           2           3           4           5           6
    1 -19.5050001 -19.5047970  -1.6887020  -1.4417683  -1.0568513  -1.0317905
            7           8           9          10          11          12
    1  -0.9252304  -0.8306134  -0.4390698  -0.2427507  -0.1582542  -0.1162615
           13
    1  -0.0146385
 Analysis of SCF Wavefunction
 
 --------------------------------------------------------------
                    Orbital Energies (a.u.)
 --------------------------------------------------------------
 
 Alpha MOs
 -- Occupied --
-19.518 -19.518  -1.718  -1.483  -1.084  -1.047  -0.997  -0.884
 -0.879
 -- Virtual --
 -0.262  -0.161  -0.119  -0.018  -0.011  -0.006   0.000   0.042
  0.063   0.070   0.078   0.114   0.182   0.341   0.343   0.459
  0.475   0.559   0.603   0.705   0.707   0.801   0.842   0.862
  0.908   1.101   1.121   1.162   1.246   1.291   1.322   1.500
  1.548   1.553   1.826   1.887   1.974   2.030   2.288   2.481
  2.490   3.366   3.421   3.438   3.592   3.866   3.880   4.123
  4.227   4.312   4.548   4.555   4.594   4.614   4.801   4.806
  4.847   4.937   5.159   5.193   5.253   5.327   5.563   5.564
  6.264   6.446   6.541   6.563   6.591   6.727   6.817   6.882
  6.942   7.061   7.127   7.340   7.635  43.277  43.296  43.327
 43.335  43.353  43.373  43.415  43.465  43.478  43.547  45.102
 45.116  45.140  45.592  45.690  46.090  49.318  49.326
 
 Beta MOs
 -- Occupied --
-19.505 -19.505  -1.689  -1.442  -1.057  -1.032  -0.925  -0.831
 -- Virtual --
 -0.439  -0.243  -0.158  -0.116  -0.015  -0.008  -0.001   0.003
  0.043   0.070   0.072   0.080   0.115   0.185   0.347   0.349
  0.460   0.483   0.567   0.617   0.715   0.717   0.807   0.865
  0.890   0.917   1.114   1.135   1.181   1.260   1.311   1.329
  1.527   1.564   1.581   1.854   1.895   1.987   2.042   2.304
  2.487   2.498   3.374   3.424   3.446   3.596   3.875   3.887
  4.135   4.258   4.323   4.575   4.586   4.652   4.676   4.832
  4.837   4.883   4.970   5.182   5.217   5.285   5.343   5.574
  5.597   6.288   6.502   6.585   6.597   6.647   6.756   6.834
  6.925   6.991   7.100   7.139   7.354   7.649  43.311  43.329
 43.338  43.373  43.388  43.405  43.443  43.467  43.493  43.554
 45.115  45.148  45.176  45.604  45.701  46.100  49.331  49.339
 --------------------------------------------------------------
 
          Ground-State Mulliken Net Atomic Charges

     Atom                 Charge (a.u.)    Spin (a.u.)
  --------------------------------------------------------
      1 O                     0.131382       0.497962
      2 O                     0.131718       0.497905
      3 H                     0.368458       0.002095
      4 H                     0.368442       0.002037
  --------------------------------------------------------
  Sum of atomic charges =     1.000000
  Sum of spin   charges =     1.000000

 -----------------------------------------------------------------
                    Cartesian Multipole Moments
 -----------------------------------------------------------------
    Charge (ESU x 10^10)
                 4.8032
    Dipole Moment (Debye)
         X       1.0220      Y       1.7238      Z       3.4971
       Tot       4.0306
    Quadrupole Moments (Debye-Ang)
        XX      -7.4537     XY      -0.8605     YY      -8.3954
        XZ      -2.5969     YZ       3.2349     ZZ      -3.4095
    Octapole Moments (Debye-Ang^2)
       XXX       1.6455    XXY       0.1839    XYY      -1.1067
       YYY       0.7253    XXZ      -7.2075    XYZ      -1.6009
       YYZ      -4.3271    XZZ      -3.5363    YZZ       5.1210
       ZZZ     -11.1500
    Hexadecapole Moments (Debye-Ang^3)
      XXXX      -5.8972   XXXY       0.1380   XXYY      -2.3128
      XYYY      -0.5136   YYYY      -6.3085   XXXZ      -0.3645
      XXYZ       0.3513   XYYZ      -1.3220   YYYZ       1.5424
      XXZZ     -12.3019   XYZZ      -2.4314   YYZZ      -8.2199
      XZZZ      -5.1892   YZZZ       7.8828   ZZZZ     -51.4161
 -----------------------------------------------------------------
 Total job time:  37.05s(wall), 34.33s(cpu) 
 Tue Apr 30 21:16:51 2013

        *************************************************************
        *                                                           *
        *  Thank you very much for using Q-Chem.  Have a nice day.  *
        *                                                           *
        *************************************************************


0 sent ACK to 0 
now end server 0 ... 
