Process 0 of 1 is on cl054.stfx.acenet.ca - thread support 1
initial socket setup ...start
initial socket setup ...done 
now start server 0 ... 

cmd = /usr/bin/ssh clhead /usr/local/qchem/bin/get_hostid 28466419 > /scratch/tmp/6027729.1.short.q/qchem10994/lic.dat
                  Welcome to Q-Chem
     A Quantum Leap Into The Future Of Chemistry

 Y. Shao, L. Fusti-Molnar, Y. Jung, J. Kussmann, C. Ochsenfeld,
 S. T. Brown, A. T. B. Gilbert, L. V. Slipchenko,S. V. Levchenko,
 D. P. O'Neill, R. A. DiStasio Jr., R. C. Lochan, T. Wang,
 G. J. O. Beran, N. A. Besley, J. M. Herbert, C. Y. Lin,
 T. Van Voorhis, S. H. Chien, A. Sodt, R. P. Steele, 
 V. A. Rassolov, P. E. Maslen, P. P. Korambath, R. D. Adamson,
 B. Austin, J. Baker, E. F. C. Byrd, H. Dachsel, R. J. Doerksen,
 A. Dreuw, B. D. Dunietz, A. D. Dutoi, T. R. Furlani,
 S. R. Gwaltney, A. Heyden, S. Hirata, C.-P. Hsu, G. Kedziora,
 R. Z. Khaliullin, P. Klunzinger, A. M. Lee, M. S. Lee, W. Liang,
 I. Lotan, N. Nair, B. Peters, E. I. Proynov, P. A. Pieniazek, 
 Y. M. Rhee, J. Ritchie, E. Rosta, C. D. Sherrill, 
 A. C. Simmonett, J. E. Subotnik, H. L. Woodcock III,
 W. Zhang, A. T. Bell, A. K. Chakraborty, D. M. Chipman,
 F. J. Keil, A. Warshel, W. J. Hehre, H. F. Schaefer III,
 J. Kong, A. I. Krylov, P. M. W. Gill, M. Head-Gordon,
 Q-Chem, Version 3.1, Q-Chem, Inc., Pittsburgh, PA (2007).

 Additional authors for Version 3.1: 
 Z. Gan, Y. Zhao, N. E. Schultz, D. Truhlar, E. Epifanovsky and M. Oana.

 Additional authors for Version 3.2: 
 R. Baer, B. R. Brooks, D. Casanova, J.-D. Chai, C.-L. Cheng, 
 C. Cramer, D. Crittenden, A. Ghysels, G. Hawkins, E. G. Hohenstein, 
 C. Kelley, W. Kurlancheek, D. Liotard, E. Livshits, P. Manohar, 
 A. Marenich, D. Neuhauser, R. Olson, M. A. Rohrdanz, K. S. Thanthiriwatte, 
 A. J. W. Thom, V. Vanovschi, C. F. Williams, Q. Wu and Z.-Q. You. 


 Intel X86 Linux Version

 Q-chem begins on Mon Jun  3 17:03:51 2013  

 Parallel job on  1  processors
Processing $rem in /usr/local/qchem/config/preferences.

theFileMan(): MAXOPENFILES=974 MAX_SUB_FILE_NUM=16
Maximum size of a physical file is 2.0 GB, maximum size of a tmp-file is 32.0 GB


--------------------------------------------------------------
User input:
--------------------------------------------------------------

$molecule
-1,2
O
C1,O,r1
H1,C1,r2,O,a1
H,O,roh,C1,aoh,H1,toh,0
C2,C1,r3a,O,a2a,H1,t1a,0
C3,C1,r3b,O,a2b,H1,-t1b,0
H,C2,r4a,C1,a4a,H1,t2a,0
H,C3,r5a,C1,a5a,H1,-t2b,0
H,C2,r4b,C1,a4b,H1,t3a,0
H,C3,r5b,C1,a5b,H1,-t3b,0
H,C2,r4c,C1,a4c,H1,-t4a,0
H,C3,r5c,C1,a5c,H1,t4b,0

r1=1.43111827
r2=1.9557364
roh=2.07916264
r3a=1.52393712
r3b=1.53017411
r4a=1.09587708
r5a=1.09583825
r4b=1.09448657
r5b=1.09801539
r4c=1.0954512
r5c=1.0964078
a1=28.22171182
aoh=30.02045037
a2a=106.21524706
a2b=111.13113306
a4a=110.2041443
a5a=110.24366741
a4b=110.29321839
a5b=111.03931704
a4c=110.82961388
a5c=111.23833611
toh=-62.32359188
t1a=179.44473237
t1b=57.80032287
t2a=63.0172795
t2b=83.272013
t3a=-56.37337218
t3b=-36.4963859
t4a=176.72748761
t4b=156.21533884

$end

$comment
negative
$end

$xc_functional
C PBE   1.00
X wPBE  1.00
$end

$rem
SYMMETRY_DECOMPOSITION	0
exchange 		general
LRC_DFT                 true
BASIS                   g3large
omega			1050
mem_static              760
max_scf_cycles          200
scf_final_print         1
sym_ignore              true
$end

--------------------------------------------------------------
 Writing REM_CC_EA           12
 ----------------------------------------------------
       Standard Nuclear Orientation (Angstroms)
    I     Atom         X            Y            Z
 ----------------------------------------------------
    1      O       0.000000     0.000000     0.000000
    2      C       0.000000     0.000000     1.431118
    3      H       0.924838     0.000000    -0.292129
    4      H       0.483161     0.921207     1.800236
    5      C      -1.463245     0.014181     1.856673
    6      C       0.760558    -1.207760     1.982752
    7      H      -1.967442    -0.894454     1.508657
    8      H       0.298586    -2.138301     1.634130
    9      H      -1.976608     0.877600     1.422084
   10      H       1.806714    -1.200668     1.649367
   11      H      -1.551233     0.066921     2.947310
   12      H       0.763328    -1.208441     3.079156
 ----------------------------------------------------
 Nuclear Repulsion Energy =   134.3979926221 hartrees
 There are       18 alpha and       17 beta electrons
 Requested basis set is G3large
 There are 88 shells and 248 basis functions

Total QAlloc Memory Limit   2000 MB
Mega-Array Size       743 MB
MEM_STATIC part       760 MB

                       Distance Matrix (Angstroms)
             O (  1)   C (  2)   H (  3)   H (  4)   C (  5)   C (  6)
   C (  2)  1.431118
   H (  3)  0.969878  1.955736
   H (  4)  2.079163  1.103773  2.328453
   C (  5)  2.364005  1.523937  3.212552  2.148110
   C (  6)  2.443039  1.530174  2.580844  2.154707  2.540539
   H (  7)  2.635701  2.162611  3.522521  3.063836  1.095877  2.786558
   H (  8)  2.707742  2.168571  2.945335  3.069568  2.790476  1.095838
   H (  9)  2.588336  2.162693  3.482398  2.489048  1.094487  3.486424
   H ( 10)  2.725111  2.180241  2.447185  2.505376  3.494491  1.098015
   H ( 11)  3.331282  2.170171  4.077912  2.486833  1.095451  2.810617
   H ( 12)  3.394731  2.181519  3.584965  2.499906  2.819024  1.096408
             H (  7)   H (  8)   H (  9)   H ( 10)   H ( 11)
   H (  8)  2.588007
   H (  9)  1.774192  3.783799
   H ( 10)  3.789170  1.775904  4.322543
   H ( 11)  1.779661  3.163745  1.778892  3.816706
   H ( 12)  3.165779  1.780091  3.821610  1.770031  2.645964
 
 A cutoff of  1.0D-08 yielded   3639 shell pairs
 There are  28920 function pairs ( 34904 Cartesian)
Evaluating contribution to one-electron hamiltonian from nuclear
 Smallest overlap matrix eigenvalue = 4.89E-05

 Q-Chem warning in module mkSTV.C, line 194:

 Overlap eigenvalue is smaller than square root of threshold

 Multipole matrices computed through 2nd order

  Scale SEOQF with 1.000000e-01/1.000000e-01/1.000000e-01

 Standard Electronic Orientation quadrupole field applied
 Nucleus-field energy     =    -0.0000000069 hartrees
 Guess from superposition of atomic densities
 Warning:  Energy on first SCF cycle will be non-variational
 Long-range K will be added via erf
 Coulomb attenuation parameter = 1.05 bohr**(-1)
 An unrestricted Kohn-Sham SCF calculation will be
 performed using Pulay DIIS extrapolation
 Exchange:  wPBE + LR-HF      Correlation:  PBE
 Using SG-1 standard quadrature grid
 SCF converges when DIIS error is below 1.0E-05
 Requested basis set is G3large
 There are 88 shells and 248 basis functions
 A cutoff of  1.0D-08 yielded   3639 shell pairs
 There are  28920 function pairs ( 34904 Cartesian)
 Warning!  Inaccurate integrated density:
   Number of electrons =    35
   Numerical integral  =    34.000227111547
   Relative error      =    -2.8564939670 %
 ---------------------------------------
  Cycle       Energy         DIIS Error
 ---------------------------------------
    1    -195.3635146814      2.85E-02
    2    -194.1282872817      3.66E-03
    3    -194.2370437098      2.16E-03
    4    -194.2662847987      5.13E-04
    5    -194.2707984586      1.70E-04
    6    -194.2717264930      5.71E-05
    7    -194.2720726705      2.82E-05
    8    -194.2722926294      2.01E-05
    9    -194.2724617174      1.40E-05
   10    -194.2725809258      6.59E-06 Convergence criterion met
 ---------------------------------------
 One-Electron    Energy =  -533.4890147984
 Total Coulomb   Energy =   232.6980678332
 Alpha Exchange  Energy =    -6.5851647840
 Beta  Exchange  Energy =    -6.5077703188
 DFT   Exchange  Energy =   -13.6689675660
 DFT Correlation Energy =    -1.1177239071
 Nuclear Repu.   Energy =   134.3979926152
 Nuclear Attr.   Energy =  -726.7097070062
 Kinetic         Energy =   193.2206922078
 <S^2> = 0.7501
 SCF time:  CPU 292.66 s  wall 294.71 s
 Final Alpha MO Eigenvalues
            1           2           3           4           5           6
    1 -19.1459477 -10.3669611 -10.3088692 -10.2937109  -1.2010922  -0.9238030
            7           8           9          10          11          12
    1  -0.8266792  -0.6894664  -0.5883650  -0.5223721  -0.4984859  -0.4416069
           13          14          15          16          17          18
    1  -0.4390919  -0.4244958  -0.4044399  -0.3679962  -0.3264178   0.0269704
           19          20          21          22          23
    1   0.1314948   0.1402715   0.1439992   0.1690098   0.1757597
 Final Beta MO Eigenvalues
            1           2           3           4           5           6
    1 -19.1457460 -10.3667324 -10.3088155 -10.2932757  -1.2001417  -0.9228183
            7           8           9          10          11          12
    1  -0.8253050  -0.6879972  -0.5868576  -0.5208562  -0.4981461  -0.4412918
           13          14          15          16          17          18
    1  -0.4389117  -0.4241754  -0.4039263  -0.3674021  -0.3255738   0.1321888
           19          20          21          22
    1   0.1498866   0.1539389   0.1579044   0.1736954
 Analysis of SCF Wavefunction
 
 --------------------------------------------------------------
                    Orbital Energies (a.u.)
 --------------------------------------------------------------
 
 Alpha MOs
 -- Occupied --
-19.146 -10.367 -10.309 -10.294  -1.201  -0.924  -0.827  -0.689
 -0.588  -0.522  -0.498  -0.442  -0.439  -0.424  -0.404  -0.368
 -0.326   0.027
 -- Virtual --
  0.131   0.140   0.144   0.169   0.176   0.179   0.188   0.238
  0.244   0.267   0.277   0.278   0.283   0.284   0.298   0.304
  0.308   0.328   0.345   0.379   0.396   0.413   0.421   0.436
  0.442   0.468   0.482   0.486   0.497   0.504   0.521   0.552
  0.570   0.590   0.646   0.665   0.699   0.723   0.738   0.744
  0.790   0.813   0.819   0.830   0.831   0.842   0.854   0.883
  0.893   0.909   0.915   0.938   0.949   0.976   1.016   1.065
  1.081   1.132   1.137   1.181   1.210   1.232   1.252   1.276
  1.315   1.348   1.361   1.391   1.413   1.428   1.450   1.469
  1.482   1.508   1.522   1.562   1.587   1.600   1.614   1.627
  1.637   1.653   1.677   1.706   1.753   1.766   1.779   1.797
  1.810   1.851   1.859   1.894   1.913   1.922   1.964   1.967
  2.111   2.219   2.396   2.430   2.640   2.691   2.759   2.881
  2.907   2.946   2.950   3.020   3.066   3.089   3.183   3.206
  3.225   3.251   3.299   3.321   3.327   3.367   3.399   3.491
  3.510   3.543   3.549   3.583   3.612   3.674   3.707   3.718
  3.728   3.751   3.802   3.830   3.914   3.935   3.941   3.967
  3.986   4.039   4.081   4.095   4.136   4.162   4.202   4.223
  4.261   4.298   4.376   4.378   4.393   4.406   4.440   4.508
  4.542   4.587   4.595   4.612   4.621   4.641   4.686   4.713
  4.727   4.735   4.821   4.843   4.880   4.949   4.973   5.005
  5.013   5.055   5.118   5.241   5.520   5.604   5.656   5.710
  5.794   5.820   5.914   5.958   6.000   6.053   6.074   6.098
  6.117   6.274   6.359   6.882   7.460   7.607   7.696   7.742
  8.028   8.145  24.591  24.700  24.802  28.030  28.202  28.505
 28.545  28.575  28.596  28.611  28.794  28.903  41.396  41.447
 41.460  41.465  41.497  41.501  41.588  41.618  41.633  41.648
 41.651  41.676  41.680  41.717  41.749  44.323  44.353  44.395
 44.438  44.506  46.189  46.503  46.876  50.409
 
 Beta MOs
 -- Occupied --
-19.146 -10.367 -10.309 -10.293  -1.200  -0.923  -0.825  -0.688
 -0.587  -0.521  -0.498  -0.441  -0.439  -0.424  -0.404  -0.367
 -0.326
 -- Virtual --
  0.132   0.150   0.154   0.158   0.174   0.183   0.186   0.194
  0.238   0.244   0.264   0.276   0.277   0.281   0.286   0.298
  0.306   0.309   0.327   0.344   0.379   0.396   0.413   0.421
  0.435   0.441   0.466   0.481   0.485   0.495   0.503   0.518
  0.551   0.567   0.588   0.645   0.664   0.698   0.722   0.737
  0.743   0.788   0.812   0.818   0.829   0.830   0.839   0.855
  0.881   0.892   0.907   0.915   0.937   0.947   0.976   1.016
  1.065   1.081   1.132   1.137   1.181   1.210   1.232   1.252
  1.276   1.315   1.348   1.361   1.391   1.413   1.428   1.449
  1.468   1.481   1.508   1.522   1.562   1.587   1.600   1.614
  1.627   1.636   1.653   1.676   1.706   1.752   1.765   1.778
  1.797   1.809   1.851   1.859   1.893   1.913   1.922   1.964
  1.967   2.111   2.219   2.396   2.430   2.640   2.691   2.759
  2.881   2.906   2.946   2.950   3.020   3.066   3.089   3.183
  3.207   3.225   3.251   3.299   3.321   3.328   3.367   3.400
  3.491   3.510   3.544   3.550   3.584   3.613   3.674   3.707
  3.718   3.728   3.751   3.802   3.830   3.914   3.935   3.941
  3.967   3.986   4.039   4.081   4.096   4.137   4.162   4.202
  4.223   4.261   4.298   4.376   4.378   4.393   4.406   4.440
  4.508   4.542   4.587   4.595   4.612   4.621   4.641   4.686
  4.714   4.727   4.735   4.821   4.843   4.880   4.949   4.973
  5.005   5.013   5.055   5.118   5.241   5.520   5.604   5.656
  5.710   5.795   5.820   5.914   5.958   6.000   6.053   6.075
  6.098   6.117   6.275   6.360   6.882   7.460   7.607   7.696
  7.742   8.029   8.146  24.592  24.700  24.802  28.031  28.202
 28.505  28.545  28.575  28.596  28.611  28.795  28.903  41.396
 41.447  41.460  41.466  41.498  41.501  41.588  41.618  41.633
 41.648  41.651  41.676  41.680  41.717  41.750  44.323  44.353
 44.396  44.438  44.506  46.189  46.503  46.876  50.409
 --------------------------------------------------------------
 
          Ground-State Mulliken Net Atomic Charges

     Atom                 Charge (a.u.)    Spin (a.u.)
  --------------------------------------------------------
      1 O                    -0.414655       0.068569
      2 C                     0.111155      -0.047687
      3 H                    -0.176916       0.457171
      4 H                    -0.873981       0.951977
      5 C                     0.481660      -0.749126
      6 C                     2.165073      -2.417417
      7 H                     0.066329       0.007524
      8 H                    -0.212508       0.289089
      9 H                    -0.086661       0.168487
     10 H                    -1.608767       1.696941
     11 H                    -0.077018       0.140345
     12 H                    -0.373710       0.434127
  --------------------------------------------------------
  Sum of atomic charges =    -1.000000
  Sum of spin   charges =     1.000000

 -----------------------------------------------------------------
                    Cartesian Multipole Moments
 -----------------------------------------------------------------
    Charge (ESU x 10^10)
                -4.8032
    Dipole Moment (Debye)
         X      -7.9823      Y       0.7696      Z      -6.3542
       Tot      10.2316
    Quadrupole Moments (Debye-Ang)
        XX     -65.8194     XY       4.6656     YY     -49.7380
        XZ     -12.2249     YZ       0.4739     ZZ     -62.7076
    Octapole Moments (Debye-Ang^2)
       XXX    -122.4194    XXY      27.2385    XYY     -33.9689
       YYY      40.8908    XXZ     -95.5571    XYZ       5.5669
       YYZ     -76.0871    XZZ     -48.2350    YZZ      15.8739
       ZZZ    -252.5458
    Hexadecapole Moments (Debye-Ang^3)
      XXXX    -854.5696   XXXY     121.6481   XXYY    -208.5190
      XYYY      77.9035   YYYY    -408.7497   XXXZ    -151.4120
      XXYZ      41.8352   XYYZ     -43.5985   YYYZ      73.0751
      XXZZ    -347.5972   XYZZ      33.2853   YYZZ    -267.1847
      XZZZ    -144.2257   YZZZ      85.4916   ZZZZ   -1216.1505
 -----------------------------------------------------------------
 Total job time:  295.11s(wall), 293.02s(cpu) 
 Mon Jun  3 17:08:46 2013

        *************************************************************
        *                                                           *
        *  Thank you very much for using Q-Chem.  Have a nice day.  *
        *                                                           *
        *************************************************************


0 sent ACK to 0 
now end server 0 ... 
 
**********************************************************************
Job 2 of 3 
**********************************************************************
 
Process 0 of 1 is on cl054.stfx.acenet.ca - thread support 1
initial socket setup ...start
initial socket setup ...done 
now start server 0 ... 

cmd = /usr/bin/ssh clhead /usr/local/qchem/bin/get_hostid 654401845 > /scratch/tmp/6027729.1.short.q/qchem10994/lic.dat
                  Welcome to Q-Chem
     A Quantum Leap Into The Future Of Chemistry

 Y. Shao, L. Fusti-Molnar, Y. Jung, J. Kussmann, C. Ochsenfeld,
 S. T. Brown, A. T. B. Gilbert, L. V. Slipchenko,S. V. Levchenko,
 D. P. O'Neill, R. A. DiStasio Jr., R. C. Lochan, T. Wang,
 G. J. O. Beran, N. A. Besley, J. M. Herbert, C. Y. Lin,
 T. Van Voorhis, S. H. Chien, A. Sodt, R. P. Steele, 
 V. A. Rassolov, P. E. Maslen, P. P. Korambath, R. D. Adamson,
 B. Austin, J. Baker, E. F. C. Byrd, H. Dachsel, R. J. Doerksen,
 A. Dreuw, B. D. Dunietz, A. D. Dutoi, T. R. Furlani,
 S. R. Gwaltney, A. Heyden, S. Hirata, C.-P. Hsu, G. Kedziora,
 R. Z. Khaliullin, P. Klunzinger, A. M. Lee, M. S. Lee, W. Liang,
 I. Lotan, N. Nair, B. Peters, E. I. Proynov, P. A. Pieniazek, 
 Y. M. Rhee, J. Ritchie, E. Rosta, C. D. Sherrill, 
 A. C. Simmonett, J. E. Subotnik, H. L. Woodcock III,
 W. Zhang, A. T. Bell, A. K. Chakraborty, D. M. Chipman,
 F. J. Keil, A. Warshel, W. J. Hehre, H. F. Schaefer III,
 J. Kong, A. I. Krylov, P. M. W. Gill, M. Head-Gordon,
 Q-Chem, Version 3.1, Q-Chem, Inc., Pittsburgh, PA (2007).

 Additional authors for Version 3.1: 
 Z. Gan, Y. Zhao, N. E. Schultz, D. Truhlar, E. Epifanovsky and M. Oana.

 Additional authors for Version 3.2: 
 R. Baer, B. R. Brooks, D. Casanova, J.-D. Chai, C.-L. Cheng, 
 C. Cramer, D. Crittenden, A. Ghysels, G. Hawkins, E. G. Hohenstein, 
 C. Kelley, W. Kurlancheek, D. Liotard, E. Livshits, P. Manohar, 
 A. Marenich, D. Neuhauser, R. Olson, M. A. Rohrdanz, K. S. Thanthiriwatte, 
 A. J. W. Thom, V. Vanovschi, C. F. Williams, Q. Wu and Z.-Q. You. 


 Intel X86 Linux Version

 Q-chem begins on Mon Jun  3 17:08:49 2013  

 Parallel job on  1  processors
Processing $rem in /usr/local/qchem/config/preferences.

theFileMan(): MAXOPENFILES=974 MAX_SUB_FILE_NUM=16
Maximum size of a physical file is 2.0 GB, maximum size of a tmp-file is 32.0 GB


--------------------------------------------------------------
User input:
--------------------------------------------------------------

$molecule
0,1
O
C1,O,r1
H1,C1,r2,O,a1
H,O,roh,C1,aoh,H1,toh,0
C2,C1,r3a,O,a2a,H1,t1a,0
C3,C1,r3b,O,a2b,H1,-t1b,0
H,C2,r4a,C1,a4a,H1,t2a,0
H,C3,r5a,C1,a5a,H1,-t2b,0
H,C2,r4b,C1,a4b,H1,t3a,0
H,C3,r5b,C1,a5b,H1,-t3b,0
H,C2,r4c,C1,a4c,H1,-t4a,0
H,C3,r5c,C1,a5c,H1,t4b,0

r1=1.43111827
r2=1.9557364
roh=2.07916264
r3a=1.52393712
r3b=1.53017411
r4a=1.09587708
r5a=1.09583825
r4b=1.09448657
r5b=1.09801539
r4c=1.0954512
r5c=1.0964078
a1=28.22171182
aoh=30.02045037
a2a=106.21524706
a2b=111.13113306
a4a=110.2041443
a5a=110.24366741
a4b=110.29321839
a5b=111.03931704
a4c=110.82961388
a5c=111.23833611
toh=-62.32359188
t1a=179.44473237
t1b=57.80032287
t2a=63.0172795
t2b=83.272013
t3a=-56.37337218
t3b=-36.4963859
t4a=176.72748761
t4b=156.21533884

$end

$comment
neutral
$end

$xc_functional
C PBE   1.00
X wPBE  1.00
$end


$rem
SYMMETRY_DECOMPOSITION	0
LRC_DFT                 true
exchange 		general
BASIS                   g3large
omega			1050
mem_static              760
max_scf_cycles          200
scf_final_print         1
sym_ignore              true
$end

--------------------------------------------------------------
 Writing REM_CC_EA           12
 ----------------------------------------------------
       Standard Nuclear Orientation (Angstroms)
    I     Atom         X            Y            Z
 ----------------------------------------------------
    1      O       0.000000     0.000000     0.000000
    2      C       0.000000     0.000000     1.431118
    3      H       0.924838     0.000000    -0.292129
    4      H       0.483161     0.921207     1.800236
    5      C      -1.463245     0.014181     1.856673
    6      C       0.760558    -1.207760     1.982752
    7      H      -1.967442    -0.894454     1.508657
    8      H       0.298586    -2.138301     1.634130
    9      H      -1.976608     0.877600     1.422084
   10      H       1.806714    -1.200668     1.649367
   11      H      -1.551233     0.066921     2.947310
   12      H       0.763328    -1.208441     3.079156
 ----------------------------------------------------
 Nuclear Repulsion Energy =   134.3979926221 hartrees
 There are       17 alpha and       17 beta electrons
 Requested basis set is G3large
 There are 88 shells and 248 basis functions

Total QAlloc Memory Limit   2000 MB
Mega-Array Size       743 MB
MEM_STATIC part       760 MB

                       Distance Matrix (Angstroms)
             O (  1)   C (  2)   H (  3)   H (  4)   C (  5)   C (  6)
   C (  2)  1.431118
   H (  3)  0.969878  1.955736
   H (  4)  2.079163  1.103773  2.328453
   C (  5)  2.364005  1.523937  3.212552  2.148110
   C (  6)  2.443039  1.530174  2.580844  2.154707  2.540539
   H (  7)  2.635701  2.162611  3.522521  3.063836  1.095877  2.786558
   H (  8)  2.707742  2.168571  2.945335  3.069568  2.790476  1.095838
   H (  9)  2.588336  2.162693  3.482398  2.489048  1.094487  3.486424
   H ( 10)  2.725111  2.180241  2.447185  2.505376  3.494491  1.098015
   H ( 11)  3.331282  2.170171  4.077912  2.486833  1.095451  2.810617
   H ( 12)  3.394731  2.181519  3.584965  2.499906  2.819024  1.096408
             H (  7)   H (  8)   H (  9)   H ( 10)   H ( 11)
   H (  8)  2.588007
   H (  9)  1.774192  3.783799
   H ( 10)  3.789170  1.775904  4.322543
   H ( 11)  1.779661  3.163745  1.778892  3.816706
   H ( 12)  3.165779  1.780091  3.821610  1.770031  2.645964
 
 A cutoff of  1.0D-08 yielded   3639 shell pairs
 There are  28920 function pairs ( 34904 Cartesian)
Evaluating contribution to one-electron hamiltonian from nuclear
 Smallest overlap matrix eigenvalue = 4.89E-05

 Q-Chem warning in module mkSTV.C, line 194:

 Overlap eigenvalue is smaller than square root of threshold

 Multipole matrices computed through 2nd order

  Scale SEOQF with 1.000000e-01/1.000000e-01/1.000000e-01

 Standard Electronic Orientation quadrupole field applied
 Nucleus-field energy     =    -0.0000000069 hartrees
 Guess from superposition of atomic densities
 Warning:  Energy on first SCF cycle will be non-variational
 Long-range K will be added via erf
 Coulomb attenuation parameter = 1.05 bohr**(-1)
 A restricted Kohn-Sham SCF calculation will be
 performed using Pulay DIIS extrapolation
 Exchange:  wPBE + LR-HF      Correlation:  PBE
 Using SG-1 standard quadrature grid
 SCF converges when DIIS error is below 1.0E-05
 Requested basis set is G3large
 There are 88 shells and 248 basis functions
 A cutoff of  1.0D-08 yielded   3639 shell pairs
 There are  28920 function pairs ( 34904 Cartesian)
 ---------------------------------------
  Cycle       Energy         DIIS Error
 ---------------------------------------
    1    -195.3635146814      2.85E-02
    2    -194.1941680704      3.53E-03
    3    -194.2827009307      1.86E-03
    4    -194.3016445898      5.21E-04
    5    -194.3039436002      1.34E-04
    6    -194.3041554236      3.72E-05
    7    -194.3041710834      9.41E-06 Convergence criterion met
 ---------------------------------------
 One-Electron    Energy =  -529.1112377254
 Total Coulomb   Energy =   228.2097887027
 Alpha Exchange  Energy =    -6.5116675161
 Beta  Exchange  Energy =    -6.5116675161
 DFT   Exchange  Energy =   -13.6670240767
 DFT Correlation Energy =    -1.1103555669
 Nuclear Repu.   Energy =   134.3979926152
 Nuclear Attr.   Energy =  -722.2727839829
 Kinetic         Energy =   193.1615462575
 SCF time:  CPU 156.17 s  wall 157.64 s
 Final Alpha MO Eigenvalues
            1           2           3           4           5           6
    1 -19.2795162 -10.4995638 -10.4332275 -10.4255868  -1.3339123  -1.0523859
            7           8           9          10          11          12
    1  -0.9546720  -0.8181294  -0.7194763  -0.6516002  -0.6302917  -0.5718408
           13          14          15          16          17          18
    1  -0.5591305  -0.5531358  -0.5351326  -0.4980440  -0.4587381   0.0383130
           19          20          21          22
    1   0.0553976   0.0580102   0.0630891   0.0834255
 Analysis of SCF Wavefunction
 
 --------------------------------------------------------------
                    Orbital Energies (a.u.)
 --------------------------------------------------------------
 
 Alpha MOs
 -- Occupied --
-19.280 -10.500 -10.433 -10.426  -1.334  -1.052  -0.955  -0.818
 -0.719  -0.652  -0.630  -0.572  -0.559  -0.553  -0.535  -0.498
 -0.459
 -- Virtual --
  0.038   0.055   0.058   0.063   0.083   0.086   0.093   0.098
  0.136   0.145   0.163   0.171   0.175   0.178   0.183   0.191
  0.199   0.203   0.227   0.236   0.265   0.278   0.293   0.301
  0.318   0.322   0.346   0.363   0.367   0.380   0.388   0.407
  0.430   0.450   0.471   0.526   0.545   0.575   0.596   0.616
  0.624   0.667   0.689   0.699   0.705   0.710   0.711   0.728
  0.754   0.768   0.778   0.788   0.819   0.825   0.846   0.891
  0.937   0.953   1.005   1.008   1.052   1.082   1.105   1.124
  1.147   1.189   1.223   1.235   1.262   1.285   1.305   1.320
  1.340   1.357   1.380   1.396   1.439   1.457   1.472   1.486
  1.502   1.508   1.526   1.546   1.575   1.624   1.641   1.650
  1.668   1.686   1.722   1.734   1.766   1.786   1.794   1.832
  1.839   1.983   2.086   2.265   2.299   2.509   2.559   2.632
  2.749   2.774   2.819   2.825   2.888   2.941   2.959   3.053
  3.077   3.095   3.120   3.174   3.191   3.199   3.237   3.271
  3.364   3.377   3.420   3.421   3.453   3.482   3.548   3.578
  3.586   3.603   3.621   3.673   3.701   3.786   3.801   3.818
  3.842   3.854   3.908   3.950   3.964   4.005   4.027   4.071
  4.097   4.131   4.168   4.241   4.249   4.265   4.280   4.314
  4.378   4.410   4.456   4.464   4.485   4.495   4.512   4.553
  4.582   4.599   4.604   4.697   4.710   4.753   4.819   4.849
  4.869   4.889   4.925   4.989   5.112   5.389   5.473   5.524
  5.578   5.668   5.688   5.782   5.827   5.867   5.921   5.952
  5.969   5.989   6.142   6.228   6.750   7.327   7.471   7.564
  7.610   7.896   8.014  24.461  24.572  24.672  27.899  28.072
 28.372  28.420  28.444  28.471  28.480  28.665  28.772  41.267
 41.316  41.327  41.342  41.360  41.378  41.456  41.487  41.508
 41.512  41.521  41.540  41.558  41.598  41.613  44.190  44.220
 44.262  44.304  44.372  46.056  46.369  46.742  50.275
 --------------------------------------------------------------
 
          Ground-State Mulliken Net Atomic Charges

     Atom                 Charge (a.u.)
  ----------------------------------------
      1 O                    -0.321729
      2 C                     0.048153
      3 H                     0.257451
      4 H                     0.063272
      5 C                    -0.254045
      6 C                    -0.265208
      7 H                     0.088599
      8 H                     0.101748
      9 H                     0.092825
     10 H                     0.059740
     11 H                     0.063695
     12 H                     0.065499
  ----------------------------------------
  Sum of atomic charges =     0.000000

 -----------------------------------------------------------------
                    Cartesian Multipole Moments
 -----------------------------------------------------------------
    Charge (ESU x 10^10)
                 0.0000
    Dipole Moment (Debye)
         X       1.3842      Y      -0.0636      Z       1.2086
       Tot       1.8387
    Quadrupole Moments (Debye-Ang)
        XX     -24.2212     XY       0.1299     YY     -26.1944
        XZ      -0.9646     YZ      -0.0375     ZZ     -24.1088
    Octapole Moments (Debye-Ang^2)
       XXX      16.1213    XXY       8.9865    XYY       3.5544
       YYY      25.9972    XXZ     -37.6818    XYZ       0.2214
       YYZ     -36.5174    XZZ       4.8293    YZZ       8.8214
       ZZZ    -104.9823
    Hexadecapole Moments (Debye-Ang^3)
      XXXX    -173.7619   XXXY      21.3916   XXYY     -47.3470
      XYYY      24.4833   YYYY    -112.9144   XXXZ      27.4835
      XXYZ      18.2978   XYYZ       8.2935   YYYZ      54.2127
      XXZZ    -107.0541   XYZZ       7.4947   YYZZ     -96.5708
      XZZZ      25.7622   YZZZ      52.1898   ZZZZ    -427.1924
 -----------------------------------------------------------------
 Total job time:  158.00s(wall), 156.50s(cpu) 
 Mon Jun  3 17:11:27 2013

        *************************************************************
        *                                                           *
        *  Thank you very much for using Q-Chem.  Have a nice day.  *
        *                                                           *
        *************************************************************


0 sent ACK to 0 
now end server 0 ... 
 
**********************************************************************
Job 3 of 3 
**********************************************************************
 
Process 0 of 1 is on cl054.stfx.acenet.ca - thread support 1
initial socket setup ...start
initial socket setup ...done 
now start server 0 ... 

cmd = /usr/bin/ssh clhead /usr/local/qchem/bin/get_hostid 13172527 > /scratch/tmp/6027729.1.short.q/qchem10994/lic.dat
                  Welcome to Q-Chem
     A Quantum Leap Into The Future Of Chemistry

 Y. Shao, L. Fusti-Molnar, Y. Jung, J. Kussmann, C. Ochsenfeld,
 S. T. Brown, A. T. B. Gilbert, L. V. Slipchenko,S. V. Levchenko,
 D. P. O'Neill, R. A. DiStasio Jr., R. C. Lochan, T. Wang,
 G. J. O. Beran, N. A. Besley, J. M. Herbert, C. Y. Lin,
 T. Van Voorhis, S. H. Chien, A. Sodt, R. P. Steele, 
 V. A. Rassolov, P. E. Maslen, P. P. Korambath, R. D. Adamson,
 B. Austin, J. Baker, E. F. C. Byrd, H. Dachsel, R. J. Doerksen,
 A. Dreuw, B. D. Dunietz, A. D. Dutoi, T. R. Furlani,
 S. R. Gwaltney, A. Heyden, S. Hirata, C.-P. Hsu, G. Kedziora,
 R. Z. Khaliullin, P. Klunzinger, A. M. Lee, M. S. Lee, W. Liang,
 I. Lotan, N. Nair, B. Peters, E. I. Proynov, P. A. Pieniazek, 
 Y. M. Rhee, J. Ritchie, E. Rosta, C. D. Sherrill, 
 A. C. Simmonett, J. E. Subotnik, H. L. Woodcock III,
 W. Zhang, A. T. Bell, A. K. Chakraborty, D. M. Chipman,
 F. J. Keil, A. Warshel, W. J. Hehre, H. F. Schaefer III,
 J. Kong, A. I. Krylov, P. M. W. Gill, M. Head-Gordon,
 Q-Chem, Version 3.1, Q-Chem, Inc., Pittsburgh, PA (2007).

 Additional authors for Version 3.1: 
 Z. Gan, Y. Zhao, N. E. Schultz, D. Truhlar, E. Epifanovsky and M. Oana.

 Additional authors for Version 3.2: 
 R. Baer, B. R. Brooks, D. Casanova, J.-D. Chai, C.-L. Cheng, 
 C. Cramer, D. Crittenden, A. Ghysels, G. Hawkins, E. G. Hohenstein, 
 C. Kelley, W. Kurlancheek, D. Liotard, E. Livshits, P. Manohar, 
 A. Marenich, D. Neuhauser, R. Olson, M. A. Rohrdanz, K. S. Thanthiriwatte, 
 A. J. W. Thom, V. Vanovschi, C. F. Williams, Q. Wu and Z.-Q. You. 


 Intel X86 Linux Version

 Q-chem begins on Mon Jun  3 17:11:29 2013  

 Parallel job on  1  processors
Processing $rem in /usr/local/qchem/config/preferences.

theFileMan(): MAXOPENFILES=974 MAX_SUB_FILE_NUM=16
Maximum size of a physical file is 2.0 GB, maximum size of a tmp-file is 32.0 GB


--------------------------------------------------------------
User input:
--------------------------------------------------------------

$molecule
1,2
O
C1,O,r1
H1,C1,r2,O,a1
H,O,roh,C1,aoh,H1,toh,0
C2,C1,r3a,O,a2a,H1,t1a,0
C3,C1,r3b,O,a2b,H1,-t1b,0
H,C2,r4a,C1,a4a,H1,t2a,0
H,C3,r5a,C1,a5a,H1,-t2b,0
H,C2,r4b,C1,a4b,H1,t3a,0
H,C3,r5b,C1,a5b,H1,-t3b,0
H,C2,r4c,C1,a4c,H1,-t4a,0
H,C3,r5c,C1,a5c,H1,t4b,0

r1=1.43111827
r2=1.9557364
roh=2.07916264
r3a=1.52393712
r3b=1.53017411
r4a=1.09587708
r5a=1.09583825
r4b=1.09448657
r5b=1.09801539
r4c=1.0954512
r5c=1.0964078
a1=28.22171182
aoh=30.02045037
a2a=106.21524706
a2b=111.13113306
a4a=110.2041443
a5a=110.24366741
a4b=110.29321839
a5b=111.03931704
a4c=110.82961388
a5c=111.23833611
toh=-62.32359188
t1a=179.44473237
t1b=57.80032287
t2a=63.0172795
t2b=83.272013
t3a=-56.37337218
t3b=-36.4963859
t4a=176.72748761
t4b=156.21533884

$end

$comment
positive
$end

$xc_functional
C PBE   1.00
X wPBE  1.00
$end

$rem
SYMMETRY_DECOMPOSITION	0
LRC_DFT                 true
exchange 		general
BASIS                   g3large
omega			1050
mem_static              760
max_scf_cycles          200
scf_final_print         1
sym_ignore              true
$end

--------------------------------------------------------------
 Writing REM_CC_EA           12
 ----------------------------------------------------
       Standard Nuclear Orientation (Angstroms)
    I     Atom         X            Y            Z
 ----------------------------------------------------
    1      O       0.000000     0.000000     0.000000
    2      C       0.000000     0.000000     1.431118
    3      H       0.924838     0.000000    -0.292129
    4      H       0.483161     0.921207     1.800236
    5      C      -1.463245     0.014181     1.856673
    6      C       0.760558    -1.207760     1.982752
    7      H      -1.967442    -0.894454     1.508657
    8      H       0.298586    -2.138301     1.634130
    9      H      -1.976608     0.877600     1.422084
   10      H       1.806714    -1.200668     1.649367
   11      H      -1.551233     0.066921     2.947310
   12      H       0.763328    -1.208441     3.079156
 ----------------------------------------------------
 Nuclear Repulsion Energy =   134.3979926221 hartrees
 There are       17 alpha and       16 beta electrons
 Requested basis set is G3large
 There are 88 shells and 248 basis functions

Total QAlloc Memory Limit   2000 MB
Mega-Array Size       743 MB
MEM_STATIC part       760 MB

                       Distance Matrix (Angstroms)
             O (  1)   C (  2)   H (  3)   H (  4)   C (  5)   C (  6)
   C (  2)  1.431118
   H (  3)  0.969878  1.955736
   H (  4)  2.079163  1.103773  2.328453
   C (  5)  2.364005  1.523937  3.212552  2.148110
   C (  6)  2.443039  1.530174  2.580844  2.154707  2.540539
   H (  7)  2.635701  2.162611  3.522521  3.063836  1.095877  2.786558
   H (  8)  2.707742  2.168571  2.945335  3.069568  2.790476  1.095838
   H (  9)  2.588336  2.162693  3.482398  2.489048  1.094487  3.486424
   H ( 10)  2.725111  2.180241  2.447185  2.505376  3.494491  1.098015
   H ( 11)  3.331282  2.170171  4.077912  2.486833  1.095451  2.810617
   H ( 12)  3.394731  2.181519  3.584965  2.499906  2.819024  1.096408
             H (  7)   H (  8)   H (  9)   H ( 10)   H ( 11)
   H (  8)  2.588007
   H (  9)  1.774192  3.783799
   H ( 10)  3.789170  1.775904  4.322543
   H ( 11)  1.779661  3.163745  1.778892  3.816706
   H ( 12)  3.165779  1.780091  3.821610  1.770031  2.645964
 
 A cutoff of  1.0D-08 yielded   3639 shell pairs
 There are  28920 function pairs ( 34904 Cartesian)
Evaluating contribution to one-electron hamiltonian from nuclear
 Smallest overlap matrix eigenvalue = 4.89E-05

 Q-Chem warning in module mkSTV.C, line 194:

 Overlap eigenvalue is smaller than square root of threshold

 Multipole matrices computed through 2nd order

  Scale SEOQF with 1.000000e-01/1.000000e-01/1.000000e-01

 Standard Electronic Orientation quadrupole field applied
 Nucleus-field energy     =    -0.0000000069 hartrees
 Guess from superposition of atomic densities
 Warning:  Energy on first SCF cycle will be non-variational
 Long-range K will be added via erf
 Coulomb attenuation parameter = 1.05 bohr**(-1)
 An unrestricted Kohn-Sham SCF calculation will be
 performed using Pulay DIIS extrapolation
 Exchange:  wPBE + LR-HF      Correlation:  PBE
 Using SG-1 standard quadrature grid
 SCF converges when DIIS error is below 1.0E-05
 Requested basis set is G3large
 There are 88 shells and 248 basis functions
 A cutoff of  1.0D-08 yielded   3639 shell pairs
 There are  28920 function pairs ( 34904 Cartesian)
 Warning!  Inaccurate integrated density:
   Number of electrons =    33
   Numerical integral  =    34.000227111547
   Relative error      =     3.0309912471 %
 ---------------------------------------
  Cycle       Energy         DIIS Error
 ---------------------------------------
    1    -195.3635146814      2.85E-02
    2    -193.7580011427      3.18E-03
    3    -193.8398429435      2.13E-03
    4    -193.8665396319      5.74E-04
    5    -193.8737649085      2.90E-04
    6    -193.8776920926      2.44E-04
    7    -193.8823373691      2.61E-04
    8    -193.8837930961      2.65E-04
    9    -193.8770948307      2.55E-04
   10    -193.8565770084      7.50E-04
   11    -193.8685256775      4.15E-04
   12    -193.8699850212      4.29E-04
   13    -193.8701463959      4.16E-04
   14    -193.8686254438      4.07E-04
   15    -193.8691488854      4.04E-04
   16    -193.8693665840      4.01E-04
   17    -193.8692569170      4.03E-04
   18    -193.8686488477      4.31E-04
   19    -193.8647746202      5.20E-04
   20    -193.8683097250      3.65E-04
   21    -193.8710431555      2.15E-04
   22    -193.8755006381      2.44E-04
   23    -193.8746903536      2.41E-04
   24    -193.8780323307      1.66E-04
   25    -193.8814684223      2.50E-04
   26    -193.8503214755      9.27E-04
   27    -193.8652288618      4.32E-04
   28    -193.8567688428      7.38E-04
   29    -193.8579035572      7.04E-04
   30    -193.8604012807      5.95E-04
   31    -193.8591920526      6.02E-04
   32    -193.8587793810      6.48E-04
   33    -193.8558608041      7.69E-04
   34    -193.8547241579      8.07E-04
   35    -193.8555580075      7.69E-04
   36    -193.8521007361      8.61E-04
   37    -193.8491777027      9.88E-04
   38    -193.8498558823      9.61E-04
   39    -193.8538012748      7.92E-04
   40    -193.8559067830      6.33E-04
   41    -193.8645308506      2.37E-04
   42    -193.8663054083      2.39E-04
   43    -193.8550859279      4.13E-04
   44    -193.8550745233      4.16E-04
   45    -193.8513620594      4.83E-04
   46    -193.8513773103      4.90E-04
   47    -193.8537857833      4.30E-04
   48    -193.8546321432      3.85E-04
   49    -193.8557510599      3.42E-04
   50    -193.8557862675      3.40E-04
   51    -193.8541318418      4.25E-04
   52    -193.8533760371      4.37E-04
   53    -193.8533171121      4.43E-04
   54    -193.8531000113      4.97E-04
   55    -193.8507123492      5.67E-04
   56    -193.8511381647      5.09E-04
   57    -193.8504879055      4.80E-04
   58    -193.8622649045      1.93E-04
   59    -193.8557018249      2.37E-04
   60    -193.8548465717      2.46E-04
   61    -193.8543644217      2.89E-04
   62    -193.8548504603      2.75E-04
   63    -193.8547876451      2.72E-04
   64    -193.8547280171      2.63E-04
   65    -193.8546202260      2.66E-04
   66    -193.8546542425      2.15E-04
   67    -193.8530746913      1.98E-04
   68    -193.8511121401      1.74E-04
   69    -193.8506720189      1.43E-04
   70    -193.8500949874      1.89E-04
   71    -193.8504350507      1.16E-04
   72    -193.8506904700      1.37E-05
   73    -193.8507245124      9.38E-06 Convergence criterion met
 ---------------------------------------
 One-Electron    Energy =  -520.2840894812
 Total Coulomb   Energy =   219.4544723272
 Alpha Exchange  Energy =    -6.5766737719
 Beta  Exchange  Energy =    -6.1486419531
 DFT   Exchange  Energy =   -13.6208714730
 DFT Correlation Energy =    -1.0729127755
 Nuclear Repu.   Energy =   134.3979926152
 Nuclear Attr.   Energy =  -713.1795569088
 Kinetic         Energy =   192.8954674276
 <S^2> = 0.7606
 SCF time:  CPU 2098.47 s  wall 2112.18 s
 Final Alpha MO Eigenvalues
            1           2           3           4           5           6
    1 -19.5376110 -10.8082365 -10.7229658 -10.6731815  -1.5948789  -1.3429145
            7           8           9          10          11          12
    1  -1.2197556  -1.0843244  -0.9885731  -0.9167915  -0.8971609  -0.8278063
           13          14          15          16          17          18
    1  -0.8190221  -0.8053287  -0.7892217  -0.7716438  -0.7154465  -0.1029756
           19          20          21          22
    1  -0.0781652  -0.0729381  -0.0653611  -0.0472575
 Final Beta MO Eigenvalues
            1           2           3           4           5           6
    1 -19.5343161 -10.8027310 -10.7165340 -10.6714459  -1.5796887  -1.2944682
            7           8           9          10          11          12
    1  -1.1800656  -1.0495791  -0.9631367  -0.8904723  -0.8454890  -0.8122006
           13          14          15          16          17          18
    1  -0.7988540  -0.7863281  -0.7566677  -0.7007439  -0.4078542  -0.1013120
           19          20          21
    1  -0.0764877  -0.0715503  -0.0644213
 Analysis of SCF Wavefunction
 
 --------------------------------------------------------------
                    Orbital Energies (a.u.)
 --------------------------------------------------------------
 
 Alpha MOs
 -- Occupied --
-19.538 -10.808 -10.723 -10.673  -1.595  -1.343  -1.220  -1.084
 -0.989  -0.917  -0.897  -0.828  -0.819  -0.805  -0.789  -0.772
 -0.715
 -- Virtual --
 -0.103  -0.078  -0.073  -0.065  -0.047  -0.043  -0.034  -0.025
 -0.017  -0.007   0.008   0.019   0.027   0.031   0.036   0.040
  0.049   0.057   0.068   0.079   0.082   0.094   0.117   0.123
  0.124   0.131   0.148   0.167   0.173   0.182   0.211   0.234
  0.244   0.253   0.288   0.326   0.346   0.365   0.383   0.410
  0.419   0.456   0.459   0.482   0.493   0.495   0.505   0.511
  0.532   0.544   0.557   0.569   0.611   0.623   0.630   0.668
  0.714   0.737   0.785   0.788   0.828   0.868   0.882   0.905
  0.922   0.964   0.998   1.009   1.039   1.062   1.079   1.105
  1.121   1.132   1.156   1.175   1.201   1.229   1.239   1.245
  1.271   1.283   1.296   1.320   1.354   1.400   1.412   1.420
  1.445   1.461   1.495   1.505   1.535   1.559   1.561   1.603
  1.608   1.746   1.845   2.018   2.050   2.260   2.320   2.389
  2.494   2.526   2.570   2.575   2.636   2.673   2.702   2.775
  2.800   2.824   2.849   2.916   2.925   2.956   2.975   3.000
  3.111   3.127   3.155   3.166   3.192   3.239   3.291   3.310
  3.333   3.339   3.368   3.410   3.445   3.522   3.552   3.555
  3.578   3.606   3.645   3.668   3.688   3.741   3.782   3.809
  3.828   3.874   3.906   3.987   3.997   4.006   4.018   4.058
  4.120   4.156   4.189   4.218   4.237   4.250   4.265   4.293
  4.322   4.338   4.349   4.440   4.466   4.500   4.573   4.588
  4.615   4.625   4.673   4.720   4.846   5.142   5.215   5.274
  5.324   5.394   5.427   5.517   5.557   5.619   5.680   5.694
  5.724   5.741   5.888   5.967   6.486   7.071   7.221   7.305
  7.358   7.641   7.755  24.173  24.302  24.387  27.604  27.777
 28.076  28.144  28.171  28.210  28.220  28.376  28.485  40.954
 41.015  41.043  41.070  41.091  41.117  41.150  41.177  41.213
 41.223  41.256  41.269  41.299  41.305  41.360  43.931  43.960
 44.005  44.046  44.111  45.800  46.108  46.485  50.018
 
 Beta MOs
 -- Occupied --
-19.534 -10.803 -10.717 -10.671  -1.580  -1.294  -1.180  -1.050
 -0.963  -0.890  -0.845  -0.812  -0.799  -0.786  -0.757  -0.701
 -- Virtual --
 -0.408  -0.101  -0.076  -0.072  -0.064  -0.046  -0.042  -0.033
 -0.024  -0.016  -0.003   0.010   0.021   0.029   0.033   0.036
  0.042   0.051   0.061   0.072   0.083   0.086   0.100   0.121
  0.126   0.131   0.143   0.161   0.171   0.187   0.188   0.215
  0.237   0.250   0.260   0.290   0.331   0.356   0.373   0.396
  0.415   0.425   0.465   0.473   0.487   0.499   0.505   0.510
  0.517   0.545   0.561   0.563   0.576   0.618   0.628   0.634
  0.674   0.720   0.739   0.789   0.791   0.834   0.870   0.885
  0.909   0.926   0.967   1.002   1.016   1.044   1.067   1.083
  1.108   1.125   1.136   1.162   1.180   1.213   1.238   1.247
  1.258   1.276   1.289   1.302   1.325   1.357   1.405   1.417
  1.426   1.448   1.464   1.499   1.509   1.541   1.564   1.566
  1.609   1.612   1.750   1.852   2.026   2.058   2.265   2.327
  2.395   2.507   2.535   2.578   2.582   2.648   2.689   2.709
  2.793   2.820   2.838   2.863   2.927   2.934   2.961   2.986
  3.012   3.121   3.134   3.166   3.172   3.200   3.245   3.298
  3.325   3.343   3.344   3.375   3.423   3.452   3.528   3.561
  3.565   3.586   3.612   3.651   3.682   3.700   3.750   3.788
  3.819   3.837   3.883   3.914   3.997   4.003   4.014   4.027
  4.065   4.128   4.164   4.197   4.225   4.243   4.255   4.271
  4.303   4.331   4.345   4.357   4.446   4.471   4.506   4.578
  4.595   4.623   4.633   4.679   4.729   4.858   5.146   5.222
  5.281   5.332   5.406   5.435   5.526   5.568   5.623   5.684
  5.700   5.729   5.747   5.891   5.974   6.491   7.082   7.227
  7.319   7.363   7.648   7.766  24.178  24.306  24.391  27.614
 27.783  28.079  28.147  28.174  28.212  28.221  28.384  28.493
 40.966  41.018  41.050  41.075  41.096  41.118  41.153  41.187
 41.219  41.229  41.266  41.270  41.301  41.311  41.364  43.937
 43.967  44.008  44.050  44.118  45.802  46.115  46.487  50.021
 --------------------------------------------------------------
 
          Ground-State Mulliken Net Atomic Charges

     Atom                 Charge (a.u.)    Spin (a.u.)
  --------------------------------------------------------
      1 O                    -0.176061       0.116512
      2 C                     0.055745       0.258149
      3 H                     0.319569       0.025996
      4 H                     0.187111       0.074175
      5 C                    -0.114244       0.329796
      6 C                    -0.171915       0.085018
      7 H                     0.170387       0.016500
      8 H                     0.152529       0.011490
      9 H                     0.177865       0.028847
     10 H                     0.143947       0.066400
     11 H                     0.138029      -0.010855
     12 H                     0.117037      -0.002029
  --------------------------------------------------------
  Sum of atomic charges =     1.000000
  Sum of spin   charges =     1.000000

 -----------------------------------------------------------------
                    Cartesian Multipole Moments
 -----------------------------------------------------------------
    Charge (ESU x 10^10)
                 4.8032
    Dipole Moment (Debye)
         X      -0.1598      Y      -1.2004      Z       8.4537
       Tot       8.5400
    Quadrupole Moments (Debye-Ang)
        XX     -12.4070     XY      -1.6554     YY     -19.7566
        XZ      -4.1387     YZ      -2.4825     ZZ      -6.2789
    Octapole Moments (Debye-Ang^2)
       XXX       4.3351    XXY       5.8390    XYY       4.5611
       YYY      18.9632    XXZ     -17.1933    XYZ      -3.3790
       YYZ     -25.2921    XZZ      -2.1928    YZZ       2.4380
       ZZZ     -60.1253
    Hexadecapole Moments (Debye-Ang^3)
      XXXX    -111.4213   XXXY      13.2844   XXYY     -32.6858
      XYYY      18.1697   YYYY     -86.1219   XXXZ       5.2048
      XXYZ      12.0895   XYYZ      11.1436   YYYZ      40.5328
      XXZZ     -60.5094   XYZZ      -1.2103   YYZZ     -70.6874
      XZZZ       7.0216   YZZZ      33.4070   ZZZZ    -295.1795
 -----------------------------------------------------------------
 Total job time:  2112.55s(wall), 2098.81s(cpu) 
 Mon Jun  3 17:46:42 2013

        *************************************************************
        *                                                           *
        *  Thank you very much for using Q-Chem.  Have a nice day.  *
        *                                                           *
        *************************************************************


0 sent ACK to 0 
now end server 0 ... 
