Process 0 of 1 is on cl020.stfx.acenet.ca - thread support 1
initial socket setup ...start
initial socket setup ...done 
now start server 0 ... 

cmd = /usr/bin/ssh clhead /usr/local/qchem/bin/get_hostid 1331562689 > /scratch/tmp/6063723.1.short.q/qchem15811/lic.dat
                  Welcome to Q-Chem
     A Quantum Leap Into The Future Of Chemistry

 Y. Shao, L. Fusti-Molnar, Y. Jung, J. Kussmann, C. Ochsenfeld,
 S. T. Brown, A. T. B. Gilbert, L. V. Slipchenko,S. V. Levchenko,
 D. P. O'Neill, R. A. DiStasio Jr., R. C. Lochan, T. Wang,
 G. J. O. Beran, N. A. Besley, J. M. Herbert, C. Y. Lin,
 T. Van Voorhis, S. H. Chien, A. Sodt, R. P. Steele, 
 V. A. Rassolov, P. E. Maslen, P. P. Korambath, R. D. Adamson,
 B. Austin, J. Baker, E. F. C. Byrd, H. Dachsel, R. J. Doerksen,
 A. Dreuw, B. D. Dunietz, A. D. Dutoi, T. R. Furlani,
 S. R. Gwaltney, A. Heyden, S. Hirata, C.-P. Hsu, G. Kedziora,
 R. Z. Khaliullin, P. Klunzinger, A. M. Lee, M. S. Lee, W. Liang,
 I. Lotan, N. Nair, B. Peters, E. I. Proynov, P. A. Pieniazek, 
 Y. M. Rhee, J. Ritchie, E. Rosta, C. D. Sherrill, 
 A. C. Simmonett, J. E. Subotnik, H. L. Woodcock III,
 W. Zhang, A. T. Bell, A. K. Chakraborty, D. M. Chipman,
 F. J. Keil, A. Warshel, W. J. Hehre, H. F. Schaefer III,
 J. Kong, A. I. Krylov, P. M. W. Gill, M. Head-Gordon,
 Q-Chem, Version 3.1, Q-Chem, Inc., Pittsburgh, PA (2007).

 Additional authors for Version 3.1: 
 Z. Gan, Y. Zhao, N. E. Schultz, D. Truhlar, E. Epifanovsky and M. Oana.

 Additional authors for Version 3.2: 
 R. Baer, B. R. Brooks, D. Casanova, J.-D. Chai, C.-L. Cheng, 
 C. Cramer, D. Crittenden, A. Ghysels, G. Hawkins, E. G. Hohenstein, 
 C. Kelley, W. Kurlancheek, D. Liotard, E. Livshits, P. Manohar, 
 A. Marenich, D. Neuhauser, R. Olson, M. A. Rohrdanz, K. S. Thanthiriwatte, 
 A. J. W. Thom, V. Vanovschi, C. F. Williams, Q. Wu and Z.-Q. You. 


 Intel X86 Linux Version

 Q-chem begins on Sun Jul  7 08:40:34 2013  

 Parallel job on  1  processors
Processing $rem in /usr/local/qchem/config/preferences.

theFileMan(): MAXOPENFILES=974 MAX_SUB_FILE_NUM=16
Maximum size of a physical file is 2.0 GB, maximum size of a tmp-file is 32.0 GB


--------------------------------------------------------------
User input:
--------------------------------------------------------------

$molecule
-1,2
C          0.00060        0.00000        0.00599
C         -0.00144        0.00000        1.51271
O          1.34262        0.00000        1.95481
H          1.36080        0.00000        2.91219
H         -0.52814        0.88506        1.88809
H         -0.52814       -0.88506        1.88809
H         -1.01948        0.00000       -0.37883
H          0.51474        0.88308       -0.37260
H          0.51474       -0.88308       -0.37260
$end

$comment
negative
$end

$xc_functional
C PBE   1.00
X wPBE  1.00
$end

$rem
SYMMETRY_DECOMPOSITION	0
exchange 		general
LRC_DFT                 true
BASIS                   g3large
omega			800
mem_static              760
max_scf_cycles          200
scf_final_print         1
sym_ignore              true
$end

--------------------------------------------------------------
 Writing REM_CC_EA            9
 ----------------------------------------------------
       Standard Nuclear Orientation (Angstroms)
    I     Atom         X            Y            Z
 ----------------------------------------------------
    1      C       0.000600     0.000000     0.005990
    2      C      -0.001440     0.000000     1.512710
    3      O       1.342620     0.000000     1.954810
    4      H       1.360800     0.000000     2.912190
    5      H      -0.528140     0.885060     1.888090
    6      H      -0.528140    -0.885060     1.888090
    7      H      -1.019480     0.000000    -0.378830
    8      H       0.514740     0.883080    -0.372600
    9      H       0.514740    -0.883080    -0.372600
 ----------------------------------------------------
 Nuclear Repulsion Energy =    82.1703385088 hartrees
 There are       14 alpha and       13 beta electrons
 Requested basis set is G3large
 There are 66 shells and 186 basis functions

Total QAlloc Memory Limit   2000 MB
Mega-Array Size       743 MB
MEM_STATIC part       760 MB

                       Distance Matrix (Angstroms)
             C (  1)   C (  2)   O (  3)   H (  4)   H (  5)   H (  6)
   C (  2)  1.506721
   O (  3)  2.366203  1.414903
   H (  4)  3.208760  1.953008  0.957553
   H (  5)  2.145972  1.096200  2.070634  2.323834
   H (  6)  2.145972  1.096200  2.070634  2.323834  1.770120
   H (  7)  1.090252  2.148099  3.320451  4.061594  2.482674  2.482674
   H (  8)  1.089725  2.144916  2.623367  3.505067  2.489643  3.053627
   H (  9)  1.089725  2.144916  2.623367  3.505067  3.053627  2.489643
             H (  7)   H (  8)
   H (  8)  1.770226
   H (  9)  1.770226  1.766160
 
 A cutoff of  1.0D-08 yielded   2117 shell pairs
 There are  16833 function pairs ( 20304 Cartesian)
Evaluating contribution to one-electron hamiltonian from nuclear
 Smallest overlap matrix eigenvalue = 9.78E-05

 Q-Chem warning in module mkSTV.C, line 194:

 Overlap eigenvalue is smaller than square root of threshold

 Multipole matrices computed through 2nd order

  Scale SEOQF with 1.000000e-01/1.000000e-01/1.000000e-01

 Standard Electronic Orientation quadrupole field applied
 Nucleus-field energy     =    -0.0000000056 hartrees
 Guess from superposition of atomic densities
 Warning:  Energy on first SCF cycle will be non-variational
 Long-range K will be added via erf
 Coulomb attenuation parameter = 0.8 bohr**(-1)
 An unrestricted Kohn-Sham SCF calculation will be
 performed using Pulay DIIS extrapolation
 Exchange:  wPBE + LR-HF      Correlation:  PBE
 Using SG-1 standard quadrature grid
 SCF converges when DIIS error is below 1.0E-05
 Requested basis set is G3large
 There are 66 shells and 186 basis functions
 A cutoff of  1.0D-08 yielded   2117 shell pairs
 There are  16833 function pairs ( 20304 Cartesian)
 Warning!  Inaccurate integrated density:
   Number of electrons =    27
   Numerical integral  =    25.999923725395
   Relative error      =    -3.7039862022 %
 ---------------------------------------
  Cycle       Energy         DIIS Error
 ---------------------------------------
    1    -155.7030342594      3.30E-02
    2    -154.8889797522      4.06E-03
    3    -154.9550451551      2.88E-03
    4    -154.9819448303      5.07E-04
    5    -154.9854490335      1.80E-04
    6    -154.9862154571      6.48E-05
    7    -154.9865300485      3.28E-05
    8    -154.9866969138      2.15E-05
    9    -154.9868236869      1.20E-05
   10    -154.9868645369      5.01E-06 Convergence criterion met
 ---------------------------------------
 One-Electron    Energy =  -376.2911078245
 Total Coulomb   Energy =   160.8865706168
 Alpha Exchange  Energy =    -4.3562686180
 Beta  Exchange  Energy =    -4.2806700036
 DFT   Exchange  Energy =   -12.2606595825
 DFT Correlation Energy =    -0.8550676283
 Nuclear Repu.   Energy =    82.1703385033
 Nuclear Attr.   Energy =  -530.6599141517
 Kinetic         Energy =   154.3688063271
 <S^2> = 0.7501
 SCF time:  CPU 134.46 s  wall 135.36 s
 Final Alpha MO Eigenvalues
            1           2           3           4           5           6
    1 -19.0109709 -10.2179897 -10.1740747  -1.1527694  -0.8716253  -0.6993971
            7           8           9          10          11          12
    1  -0.5733288  -0.5219233  -0.4503202  -0.4239787  -0.4091371  -0.3646723
           13          14          15          16          17          18
    1  -0.3064259   0.0279462   0.1360522   0.1479875   0.1498168   0.1809550
           19
    1   0.1880557
 Final Beta MO Eigenvalues
            1           2           3           4           5           6
    1 -19.0107363 -10.2175258 -10.1740048  -1.1518211  -0.8706314  -0.6975149
            7           8           9          10          11          12
    1  -0.5708378  -0.5216461  -0.4497278  -0.4236644  -0.4090224  -0.3635481
           13          14          15          16          17          18
    1  -0.3062003   0.1367343   0.1572085   0.1604373   0.1620417   0.1885896
 Analysis of SCF Wavefunction
 
 --------------------------------------------------------------
                    Orbital Energies (a.u.)
 --------------------------------------------------------------
 
 Alpha MOs
 -- Occupied --
-19.011 -10.218 -10.174  -1.153  -0.872  -0.699  -0.573  -0.522
 -0.450  -0.424  -0.409  -0.365  -0.306   0.028
 -- Virtual --
  0.136   0.148   0.150   0.181   0.188   0.236   0.251   0.252
  0.268   0.284   0.292   0.306   0.308   0.390   0.393   0.410
  0.431   0.435   0.456   0.480   0.482   0.490   0.512   0.562
  0.600   0.662   0.665   0.698   0.714   0.778   0.815   0.816
  0.824   0.840   0.860   0.879   0.893   0.905   0.931   1.004
  1.018   1.086   1.090   1.149   1.149   1.205   1.306   1.317
  1.339   1.352   1.407   1.427   1.445   1.447   1.481   1.491
  1.550   1.597   1.598   1.626   1.668   1.700   1.714   1.746
  1.758   1.773   1.795   1.834   1.863   1.908   2.044   2.184
  2.343   2.393   2.580   2.668   2.739   2.813   2.887   2.933
  2.948   3.102   3.178   3.186   3.197   3.271   3.386   3.406
  3.427   3.428   3.548   3.556   3.567   3.632   3.669   3.732
  3.768   3.880   3.884   3.887   3.900   3.949   4.027   4.086
  4.118   4.192   4.243   4.292   4.352   4.390   4.412   4.417
  4.533   4.578   4.589   4.615   4.622   4.693   4.722   4.812
  4.823   4.866   4.942   4.946   5.015   5.409   5.527   5.575
  5.588   5.723   5.847   5.873   5.933   5.981   6.042   6.043
  6.250   6.340   6.836   7.382   7.568   7.601   7.637   7.946
  8.058  24.543  24.725  28.014  28.384  28.417  28.472  28.496
 28.704  41.286  41.313  41.338  41.438  41.490  41.532  41.538
 41.574  41.574  41.618  44.205  44.219  44.267  44.328  44.372
 46.044  46.360  46.781  50.260
 
 Beta MOs
 -- Occupied --
-19.011 -10.218 -10.174  -1.152  -0.871  -0.698  -0.571  -0.522
 -0.450  -0.424  -0.409  -0.364  -0.306
 -- Virtual --
  0.137   0.157   0.160   0.162   0.189   0.194   0.238   0.250
  0.251   0.267   0.284   0.293   0.307   0.308   0.391   0.392
  0.411   0.430   0.434   0.455   0.478   0.480   0.487   0.508
  0.560   0.599   0.661   0.665   0.697   0.713   0.775   0.813
  0.814   0.824   0.839   0.859   0.878   0.891   0.904   0.930
  1.005   1.018   1.087   1.090   1.149   1.149   1.204   1.306
  1.317   1.339   1.352   1.407   1.427   1.445   1.447   1.481
  1.491   1.551   1.597   1.598   1.625   1.668   1.699   1.713
  1.745   1.757   1.773   1.795   1.834   1.862   1.908   2.044
  2.185   2.343   2.393   2.581   2.668   2.739   2.813   2.887
  2.933   2.948   3.102   3.179   3.186   3.197   3.271   3.386
  3.406   3.427   3.428   3.549   3.556   3.568   3.633   3.670
  3.732   3.768   3.881   3.884   3.887   3.900   3.950   4.028
  4.086   4.118   4.193   4.244   4.292   4.352   4.390   4.412
  4.417   4.533   4.578   4.589   4.615   4.622   4.693   4.722
  4.812   4.823   4.866   4.943   4.946   5.015   5.409   5.527
  5.576   5.588   5.723   5.847   5.873   5.933   5.981   6.042
  6.043   6.251   6.340   6.836   7.382   7.568   7.602   7.638
  7.947   8.059  24.544  24.725  28.014  28.385  28.417  28.472
 28.496  28.704  41.286  41.314  41.338  41.438  41.490  41.532
 41.539  41.574  41.575  41.618  44.205  44.219  44.268  44.328
 44.373  46.044  46.360  46.782  50.261
 --------------------------------------------------------------
 
          Ground-State Mulliken Net Atomic Charges

     Atom                 Charge (a.u.)    Spin (a.u.)
  --------------------------------------------------------
      1 C                    -0.590655       0.379010
      2 C                     3.288838      -3.353252
      3 O                    -0.531824       0.174883
      4 H                    -0.525417       0.806108
      5 H                    -1.231799       1.307601
      6 H                    -1.248463       1.324668
      7 H                    -0.153696       0.208655
      8 H                    -0.002171       0.074715
      9 H                    -0.004814       0.077611
  --------------------------------------------------------
  Sum of atomic charges =    -1.000000
  Sum of spin   charges =     1.000000

 -----------------------------------------------------------------
                    Cartesian Multipole Moments
 -----------------------------------------------------------------
    Charge (ESU x 10^10)
                -4.8032
    Dipole Moment (Debye)
         X       0.3025      Y       0.0535      Z     -12.9402
       Tot      12.9438
    Quadrupole Moments (Debye-Ang)
        XX     -47.1195     XY      -0.0456     YY     -44.1460
        XZ      -1.3180     YZ       0.1167     ZZ     -74.4668
    Octapole Moments (Debye-Ang^2)
       XXX      -9.2931    XXY       0.2152    XYY       3.5527
       YYY       0.6118    XXZ     -87.6810    XYZ      -0.0923
       YYZ     -83.5266    XZZ     -11.1314    YZZ       0.4524
       ZZZ    -312.1958
    Hexadecapole Moments (Debye-Ang^3)
      XXXX    -397.3793   XXXY      -0.3680   XXYY    -121.1376
      XYYY      -0.4179   YYYY    -315.4610   XXXZ     -58.9455
      XXYZ       0.4187   XYYZ      -7.5989   YYYZ       1.1859
      XXZZ    -313.2841   XYZZ      -0.2911   YYZZ    -290.0494
      XZZZ     -93.4253   YZZZ       1.6983   ZZZZ   -1538.9473
 -----------------------------------------------------------------
 Total job time:  135.62s(wall), 134.71s(cpu) 
 Sun Jul  7 08:42:50 2013

        *************************************************************
        *                                                           *
        *  Thank you very much for using Q-Chem.  Have a nice day.  *
        *                                                           *
        *************************************************************


0 sent ACK to 0 
now end server 0 ... 
 
**********************************************************************
Job 2 of 3 
**********************************************************************
 
Process 0 of 1 is on cl020.stfx.acenet.ca - thread support 1
initial socket setup ...start
initial socket setup ...done 
now start server 0 ... 

cmd = /usr/bin/ssh clhead /usr/local/qchem/bin/get_hostid 1237871504 > /scratch/tmp/6063723.1.short.q/qchem15811/lic.dat
                  Welcome to Q-Chem
     A Quantum Leap Into The Future Of Chemistry

 Y. Shao, L. Fusti-Molnar, Y. Jung, J. Kussmann, C. Ochsenfeld,
 S. T. Brown, A. T. B. Gilbert, L. V. Slipchenko,S. V. Levchenko,
 D. P. O'Neill, R. A. DiStasio Jr., R. C. Lochan, T. Wang,
 G. J. O. Beran, N. A. Besley, J. M. Herbert, C. Y. Lin,
 T. Van Voorhis, S. H. Chien, A. Sodt, R. P. Steele, 
 V. A. Rassolov, P. E. Maslen, P. P. Korambath, R. D. Adamson,
 B. Austin, J. Baker, E. F. C. Byrd, H. Dachsel, R. J. Doerksen,
 A. Dreuw, B. D. Dunietz, A. D. Dutoi, T. R. Furlani,
 S. R. Gwaltney, A. Heyden, S. Hirata, C.-P. Hsu, G. Kedziora,
 R. Z. Khaliullin, P. Klunzinger, A. M. Lee, M. S. Lee, W. Liang,
 I. Lotan, N. Nair, B. Peters, E. I. Proynov, P. A. Pieniazek, 
 Y. M. Rhee, J. Ritchie, E. Rosta, C. D. Sherrill, 
 A. C. Simmonett, J. E. Subotnik, H. L. Woodcock III,
 W. Zhang, A. T. Bell, A. K. Chakraborty, D. M. Chipman,
 F. J. Keil, A. Warshel, W. J. Hehre, H. F. Schaefer III,
 J. Kong, A. I. Krylov, P. M. W. Gill, M. Head-Gordon,
 Q-Chem, Version 3.1, Q-Chem, Inc., Pittsburgh, PA (2007).

 Additional authors for Version 3.1: 
 Z. Gan, Y. Zhao, N. E. Schultz, D. Truhlar, E. Epifanovsky and M. Oana.

 Additional authors for Version 3.2: 
 R. Baer, B. R. Brooks, D. Casanova, J.-D. Chai, C.-L. Cheng, 
 C. Cramer, D. Crittenden, A. Ghysels, G. Hawkins, E. G. Hohenstein, 
 C. Kelley, W. Kurlancheek, D. Liotard, E. Livshits, P. Manohar, 
 A. Marenich, D. Neuhauser, R. Olson, M. A. Rohrdanz, K. S. Thanthiriwatte, 
 A. J. W. Thom, V. Vanovschi, C. F. Williams, Q. Wu and Z.-Q. You. 


 Intel X86 Linux Version

 Q-chem begins on Sun Jul  7 08:42:53 2013  

 Parallel job on  1  processors
Processing $rem in /usr/local/qchem/config/preferences.

theFileMan(): MAXOPENFILES=974 MAX_SUB_FILE_NUM=16
Maximum size of a physical file is 2.0 GB, maximum size of a tmp-file is 32.0 GB


--------------------------------------------------------------
User input:
--------------------------------------------------------------

$molecule
0,1
C          0.00060        0.00000        0.00599
C         -0.00144        0.00000        1.51271
O          1.34262        0.00000        1.95481
H          1.36080        0.00000        2.91219
H         -0.52814        0.88506        1.88809
H         -0.52814       -0.88506        1.88809
H         -1.01948        0.00000       -0.37883
H          0.51474        0.88308       -0.37260
H          0.51474       -0.88308       -0.37260
$end

$comment
neutral
$end

$xc_functional
C PBE   1.00
X wPBE  1.00
$end


$rem
SYMMETRY_DECOMPOSITION	0
LRC_DFT                 true
exchange 		general
BASIS                   g3large
omega			800
mem_static              760
max_scf_cycles          200
scf_final_print         1
sym_ignore              true
$end

--------------------------------------------------------------
 Writing REM_CC_EA            9
 ----------------------------------------------------
       Standard Nuclear Orientation (Angstroms)
    I     Atom         X            Y            Z
 ----------------------------------------------------
    1      C       0.000600     0.000000     0.005990
    2      C      -0.001440     0.000000     1.512710
    3      O       1.342620     0.000000     1.954810
    4      H       1.360800     0.000000     2.912190
    5      H      -0.528140     0.885060     1.888090
    6      H      -0.528140    -0.885060     1.888090
    7      H      -1.019480     0.000000    -0.378830
    8      H       0.514740     0.883080    -0.372600
    9      H       0.514740    -0.883080    -0.372600
 ----------------------------------------------------
 Nuclear Repulsion Energy =    82.1703385088 hartrees
 There are       13 alpha and       13 beta electrons
 Requested basis set is G3large
 There are 66 shells and 186 basis functions

Total QAlloc Memory Limit   2000 MB
Mega-Array Size       743 MB
MEM_STATIC part       760 MB

                       Distance Matrix (Angstroms)
             C (  1)   C (  2)   O (  3)   H (  4)   H (  5)   H (  6)
   C (  2)  1.506721
   O (  3)  2.366203  1.414903
   H (  4)  3.208760  1.953008  0.957553
   H (  5)  2.145972  1.096200  2.070634  2.323834
   H (  6)  2.145972  1.096200  2.070634  2.323834  1.770120
   H (  7)  1.090252  2.148099  3.320451  4.061594  2.482674  2.482674
   H (  8)  1.089725  2.144916  2.623367  3.505067  2.489643  3.053627
   H (  9)  1.089725  2.144916  2.623367  3.505067  3.053627  2.489643
             H (  7)   H (  8)
   H (  8)  1.770226
   H (  9)  1.770226  1.766160
 
 A cutoff of  1.0D-08 yielded   2117 shell pairs
 There are  16833 function pairs ( 20304 Cartesian)
Evaluating contribution to one-electron hamiltonian from nuclear
 Smallest overlap matrix eigenvalue = 9.78E-05

 Q-Chem warning in module mkSTV.C, line 194:

 Overlap eigenvalue is smaller than square root of threshold

 Multipole matrices computed through 2nd order

  Scale SEOQF with 1.000000e-01/1.000000e-01/1.000000e-01

 Standard Electronic Orientation quadrupole field applied
 Nucleus-field energy     =    -0.0000000056 hartrees
 Guess from superposition of atomic densities
 Warning:  Energy on first SCF cycle will be non-variational
 Long-range K will be added via erf
 Coulomb attenuation parameter = 0.8 bohr**(-1)
 A restricted Kohn-Sham SCF calculation will be
 performed using Pulay DIIS extrapolation
 Exchange:  wPBE + LR-HF      Correlation:  PBE
 Using SG-1 standard quadrature grid
 SCF converges when DIIS error is below 1.0E-05
 Requested basis set is G3large
 There are 66 shells and 186 basis functions
 A cutoff of  1.0D-08 yielded   2117 shell pairs
 There are  16833 function pairs ( 20304 Cartesian)
 ---------------------------------------
  Cycle       Energy         DIIS Error
 ---------------------------------------
    1    -155.7030342594      3.30E-02
    2    -154.9518386351      3.89E-03
    3    -155.0014904668      2.39E-03
    4    -155.0177043851      5.23E-04
    5    -155.0189681380      1.32E-04
    6    -155.0190737795      3.38E-05
    7    -155.0190819226      8.57E-06 Convergence criterion met
 ---------------------------------------
 One-Electron    Energy =  -372.7584940083
 Total Coulomb   Energy =   157.2419801808
 Alpha Exchange  Energy =    -4.2835078361
 Beta  Exchange  Energy =    -4.2835078361
 DFT   Exchange  Energy =   -12.2582071219
 DFT Correlation Energy =    -0.8476838041
 Nuclear Repu.   Energy =    82.1703385033
 Nuclear Attr.   Energy =  -527.0698727159
 Kinetic         Energy =   154.3113787075
 SCF time:  CPU 73.25 s  wall 73.78 s
 Final Alpha MO Eigenvalues
            1           2           3           4           5           6
    1 -19.1554434 -10.3629193 -10.2992259  -1.2967154  -1.0041817  -0.8348913
            7           8           9          10          11          12
    1  -0.7144980  -0.6608211  -0.5863654  -0.5518584  -0.5392823  -0.5030913
           13          14          15          16          17          18
    1  -0.4500121   0.0389058   0.0548398   0.0635972   0.0658441   0.0885135
 Analysis of SCF Wavefunction
 
 --------------------------------------------------------------
                    Orbital Energies (a.u.)
 --------------------------------------------------------------
 
 Alpha MOs
 -- Occupied --
-19.155 -10.363 -10.299  -1.297  -1.004  -0.835  -0.714  -0.661
 -0.586  -0.552  -0.539  -0.503  -0.450
 -- Virtual --
  0.039   0.055   0.064   0.066   0.089   0.098   0.134   0.146
  0.150   0.157   0.181   0.185   0.199   0.201   0.271   0.274
  0.280   0.307   0.310   0.327   0.355   0.359   0.370   0.388
  0.435   0.472   0.540   0.542   0.569   0.585   0.648   0.684
  0.687   0.694   0.708   0.723   0.746   0.755   0.772   0.812
  0.858   0.890   0.953   0.956   1.008   1.029   1.075   1.172
  1.177   1.202   1.225   1.266   1.292   1.318   1.318   1.347
  1.357   1.421   1.462   1.464   1.490   1.530   1.563   1.580
  1.620   1.621   1.639   1.660   1.703   1.728   1.780   1.907
  2.042   2.201   2.251   2.439   2.525   2.605   2.682   2.750
  2.805   2.812   2.964   3.044   3.049   3.061   3.146   3.250
  3.268   3.292   3.297   3.417   3.422   3.435   3.497   3.535
  3.597   3.630   3.746   3.748   3.756   3.766   3.809   3.888
  3.940   3.981   4.053   4.111   4.162   4.220   4.253   4.278
  4.282   4.396   4.437   4.462   4.483   4.484   4.550   4.584
  4.680   4.689   4.734   4.811   4.814   4.879   5.266   5.390
  5.433   5.445   5.585   5.708   5.731   5.788   5.840   5.915
  5.915   6.107   6.198   6.693   7.238   7.424   7.456   7.495
  7.803   7.915  24.410  24.588  27.878  28.240  28.279  28.347
 28.364  28.570  41.148  41.170  41.212  41.305  41.345  41.394
 41.405  41.431  41.449  41.493  44.060  44.075  44.123  44.183
 44.228  45.900  46.216  46.637  50.116
 --------------------------------------------------------------
 
          Ground-State Mulliken Net Atomic Charges

     Atom                 Charge (a.u.)
  ----------------------------------------
      1 C                    -0.199609
      2 C                    -0.085470
      3 O                    -0.332934
      4 H                     0.256624
      5 H                     0.065038
      6 H                     0.065183
      7 H                     0.058185
      8 H                     0.086584
      9 H                     0.086399
  ----------------------------------------
  Sum of atomic charges =     0.000000

 -----------------------------------------------------------------
                    Cartesian Multipole Moments
 -----------------------------------------------------------------
    Charge (ESU x 10^10)
                 0.0000
    Dipole Moment (Debye)
         X      -1.4532      Y      -0.0001      Z       0.9693
       Tot       1.7468
    Quadrupole Moments (Debye-Ang)
        XX     -22.4845     XY       0.0011     YY     -19.7443
        XZ      -0.7117     YZ      -0.0015     ZZ     -13.4448
    Octapole Moments (Debye-Ang^2)
       XXX     -27.5941    XXY       0.0003    XYY      -7.9153
       YYY      -0.0005    XXZ     -24.0878    XYZ       0.0010
       YYZ     -22.2135    XZZ      -1.4266    YZZ      -0.0033
       ZZZ     -37.6353
    Hexadecapole Moments (Debye-Ang^3)
      XXXX    -103.3895   XXXY       0.0029   XXYY     -22.5278
      XYYY       0.0033   YYYY     -32.1425   XXXZ     -48.5091
      XXYZ      -0.0007   XYYZ     -18.0655   YYYZ      -0.0046
      XXZZ     -54.5323   XYZZ       0.0025   YYZZ     -51.2682
      XZZZ     -11.2108   YZZZ      -0.0104   ZZZZ    -174.0894
 -----------------------------------------------------------------
 Total job time:  74.02s(wall), 73.47s(cpu) 
 Sun Jul  7 08:44:07 2013

        *************************************************************
        *                                                           *
        *  Thank you very much for using Q-Chem.  Have a nice day.  *
        *                                                           *
        *************************************************************


0 sent ACK to 0 
now end server 0 ... 
 
**********************************************************************
Job 3 of 3 
**********************************************************************
 
Process 0 of 1 is on cl020.stfx.acenet.ca - thread support 1
initial socket setup ...start
initial socket setup ...done 
now start server 0 ... 

cmd = /usr/bin/ssh clhead /usr/local/qchem/bin/get_hostid 1444916578 > /scratch/tmp/6063723.1.short.q/qchem15811/lic.dat
                  Welcome to Q-Chem
     A Quantum Leap Into The Future Of Chemistry

 Y. Shao, L. Fusti-Molnar, Y. Jung, J. Kussmann, C. Ochsenfeld,
 S. T. Brown, A. T. B. Gilbert, L. V. Slipchenko,S. V. Levchenko,
 D. P. O'Neill, R. A. DiStasio Jr., R. C. Lochan, T. Wang,
 G. J. O. Beran, N. A. Besley, J. M. Herbert, C. Y. Lin,
 T. Van Voorhis, S. H. Chien, A. Sodt, R. P. Steele, 
 V. A. Rassolov, P. E. Maslen, P. P. Korambath, R. D. Adamson,
 B. Austin, J. Baker, E. F. C. Byrd, H. Dachsel, R. J. Doerksen,
 A. Dreuw, B. D. Dunietz, A. D. Dutoi, T. R. Furlani,
 S. R. Gwaltney, A. Heyden, S. Hirata, C.-P. Hsu, G. Kedziora,
 R. Z. Khaliullin, P. Klunzinger, A. M. Lee, M. S. Lee, W. Liang,
 I. Lotan, N. Nair, B. Peters, E. I. Proynov, P. A. Pieniazek, 
 Y. M. Rhee, J. Ritchie, E. Rosta, C. D. Sherrill, 
 A. C. Simmonett, J. E. Subotnik, H. L. Woodcock III,
 W. Zhang, A. T. Bell, A. K. Chakraborty, D. M. Chipman,
 F. J. Keil, A. Warshel, W. J. Hehre, H. F. Schaefer III,
 J. Kong, A. I. Krylov, P. M. W. Gill, M. Head-Gordon,
 Q-Chem, Version 3.1, Q-Chem, Inc., Pittsburgh, PA (2007).

 Additional authors for Version 3.1: 
 Z. Gan, Y. Zhao, N. E. Schultz, D. Truhlar, E. Epifanovsky and M. Oana.

 Additional authors for Version 3.2: 
 R. Baer, B. R. Brooks, D. Casanova, J.-D. Chai, C.-L. Cheng, 
 C. Cramer, D. Crittenden, A. Ghysels, G. Hawkins, E. G. Hohenstein, 
 C. Kelley, W. Kurlancheek, D. Liotard, E. Livshits, P. Manohar, 
 A. Marenich, D. Neuhauser, R. Olson, M. A. Rohrdanz, K. S. Thanthiriwatte, 
 A. J. W. Thom, V. Vanovschi, C. F. Williams, Q. Wu and Z.-Q. You. 


 Intel X86 Linux Version

 Q-chem begins on Sun Jul  7 08:44:10 2013  

 Parallel job on  1  processors
Processing $rem in /usr/local/qchem/config/preferences.

theFileMan(): MAXOPENFILES=974 MAX_SUB_FILE_NUM=16
Maximum size of a physical file is 2.0 GB, maximum size of a tmp-file is 32.0 GB


--------------------------------------------------------------
User input:
--------------------------------------------------------------

$molecule
1,2
C          0.00060        0.00000        0.00599
C         -0.00144        0.00000        1.51271
O          1.34262        0.00000        1.95481
H          1.36080        0.00000        2.91219
H         -0.52814        0.88506        1.88809
H         -0.52814       -0.88506        1.88809
H         -1.01948        0.00000       -0.37883
H          0.51474        0.88308       -0.37260
H          0.51474       -0.88308       -0.37260
$end

$comment
positive
$end

$xc_functional
C PBE   1.00
X wPBE  1.00
$end

$rem
SYMMETRY_DECOMPOSITION	0
LRC_DFT                 true
exchange 		general
BASIS                   g3large
omega			800
mem_static              760
max_scf_cycles          200
scf_final_print         1
sym_ignore              true
$end

--------------------------------------------------------------
 Writing REM_CC_EA            9
 ----------------------------------------------------
       Standard Nuclear Orientation (Angstroms)
    I     Atom         X            Y            Z
 ----------------------------------------------------
    1      C       0.000600     0.000000     0.005990
    2      C      -0.001440     0.000000     1.512710
    3      O       1.342620     0.000000     1.954810
    4      H       1.360800     0.000000     2.912190
    5      H      -0.528140     0.885060     1.888090
    6      H      -0.528140    -0.885060     1.888090
    7      H      -1.019480     0.000000    -0.378830
    8      H       0.514740     0.883080    -0.372600
    9      H       0.514740    -0.883080    -0.372600
 ----------------------------------------------------
 Nuclear Repulsion Energy =    82.1703385088 hartrees
 There are       13 alpha and       12 beta electrons
 Requested basis set is G3large
 There are 66 shells and 186 basis functions

Total QAlloc Memory Limit   2000 MB
Mega-Array Size       743 MB
MEM_STATIC part       760 MB

                       Distance Matrix (Angstroms)
             C (  1)   C (  2)   O (  3)   H (  4)   H (  5)   H (  6)
   C (  2)  1.506721
   O (  3)  2.366203  1.414903
   H (  4)  3.208760  1.953008  0.957553
   H (  5)  2.145972  1.096200  2.070634  2.323834
   H (  6)  2.145972  1.096200  2.070634  2.323834  1.770120
   H (  7)  1.090252  2.148099  3.320451  4.061594  2.482674  2.482674
   H (  8)  1.089725  2.144916  2.623367  3.505067  2.489643  3.053627
   H (  9)  1.089725  2.144916  2.623367  3.505067  3.053627  2.489643
             H (  7)   H (  8)
   H (  8)  1.770226
   H (  9)  1.770226  1.766160
 
 A cutoff of  1.0D-08 yielded   2117 shell pairs
 There are  16833 function pairs ( 20304 Cartesian)
Evaluating contribution to one-electron hamiltonian from nuclear
 Smallest overlap matrix eigenvalue = 9.78E-05

 Q-Chem warning in module mkSTV.C, line 194:

 Overlap eigenvalue is smaller than square root of threshold

 Multipole matrices computed through 2nd order

  Scale SEOQF with 1.000000e-01/1.000000e-01/1.000000e-01

 Standard Electronic Orientation quadrupole field applied
 Nucleus-field energy     =    -0.0000000056 hartrees
 Guess from superposition of atomic densities
 Warning:  Energy on first SCF cycle will be non-variational
 Long-range K will be added via erf
 Coulomb attenuation parameter = 0.8 bohr**(-1)
 An unrestricted Kohn-Sham SCF calculation will be
 performed using Pulay DIIS extrapolation
 Exchange:  wPBE + LR-HF      Correlation:  PBE
 Using SG-1 standard quadrature grid
 SCF converges when DIIS error is below 1.0E-05
 Requested basis set is G3large
 There are 66 shells and 186 basis functions
 A cutoff of  1.0D-08 yielded   2117 shell pairs
 There are  16833 function pairs ( 20304 Cartesian)
 Warning!  Inaccurate integrated density:
   Number of electrons =    25
   Numerical integral  =    25.999923725395
   Relative error      =     3.9996949016 %
 ---------------------------------------
  Cycle       Energy         DIIS Error
 ---------------------------------------
    1    -155.7030342594      3.30E-02
    2    -154.5146630300      3.43E-03
    3    -154.5851651577      1.55E-03
    4    -154.5980879659      5.21E-04
    5    -154.6041911842      4.53E-04
    6    -154.6068166780      2.94E-04
    7    -154.6116529011      2.29E-04
    8    -154.6154646092      9.87E-05
    9    -154.6158390838      9.48E-05
   10    -154.6162299827      4.13E-05
   11    -154.6163024131      2.51E-05
   12    -154.6163861869      1.59E-05
   13    -154.6164306378      1.76E-05
   14    -154.6164373922      4.10E-06 Convergence criterion met
 ---------------------------------------
 One-Electron    Energy =  -364.9180439968
 Total Coulomb   Energy =   149.4384322178
 Alpha Exchange  Energy =    -4.3459678809
 Beta  Exchange  Energy =    -3.9631100473
 DFT   Exchange  Energy =   -12.1896523858
 DFT Correlation Energy =    -0.8084338025
 Nuclear Repu.   Energy =    82.1703385033
 Nuclear Attr.   Energy =  -518.9481251664
 Kinetic         Energy =   154.0300811697
 <S^2> = 0.7580
 SCF time:  CPU 183.91 s  wall 184.82 s
 Final Alpha MO Eigenvalues
            1           2           3           4           5           6
    1 -19.6227916 -10.6436769 -10.5094534  -1.7217864  -1.2801391  -1.1078816
            7           8           9          10          11          12
    1  -1.0732468  -1.0369940  -0.9411679  -0.8597927  -0.7832290  -0.7629670
           13          14          15          16          17          18
    1  -0.7399823  -0.1338111  -0.0873954  -0.0766402  -0.0722270  -0.0424315
 Final Beta MO Eigenvalues
            1           2           3           4           5           6
    1 -19.5999797 -10.6438311 -10.5095112  -1.6472962  -1.2664837  -1.1002291
            7           8           9          10          11          12
    1  -1.0477075  -0.9174269  -0.8935079  -0.7800105  -0.7601160  -0.7416121
           13          14          15          16          17
    1  -0.3486938  -0.1312618  -0.0858829  -0.0756558  -0.0718099
 Analysis of SCF Wavefunction
 
 --------------------------------------------------------------
                    Orbital Energies (a.u.)
 --------------------------------------------------------------
 
 Alpha MOs
 -- Occupied --
-19.623 -10.644 -10.509  -1.722  -1.280  -1.108  -1.073  -1.037
 -0.941  -0.860  -0.783  -0.763  -0.740
 -- Virtual --
 -0.134  -0.087  -0.077  -0.072  -0.042  -0.030  -0.025  -0.024
 -0.005   0.002   0.018   0.037   0.045   0.056   0.060   0.074
  0.078   0.113   0.123   0.125   0.141   0.141   0.170   0.219
  0.220   0.243   0.330   0.332   0.362   0.371   0.414   0.450
  0.452   0.472   0.481   0.516   0.525   0.533   0.555   0.574
  0.631   0.664   0.721   0.729   0.747   0.835   0.836   0.891
  0.919   0.948   0.972   0.994   1.013   1.099   1.110   1.118
  1.119   1.175   1.193   1.211   1.254   1.263   1.331   1.342
  1.346   1.415   1.418   1.438   1.473   1.488   1.554   1.617
  1.675   1.875   1.901   2.083   2.198   2.356   2.420   2.505
  2.561   2.576   2.692   2.781   2.799   2.800   2.925   2.995
  3.004   3.038   3.056   3.151   3.176   3.188   3.253   3.290
  3.336   3.367   3.471   3.479   3.505   3.536   3.543   3.598
  3.617   3.734   3.776   3.863   3.926   3.962   3.978   4.033
  4.040   4.112   4.142   4.201   4.252   4.254   4.268   4.316
  4.433   4.438   4.492   4.573   4.585   4.632   4.789   4.991
  5.024   5.073   5.235   5.347   5.403   5.445   5.465   5.670
  5.681   5.773   5.842   6.310   6.758   6.973   7.023   7.042
  7.383   7.505  24.162  24.344  27.628  27.958  28.011  28.137
 28.141  28.329  40.881  40.891  41.002  41.063  41.077  41.113
 41.145  41.199  41.238  41.283  43.570  43.576  43.634  43.729
 43.780  45.406  45.761  46.181  49.652
 
 Beta MOs
 -- Occupied --
-19.600 -10.644 -10.510  -1.647  -1.266  -1.100  -1.048  -0.917
 -0.894  -0.780  -0.760  -0.742
 -- Virtual --
 -0.349  -0.131  -0.086  -0.076  -0.072  -0.042  -0.028  -0.024
 -0.022   0.001   0.003   0.021   0.038   0.046   0.058   0.062
  0.082   0.084   0.115   0.123   0.130   0.145   0.153   0.171
  0.219   0.221   0.248   0.333   0.342   0.368   0.372   0.417
  0.454   0.462   0.476   0.484   0.519   0.526   0.539   0.557
  0.588   0.632   0.667   0.722   0.733   0.750   0.838   0.839
  0.902   0.939   0.964   0.996   1.007   1.020   1.102   1.113
  1.120   1.120   1.179   1.211   1.216   1.262   1.265   1.337
  1.348   1.351   1.416   1.420   1.441   1.479   1.490   1.565
  1.632   1.718   1.886   1.939   2.121   2.204   2.365   2.426
  2.506   2.566   2.579   2.696   2.783   2.802   2.804   2.928
  2.996   3.008   3.044   3.058   3.160   3.177   3.190   3.258
  3.291   3.336   3.371   3.474   3.482   3.508   3.538   3.544
  3.607   3.620   3.737   3.781   3.866   3.927   3.969   3.984
  4.037   4.041   4.119   4.148   4.213   4.255   4.259   4.269
  4.324   4.439   4.443   4.497   4.579   4.587   4.639   4.891
  5.044   5.070   5.107   5.264   5.365   5.443   5.451   5.500
  5.682   5.683   5.792   5.850   6.331   6.850   7.038   7.080
  7.110   7.422   7.524  24.162  24.344  27.628  27.956  28.012
 28.137  28.141  28.329  40.882  40.890  41.002  41.064  41.077
 41.112  41.145  41.199  41.238  41.283  43.626  43.643  43.690
 43.744  43.788  45.468  45.775  46.196  49.675
 --------------------------------------------------------------
 
          Ground-State Mulliken Net Atomic Charges

     Atom                 Charge (a.u.)    Spin (a.u.)
  --------------------------------------------------------
      1 C                    -0.161621      -0.002045
      2 C                    -0.208099      -0.050976
      3 O                     0.286278       0.894915
      4 H                     0.340103      -0.023300
      5 H                     0.192081       0.087018
      6 H                     0.191897       0.086391
      7 H                     0.111457      -0.000852
      8 H                     0.123926       0.004338
      9 H                     0.123978       0.004510
  --------------------------------------------------------
  Sum of atomic charges =     1.000000
  Sum of spin   charges =     1.000000

 -----------------------------------------------------------------
                    Cartesian Multipole Moments
 -----------------------------------------------------------------
    Charge (ESU x 10^10)
                 4.8032
    Dipole Moment (Debye)
         X       1.9918      Y       0.0001      Z       9.0991
       Tot       9.3145
    Quadrupole Moments (Debye-Ang)
        XX     -13.1178     XY      -0.0023     YY     -15.6399
        XZ       7.1815     YZ       0.0007     ZZ       6.6879
    Octapole Moments (Debye-Ang^2)
       XXX     -15.8113    XXY      -0.0024    XYY      -6.0834
       YYY       0.0001    XXZ      -7.0118    XYZ      -0.0041
       YYZ     -15.8983    XZZ      17.0865    YZZ       0.0010
       ZZZ       8.8809
    Hexadecapole Moments (Debye-Ang^3)
      XXXX     -72.6502   XXXY      -0.0069   XXYY     -15.7550
      XYYY      -0.0022   YYYY     -24.1384   XXXZ     -23.1012
      XXYZ      -0.0042   XYYZ     -14.5269   YYYZ       0.0010
      XXZZ     -14.5154   XYZZ      -0.0084   YYZZ     -36.1429
      XZZZ      36.0443   YZZZ       0.0024   ZZZZ     -49.5770
 -----------------------------------------------------------------
 Total job time:  185.07s(wall), 184.15s(cpu) 
 Sun Jul  7 08:47:15 2013

        *************************************************************
        *                                                           *
        *  Thank you very much for using Q-Chem.  Have a nice day.  *
        *                                                           *
        *************************************************************


0 sent ACK to 0 
now end server 0 ... 
