Process 0 of 1 is on cl173.stfx.acenet.ca - thread support 1
initial socket setup ...start
initial socket setup ...done 
now start server 0 ... 

cmd = /usr/bin/ssh clhead /usr/local/qchem/bin/get_hostid 303841469 > /scratch/tmp/5954068.1.medium.q/qchem28385/lic.dat
                  Welcome to Q-Chem
     A Quantum Leap Into The Future Of Chemistry

 Y. Shao, L. Fusti-Molnar, Y. Jung, J. Kussmann, C. Ochsenfeld,
 S. T. Brown, A. T. B. Gilbert, L. V. Slipchenko,S. V. Levchenko,
 D. P. O'Neill, R. A. DiStasio Jr., R. C. Lochan, T. Wang,
 G. J. O. Beran, N. A. Besley, J. M. Herbert, C. Y. Lin,
 T. Van Voorhis, S. H. Chien, A. Sodt, R. P. Steele, 
 V. A. Rassolov, P. E. Maslen, P. P. Korambath, R. D. Adamson,
 B. Austin, J. Baker, E. F. C. Byrd, H. Dachsel, R. J. Doerksen,
 A. Dreuw, B. D. Dunietz, A. D. Dutoi, T. R. Furlani,
 S. R. Gwaltney, A. Heyden, S. Hirata, C.-P. Hsu, G. Kedziora,
 R. Z. Khaliullin, P. Klunzinger, A. M. Lee, M. S. Lee, W. Liang,
 I. Lotan, N. Nair, B. Peters, E. I. Proynov, P. A. Pieniazek, 
 Y. M. Rhee, J. Ritchie, E. Rosta, C. D. Sherrill, 
 A. C. Simmonett, J. E. Subotnik, H. L. Woodcock III,
 W. Zhang, A. T. Bell, A. K. Chakraborty, D. M. Chipman,
 F. J. Keil, A. Warshel, W. J. Hehre, H. F. Schaefer III,
 J. Kong, A. I. Krylov, P. M. W. Gill, M. Head-Gordon,
 Q-Chem, Version 3.1, Q-Chem, Inc., Pittsburgh, PA (2007).

 Additional authors for Version 3.1: 
 Z. Gan, Y. Zhao, N. E. Schultz, D. Truhlar, E. Epifanovsky and M. Oana.

 Additional authors for Version 3.2: 
 R. Baer, B. R. Brooks, D. Casanova, J.-D. Chai, C.-L. Cheng, 
 C. Cramer, D. Crittenden, A. Ghysels, G. Hawkins, E. G. Hohenstein, 
 C. Kelley, W. Kurlancheek, D. Liotard, E. Livshits, P. Manohar, 
 A. Marenich, D. Neuhauser, R. Olson, M. A. Rohrdanz, K. S. Thanthiriwatte, 
 A. J. W. Thom, V. Vanovschi, C. F. Williams, Q. Wu and Z.-Q. You. 


 Intel X86 Linux Version

 Q-chem begins on Wed Apr 24 14:56:35 2013  

 Parallel job on  1  processors
Processing $rem in /usr/local/qchem/config/preferences.

theFileMan(): MAXOPENFILES=974 MAX_SUB_FILE_NUM=16
Maximum size of a physical file is 2.0 GB, maximum size of a tmp-file is 32.0 GB


--------------------------------------------------------------
User input:
--------------------------------------------------------------

$molecule
-1,2
Si
H,1,R
H,1,R,2,109.471221
H,1,R,2,109.471221,3,120.,0
H,1,R,2,109.471221,3,-120.,0

 R=1.48598655

$end

$comment
negative
$end

$xc_functional
C PBE   1.00
X wPBE  1.00
$end

$rem
SYMMETRY_DECOMPOSITION	0
exchange 		general
LRC_DFT                 true
BASIS                   g3large
omega			700
mem_static              760
max_scf_cycles          200
scf_final_print         1
sym_ignore              true
$end

--------------------------------------------------------------
 Writing REM_CC_EA            5
 ----------------------------------------------------
       Standard Nuclear Orientation (Angstroms)
    I     Atom         X            Y            Z
 ----------------------------------------------------
    1      Si      0.000000     0.000000     0.000000
    2      H       0.000000     0.000000     1.485987
    3      H       1.401002     0.000000    -0.495329
    4      H      -0.700501    -1.213303    -0.495329
    5      H      -0.700501     1.213303    -0.495329
 ----------------------------------------------------
 Nuclear Repulsion Energy =    21.2506937090 hartrees
 There are       10 alpha and        9 beta electrons
 Requested basis set is G3large
 There are 43 shells and 106 basis functions

Total QAlloc Memory Limit   2000 MB
Mega-Array Size       743 MB
MEM_STATIC part       760 MB

                       Distance Matrix (Angstroms)
             Si(  1)   H (  2)   H (  3)   H (  4)
   H (  2)  1.485987
   H (  3)  1.485987  2.426606
   H (  4)  1.485987  2.426606  2.426606
   H (  5)  1.485987  2.426606  2.426606  2.426606
 
 A cutoff of  1.0D-08 yielded    946 shell pairs
 There are   5819 function pairs (  7380 Cartesian)
Evaluating contribution to one-electron hamiltonian from nuclear
 Smallest overlap matrix eigenvalue = 8.07E-04
 Multipole matrices computed through 2nd order

  Scale SEOQF with 1.000000e-01/1.000000e-01/1.000000e-01

 Standard Electronic Orientation quadrupole field applied
 Guess from superposition of atomic densities
 Warning:  Energy on first SCF cycle will be non-variational
 Long-range K will be added via erf
 Coulomb attenuation parameter = 0.7 bohr**(-1)
 An unrestricted Kohn-Sham SCF calculation will be
 performed using Pulay DIIS extrapolation
 Exchange:  wPBE + LR-HF      Correlation:  PBE
 Using SG-1 standard quadrature grid
 SCF converges when DIIS error is below 1.0E-05
 Requested basis set is G3large
 There are 43 shells and 106 basis functions
 A cutoff of  1.0D-08 yielded    946 shell pairs
 There are   5819 function pairs (  7380 Cartesian)
 Warning!  Inaccurate integrated density:
   Number of electrons =    19
   Numerical integral  =    17.999844606031
   Relative error      =    -5.2639757577 %
 ---------------------------------------
  Cycle       Energy         DIIS Error
 ---------------------------------------
    1    -291.6229758413      2.78E-02
    2    -291.7623653999      2.32E-03
    3    -291.7864542173      8.07E-04
    4    -291.7898643509      2.82E-04
    5    -291.7906289352      8.79E-05
    6    -291.7907758835      3.21E-05
    7    -291.7908173181      1.74E-05
    8    -291.7908387329      1.25E-05
    9    -291.7908573051      8.97E-06 Convergence criterion met
 ---------------------------------------
 One-Electron    Energy =  -448.3257111178
 Total Coulomb   Energy =   157.6832373331
 Alpha Exchange  Energy =    -2.8874641386
 Beta  Exchange  Energy =    -2.8193739818
 DFT   Exchange  Energy =   -16.0681034471
 DFT Correlation Energy =    -0.6241356618
 Nuclear Repu.   Energy =    21.2506937090
 Nuclear Attr.   Energy =  -739.5588855888
 Kinetic         Energy =   291.2331744709
 <S^2> = 0.7503
 SCF time:  CPU 26.17 s  wall 26.65 s
 Final Alpha MO Eigenvalues
            1           2           3           4           5           6
    1 -65.6341846  -5.2984340  -3.6745225  -3.6745027  -3.6744533  -0.5986642
            7           8           9          10          11          12
    1  -0.3560268  -0.3558136  -0.3554858   0.0373422   0.1602285   0.1603112
           13          14          15
    1   0.1604567   0.1907592   0.1907695
 Final Beta MO Eigenvalues
            1           2           3           4           5           6
    1 -65.6338219  -5.2979017  -3.6740381  -3.6740173  -3.6739628  -0.5942805
            7           8           9          10          11          12
    1  -0.3555065  -0.3552888  -0.3549618   0.1475151   0.1732537   0.1732821
           13          14
    1   0.1733682   0.1938982
 Analysis of SCF Wavefunction
 
 --------------------------------------------------------------
                    Orbital Energies (a.u.)
 --------------------------------------------------------------
 
 Alpha MOs
 -- Occupied --
-65.634  -5.298  -3.675  -3.675  -3.674  -0.599  -0.356  -0.356
 -0.355   0.037
 -- Virtual --
  0.160   0.160   0.160   0.191   0.191   0.191   0.279   0.307
  0.307   0.307   0.356   0.368   0.368   0.484   0.484   0.484
  0.543   0.543   0.543   0.633   0.702   0.702   0.702   0.715
  0.715   0.715   0.796   0.934   0.934   0.934   0.970   0.970
  1.058   1.092   1.092   1.092   1.300   1.300   1.300   1.429
  1.429   1.447   1.447   1.447   1.572   1.622   1.622   1.622
  1.817   1.817   1.817   2.437   2.437   2.437   2.500   2.501
  2.501   2.691   3.129   3.129   3.130   3.379   3.874   3.875
  4.123   4.123   4.125   4.339   4.339   4.414   4.414   4.414
  4.429   4.429   4.429   4.719   4.846   4.846   4.847   6.348
 11.724  11.724  11.724  17.853  17.913  18.040  18.100  18.171
 22.494  22.499  22.502  22.511  22.518  22.519  22.549 141.248
 
 Beta MOs
 -- Occupied --
-65.634  -5.298  -3.674  -3.674  -3.674  -0.594  -0.356  -0.355
 -0.355
 -- Virtual --
  0.148   0.173   0.173   0.173   0.194   0.194   0.195   0.279
  0.307   0.307   0.307   0.361   0.368   0.368   0.486   0.486
  0.486   0.538   0.538   0.538   0.631   0.702   0.702   0.702
  0.714   0.714   0.714   0.797   0.933   0.933   0.933   0.971
  0.971   1.057   1.091   1.091   1.091   1.300   1.300   1.300
  1.430   1.430   1.447   1.447   1.447   1.571   1.622   1.623
  1.623   1.817   1.817   1.817   2.439   2.439   2.439   2.502
  2.502   2.502   2.692   3.128   3.128   3.129   3.378   3.874
  3.875   4.123   4.123   4.125   4.338   4.338   4.413   4.413
  4.413   4.428   4.428   4.428   4.719   4.846   4.846   4.847
  6.349  11.724  11.724  11.724  17.854  17.913  18.041  18.101
 18.171  22.494  22.499  22.503  22.512  22.518  22.519  22.549
141.248
 --------------------------------------------------------------
 
          Ground-State Mulliken Net Atomic Charges

     Atom                 Charge (a.u.)    Spin (a.u.)
  --------------------------------------------------------
      1 Si                    4.813764      -4.531661
      2 H                    -1.454219       1.383770
      3 H                    -1.451523       1.380522
      4 H                    -1.450036       1.378433
      5 H                    -1.457986       1.388935
  --------------------------------------------------------
  Sum of atomic charges =    -1.000000
  Sum of spin   charges =     1.000000

 -----------------------------------------------------------------
                    Cartesian Multipole Moments
 -----------------------------------------------------------------
    Charge (ESU x 10^10)
                -4.8032
    Dipole Moment (Debye)
         X       0.0784      Y      -0.3416      Z      -0.0194
       Tot       0.3510
    Quadrupole Moments (Debye-Ang)
        XX     -41.8524     XY      -0.0348     YY     -41.8621
        XZ       0.0002     YZ      -0.0272     ZZ     -41.8556
    Octapole Moments (Debye-Ang^2)
       XXX     -12.7035    XXY      -1.2753    XYY      13.8878
       YYY      -3.8272    XXZ       9.5462    XYZ       0.0482
       YYZ       9.5320    XZZ       0.3010    YZZ      -1.3099
       ZZZ     -19.4426
    Hexadecapole Moments (Debye-Ang^3)
      XXXX    -346.2742   XXXY      -0.4996   XXYY    -115.6049
      XYYY       0.2904   YYYY    -346.5887   XXXZ       6.2130
      XXYZ       0.0616   XYYZ      -6.3359   YYYZ       0.1851
      XXZZ    -111.0153   XYZZ      -0.1005   YYZZ    -111.0370
      XZZZ       0.0758   YZZZ      -0.5129   ZZZZ    -351.0435
 -----------------------------------------------------------------
 Total job time:  26.77s(wall), 26.27s(cpu) 
 Wed Apr 24 14:57:02 2013

        *************************************************************
        *                                                           *
        *  Thank you very much for using Q-Chem.  Have a nice day.  *
        *                                                           *
        *************************************************************


0 sent ACK to 0 
now end server 0 ... 
 
**********************************************************************
Job 2 of 3 
**********************************************************************
 
Process 0 of 1 is on cl173.stfx.acenet.ca - thread support 1
initial socket setup ...start
initial socket setup ...done 
now start server 0 ... 

cmd = /usr/bin/ssh clhead /usr/local/qchem/bin/get_hostid 1920969526 > /scratch/tmp/5954068.1.medium.q/qchem28385/lic.dat
                  Welcome to Q-Chem
     A Quantum Leap Into The Future Of Chemistry

 Y. Shao, L. Fusti-Molnar, Y. Jung, J. Kussmann, C. Ochsenfeld,
 S. T. Brown, A. T. B. Gilbert, L. V. Slipchenko,S. V. Levchenko,
 D. P. O'Neill, R. A. DiStasio Jr., R. C. Lochan, T. Wang,
 G. J. O. Beran, N. A. Besley, J. M. Herbert, C. Y. Lin,
 T. Van Voorhis, S. H. Chien, A. Sodt, R. P. Steele, 
 V. A. Rassolov, P. E. Maslen, P. P. Korambath, R. D. Adamson,
 B. Austin, J. Baker, E. F. C. Byrd, H. Dachsel, R. J. Doerksen,
 A. Dreuw, B. D. Dunietz, A. D. Dutoi, T. R. Furlani,
 S. R. Gwaltney, A. Heyden, S. Hirata, C.-P. Hsu, G. Kedziora,
 R. Z. Khaliullin, P. Klunzinger, A. M. Lee, M. S. Lee, W. Liang,
 I. Lotan, N. Nair, B. Peters, E. I. Proynov, P. A. Pieniazek, 
 Y. M. Rhee, J. Ritchie, E. Rosta, C. D. Sherrill, 
 A. C. Simmonett, J. E. Subotnik, H. L. Woodcock III,
 W. Zhang, A. T. Bell, A. K. Chakraborty, D. M. Chipman,
 F. J. Keil, A. Warshel, W. J. Hehre, H. F. Schaefer III,
 J. Kong, A. I. Krylov, P. M. W. Gill, M. Head-Gordon,
 Q-Chem, Version 3.1, Q-Chem, Inc., Pittsburgh, PA (2007).

 Additional authors for Version 3.1: 
 Z. Gan, Y. Zhao, N. E. Schultz, D. Truhlar, E. Epifanovsky and M. Oana.

 Additional authors for Version 3.2: 
 R. Baer, B. R. Brooks, D. Casanova, J.-D. Chai, C.-L. Cheng, 
 C. Cramer, D. Crittenden, A. Ghysels, G. Hawkins, E. G. Hohenstein, 
 C. Kelley, W. Kurlancheek, D. Liotard, E. Livshits, P. Manohar, 
 A. Marenich, D. Neuhauser, R. Olson, M. A. Rohrdanz, K. S. Thanthiriwatte, 
 A. J. W. Thom, V. Vanovschi, C. F. Williams, Q. Wu and Z.-Q. You. 


 Intel X86 Linux Version

 Q-chem begins on Wed Apr 24 14:57:04 2013  

 Parallel job on  1  processors
Processing $rem in /usr/local/qchem/config/preferences.

theFileMan(): MAXOPENFILES=974 MAX_SUB_FILE_NUM=16
Maximum size of a physical file is 2.0 GB, maximum size of a tmp-file is 32.0 GB


--------------------------------------------------------------
User input:
--------------------------------------------------------------

$molecule
0,1
Si
H,1,R
H,1,R,2,109.471221
H,1,R,2,109.471221,3,120.,0
H,1,R,2,109.471221,3,-120.,0

 R=1.48598655

$end

$comment
neutral
$end

$xc_functional
C PBE   1.00
X wPBE  1.00
$end


$rem
SYMMETRY_DECOMPOSITION	0
LRC_DFT                 true
exchange 		general
BASIS                   g3large
omega			700
mem_static              760
max_scf_cycles          200
scf_final_print         1
sym_ignore              true
$end

--------------------------------------------------------------
 Writing REM_CC_EA            5
 ----------------------------------------------------
       Standard Nuclear Orientation (Angstroms)
    I     Atom         X            Y            Z
 ----------------------------------------------------
    1      Si      0.000000     0.000000     0.000000
    2      H       0.000000     0.000000     1.485987
    3      H       1.401002     0.000000    -0.495329
    4      H      -0.700501    -1.213303    -0.495329
    5      H      -0.700501     1.213303    -0.495329
 ----------------------------------------------------
 Nuclear Repulsion Energy =    21.2506937090 hartrees
 There are        9 alpha and        9 beta electrons
 Requested basis set is G3large
 There are 43 shells and 106 basis functions

Total QAlloc Memory Limit   2000 MB
Mega-Array Size       743 MB
MEM_STATIC part       760 MB

                       Distance Matrix (Angstroms)
             Si(  1)   H (  2)   H (  3)   H (  4)
   H (  2)  1.485987
   H (  3)  1.485987  2.426606
   H (  4)  1.485987  2.426606  2.426606
   H (  5)  1.485987  2.426606  2.426606  2.426606
 
 A cutoff of  1.0D-08 yielded    946 shell pairs
 There are   5819 function pairs (  7380 Cartesian)
Evaluating contribution to one-electron hamiltonian from nuclear
 Smallest overlap matrix eigenvalue = 8.07E-04
 Multipole matrices computed through 2nd order

  Scale SEOQF with 1.000000e-01/1.000000e-01/1.000000e-01

 Standard Electronic Orientation quadrupole field applied
 Guess from superposition of atomic densities
 Warning:  Energy on first SCF cycle will be non-variational
 Long-range K will be added via erf
 Coulomb attenuation parameter = 0.7 bohr**(-1)
 A restricted Kohn-Sham SCF calculation will be
 performed using Pulay DIIS extrapolation
 Exchange:  wPBE + LR-HF      Correlation:  PBE
 Using SG-1 standard quadrature grid
 SCF converges when DIIS error is below 1.0E-05
 Requested basis set is G3large
 There are 43 shells and 106 basis functions
 A cutoff of  1.0D-08 yielded    946 shell pairs
 There are   5819 function pairs (  7380 Cartesian)
 ---------------------------------------
  Cycle       Energy         DIIS Error
 ---------------------------------------
    1    -291.6229758413      2.78E-02
    2    -291.8125395331      2.39E-03
    3    -291.8309508813      6.31E-04
    4    -291.8322826011      2.03E-04
    5    -291.8323903352      4.91E-05
    6    -291.8323985444      1.23E-05
    7    -291.8323993030      2.56E-06 Convergence criterion met
 ---------------------------------------
 One-Electron    Energy =  -445.6946668113
 Total Coulomb   Energy =   154.9372046279
 Alpha Exchange  Energy =    -2.8218342437
 Beta  Exchange  Energy =    -2.8218342437
 DFT   Exchange  Energy =   -16.0654679522
 DFT Correlation Energy =    -0.6164943891
 Nuclear Repu.   Energy =    21.2506937090
 Nuclear Attr.   Energy =  -736.8366856624
 Kinetic         Energy =   291.1420188511
 SCF time:  CPU 16.69 s  wall 17.07 s
 Final Alpha MO Eigenvalues
            1           2           3           4           5           6
    1 -65.7857407  -5.4490615  -3.8252180  -3.8251945  -3.8251935  -0.7421683
            7           8           9          10          11          12
    1  -0.5019093  -0.5019077  -0.5019039   0.0474519   0.0728245   0.0728256
           13          14
    1   0.0728275   0.0919788
 Analysis of SCF Wavefunction
 
 --------------------------------------------------------------
                    Orbital Energies (a.u.)
 --------------------------------------------------------------
 
 Alpha MOs
 -- Occupied --
-65.786  -5.449  -3.825  -3.825  -3.825  -0.742  -0.502  -0.502
 -0.502
 -- Virtual --
  0.047   0.073   0.073   0.073   0.092   0.092   0.092   0.173
  0.177   0.177   0.177   0.227   0.227   0.229   0.354   0.354
  0.354   0.412   0.412   0.412   0.496   0.559   0.559   0.559
  0.575   0.575   0.575   0.660   0.793   0.793   0.793   0.828
  0.828   0.915   0.950   0.950   0.950   1.156   1.156   1.156
  1.284   1.284   1.303   1.303   1.303   1.429   1.477   1.477
  1.477   1.673   1.673   1.673   2.291   2.291   2.291   2.354
  2.354   2.354   2.545   2.984   2.984   2.984   3.233   3.724
  3.725   3.975   3.976   3.977   4.193   4.193   4.268   4.268
  4.268   4.283   4.283   4.283   4.574   4.698   4.699   4.700
  6.199  11.573  11.573  11.573  17.703  17.762  17.890  17.949
 18.020  22.343  22.348  22.352  22.361  22.367  22.368  22.398
141.096
 --------------------------------------------------------------
 
          Ground-State Mulliken Net Atomic Charges

     Atom                 Charge (a.u.)
  ----------------------------------------
      1 Si                    0.268809
      2 H                    -0.067223
      3 H                    -0.067148
      4 H                    -0.067231
      5 H                    -0.067206
  ----------------------------------------
  Sum of atomic charges =     0.000000

 -----------------------------------------------------------------
                    Cartesian Multipole Moments
 -----------------------------------------------------------------
    Charge (ESU x 10^10)
                 0.0000
    Dipole Moment (Debye)
         X       0.0002      Y       0.0000      Z       0.0000
       Tot       0.0003
    Quadrupole Moments (Debye-Ang)
        XX     -16.3520     XY       0.0000     YY     -16.3524
        XZ      -0.0001     YZ      -0.0001     ZZ     -16.3524
    Octapole Moments (Debye-Ang^2)
       XXX      -0.7858    XXY       0.0001    XYY       0.7867
       YYY       0.0002    XXZ       0.5559    XYZ       0.0001
       YYZ       0.5561    XZZ       0.0002    YZZ       0.0000
       ZZZ      -1.1129
    Hexadecapole Moments (Debye-Ang^3)
      XXXX     -40.8969   XXXY       0.0000   XXYY     -13.6328
      XYYY      -0.0001   YYYY     -40.8985   XXXZ      -0.3381
      XXYZ      -0.0001   XYYZ       0.3378   YYYZ      -0.0002
      XXZZ     -13.8715   XYZZ      -0.0001   YYZZ     -13.8717
      XZZZ      -0.0001   YZZZ      -0.0002   ZZZZ     -40.6596
 -----------------------------------------------------------------
 Total job time:  17.19s(wall), 16.79s(cpu) 
 Wed Apr 24 14:57:21 2013

        *************************************************************
        *                                                           *
        *  Thank you very much for using Q-Chem.  Have a nice day.  *
        *                                                           *
        *************************************************************


0 sent ACK to 0 
now end server 0 ... 
 
**********************************************************************
Job 3 of 3 
**********************************************************************
 
Process 0 of 1 is on cl173.stfx.acenet.ca - thread support 1
initial socket setup ...start
initial socket setup ...done 
now start server 0 ... 

cmd = /usr/bin/ssh clhead /usr/local/qchem/bin/get_hostid 1201209042 > /scratch/tmp/5954068.1.medium.q/qchem28385/lic.dat
                  Welcome to Q-Chem
     A Quantum Leap Into The Future Of Chemistry

 Y. Shao, L. Fusti-Molnar, Y. Jung, J. Kussmann, C. Ochsenfeld,
 S. T. Brown, A. T. B. Gilbert, L. V. Slipchenko,S. V. Levchenko,
 D. P. O'Neill, R. A. DiStasio Jr., R. C. Lochan, T. Wang,
 G. J. O. Beran, N. A. Besley, J. M. Herbert, C. Y. Lin,
 T. Van Voorhis, S. H. Chien, A. Sodt, R. P. Steele, 
 V. A. Rassolov, P. E. Maslen, P. P. Korambath, R. D. Adamson,
 B. Austin, J. Baker, E. F. C. Byrd, H. Dachsel, R. J. Doerksen,
 A. Dreuw, B. D. Dunietz, A. D. Dutoi, T. R. Furlani,
 S. R. Gwaltney, A. Heyden, S. Hirata, C.-P. Hsu, G. Kedziora,
 R. Z. Khaliullin, P. Klunzinger, A. M. Lee, M. S. Lee, W. Liang,
 I. Lotan, N. Nair, B. Peters, E. I. Proynov, P. A. Pieniazek, 
 Y. M. Rhee, J. Ritchie, E. Rosta, C. D. Sherrill, 
 A. C. Simmonett, J. E. Subotnik, H. L. Woodcock III,
 W. Zhang, A. T. Bell, A. K. Chakraborty, D. M. Chipman,
 F. J. Keil, A. Warshel, W. J. Hehre, H. F. Schaefer III,
 J. Kong, A. I. Krylov, P. M. W. Gill, M. Head-Gordon,
 Q-Chem, Version 3.1, Q-Chem, Inc., Pittsburgh, PA (2007).

 Additional authors for Version 3.1: 
 Z. Gan, Y. Zhao, N. E. Schultz, D. Truhlar, E. Epifanovsky and M. Oana.

 Additional authors for Version 3.2: 
 R. Baer, B. R. Brooks, D. Casanova, J.-D. Chai, C.-L. Cheng, 
 C. Cramer, D. Crittenden, A. Ghysels, G. Hawkins, E. G. Hohenstein, 
 C. Kelley, W. Kurlancheek, D. Liotard, E. Livshits, P. Manohar, 
 A. Marenich, D. Neuhauser, R. Olson, M. A. Rohrdanz, K. S. Thanthiriwatte, 
 A. J. W. Thom, V. Vanovschi, C. F. Williams, Q. Wu and Z.-Q. You. 


 Intel X86 Linux Version

 Q-chem begins on Wed Apr 24 14:57:24 2013  

 Parallel job on  1  processors
Processing $rem in /usr/local/qchem/config/preferences.

theFileMan(): MAXOPENFILES=974 MAX_SUB_FILE_NUM=16
Maximum size of a physical file is 2.0 GB, maximum size of a tmp-file is 32.0 GB


--------------------------------------------------------------
User input:
--------------------------------------------------------------

$molecule
1,2
Si
H,1,R
H,1,R,2,109.471221
H,1,R,2,109.471221,3,120.,0
H,1,R,2,109.471221,3,-120.,0

 R=1.48598655

$end

$comment
positive
$end

$xc_functional
C PBE   1.00
X wPBE  1.00
$end

$rem
SYMMETRY_DECOMPOSITION	0
LRC_DFT                 true
exchange 		general
BASIS                   g3large
omega			700
mem_static              760
max_scf_cycles          200
scf_final_print         1
sym_ignore              true
$end

--------------------------------------------------------------
 Writing REM_CC_EA            5
 ----------------------------------------------------
       Standard Nuclear Orientation (Angstroms)
    I     Atom         X            Y            Z
 ----------------------------------------------------
    1      Si      0.000000     0.000000     0.000000
    2      H       0.000000     0.000000     1.485987
    3      H       1.401002     0.000000    -0.495329
    4      H      -0.700501    -1.213303    -0.495329
    5      H      -0.700501     1.213303    -0.495329
 ----------------------------------------------------
 Nuclear Repulsion Energy =    21.2506937090 hartrees
 There are        9 alpha and        8 beta electrons
 Requested basis set is G3large
 There are 43 shells and 106 basis functions

Total QAlloc Memory Limit   2000 MB
Mega-Array Size       743 MB
MEM_STATIC part       760 MB

                       Distance Matrix (Angstroms)
             Si(  1)   H (  2)   H (  3)   H (  4)
   H (  2)  1.485987
   H (  3)  1.485987  2.426606
   H (  4)  1.485987  2.426606  2.426606
   H (  5)  1.485987  2.426606  2.426606  2.426606
 
 A cutoff of  1.0D-08 yielded    946 shell pairs
 There are   5819 function pairs (  7380 Cartesian)
Evaluating contribution to one-electron hamiltonian from nuclear
 Smallest overlap matrix eigenvalue = 8.07E-04
 Multipole matrices computed through 2nd order

  Scale SEOQF with 1.000000e-01/1.000000e-01/1.000000e-01

 Standard Electronic Orientation quadrupole field applied
 Guess from superposition of atomic densities
 Warning:  Energy on first SCF cycle will be non-variational
 Long-range K will be added via erf
 Coulomb attenuation parameter = 0.7 bohr**(-1)
 An unrestricted Kohn-Sham SCF calculation will be
 performed using Pulay DIIS extrapolation
 Exchange:  wPBE + LR-HF      Correlation:  PBE
 Using SG-1 standard quadrature grid
 SCF converges when DIIS error is below 1.0E-05
 Requested basis set is G3large
 There are 43 shells and 106 basis functions
 A cutoff of  1.0D-08 yielded    946 shell pairs
 There are   5819 function pairs (  7380 Cartesian)
 Warning!  Inaccurate integrated density:
   Number of electrons =    17
   Numerical integral  =    17.999844606031
   Relative error      =     5.8814388590 %
 ---------------------------------------
  Cycle       Energy         DIIS Error
 ---------------------------------------
    1    -291.6229758413      2.78E-02
    2    -291.3002270232      3.65E-03
    3    -291.3506114434      1.10E-03
    4    -291.3544048857      4.31E-04
    5    -291.3551521220      1.13E-04
    6    -291.3553958624      5.76E-05
    7    -291.3555048609      3.99E-05
    8    -291.3555822840      3.29E-05
    9    -291.3556863353      2.98E-05
   10    -291.3558631501      2.71E-05
   11    -291.3560167655      2.60E-05
   12    -291.3561834686      2.42E-05
   13    -291.3563591027      3.92E-05
   14    -291.3564985253      1.69E-05
   15    -291.3565545236      3.00E-05
   16    -291.3565861214      8.08E-06 Convergence criterion met
 ---------------------------------------
 One-Electron    Energy =  -440.1489663314
 Total Coulomb   Energy =   149.5530235894
 Alpha Exchange  Energy =    -2.8529823841
 Beta  Exchange  Energy =    -2.5650585956
 DFT   Exchange  Energy =   -16.0135467723
 DFT Correlation Energy =    -0.5797493364
 Nuclear Repu.   Energy =    21.2506937090
 Nuclear Attr.   Energy =  -731.0551772355
 Kinetic         Energy =   290.9062109041
 <S^2> = 0.7606
 SCF time:  CPU 47.21 s  wall 48.93 s
 Final Alpha MO Eigenvalues
            1           2           3           4           5           6
    1 -66.0980879  -5.7612273  -4.1460642  -4.1334370  -4.1332177  -1.0874327
            7           8           9          10          11          12
    1  -0.8861476  -0.7726878  -0.7700494  -0.1335559  -0.1267432  -0.1263514
           13          14
    1  -0.1180933  -0.0724585
 Final Beta MO Eigenvalues
            1           2           3           4           5           6
    1 -66.0971906  -5.7601979  -4.1413989  -4.1332426  -4.1328494  -0.9883775
            7           8           9          10          11          12
    1  -0.7518380  -0.7484590  -0.4513582  -0.1163948  -0.1161963  -0.1158929
           13
    1  -0.0971430
 Analysis of SCF Wavefunction
 
 --------------------------------------------------------------
                    Orbital Energies (a.u.)
 --------------------------------------------------------------
 
 Alpha MOs
 -- Occupied --
-66.098  -5.761  -4.146  -4.133  -4.133  -1.087  -0.886  -0.773
 -0.770
 -- Virtual --
 -0.134  -0.127  -0.126  -0.118  -0.072  -0.060  -0.060  -0.020
 -0.020  -0.011   0.002   0.002   0.010   0.024   0.130   0.153
  0.154   0.204   0.216   0.217   0.255   0.305   0.305   0.330
  0.334   0.340   0.340   0.425   0.545   0.553   0.553   0.555
  0.555   0.647   0.680   0.699   0.701   0.880   0.880   0.918
  1.005   1.006   1.051   1.052   1.052   1.149   1.203   1.205
  1.205   1.358   1.417   1.418   1.973   1.974   2.011   2.045
  2.057   2.058   2.250   2.556   2.716   2.719   2.935   3.417
  3.418   3.609   3.690   3.692   3.771   3.771   3.953   3.954
  4.000   4.009   4.010   4.015   4.225   4.357   4.414   4.416
  5.889  11.252  11.268  11.269  17.389  17.450  17.580  17.640
 17.705  22.028  22.035  22.043  22.049  22.055  22.056  22.087
140.784
 
 Beta MOs
 -- Occupied --
-66.097  -5.760  -4.141  -4.133  -4.133  -0.988  -0.752  -0.748
 -- Virtual --
 -0.451  -0.116  -0.116  -0.116  -0.097  -0.066  -0.060  -0.059
 -0.008  -0.008   0.003   0.003   0.006   0.018   0.031   0.151
  0.154   0.154   0.211   0.218   0.218   0.281   0.321   0.321
  0.330   0.348   0.348   0.348   0.430   0.558   0.558   0.559
  0.565   0.565   0.680   0.686   0.707   0.707   0.902   0.902
  0.923   1.019   1.019   1.056   1.056   1.061   1.173   1.208
  1.208   1.214   1.386   1.422   1.423   1.990   1.991   2.009
  2.060   2.065   2.065   2.261   2.667   2.728   2.730   2.961
  3.419   3.420   3.656   3.695   3.697   3.878   3.878   3.972
  3.972   4.011   4.020   4.021   4.026   4.282   4.384   4.423
  4.424   5.894  11.258  11.268  11.270  17.391  17.451  17.581
 17.641  17.708  22.029  22.036  22.044  22.050  22.056  22.057
 22.088 140.785
 --------------------------------------------------------------
 
          Ground-State Mulliken Net Atomic Charges

     Atom                 Charge (a.u.)    Spin (a.u.)
  --------------------------------------------------------
      1 Si                    0.540259       0.171846
      2 H                     0.073870       0.063283
      3 H                     0.074489       0.071197
      4 H                     0.238154       0.638948
      5 H                     0.073228       0.054727
  --------------------------------------------------------
  Sum of atomic charges =     1.000000
  Sum of spin   charges =     1.000000

 -----------------------------------------------------------------
                    Cartesian Multipole Moments
 -----------------------------------------------------------------
    Charge (ESU x 10^10)
                 4.8032
    Dipole Moment (Debye)
         X      -0.9334      Y      -1.6534      Z      -0.6719
       Tot       2.0140
    Quadrupole Moments (Debye-Ang)
        XX     -11.0968     XY       1.9037     YY      -9.0064
        XZ       0.7642     YZ       1.3295     ZZ     -11.6856
    Octapole Moments (Debye-Ang^2)
       XXX       0.1713    XXY      -1.1004    XYY      -2.6487
       YYY      -3.3077    XXZ      -1.0288    XYZ      -0.7535
       YYZ      -1.8707    XZZ      -0.3231    YZZ      -0.5696
       ZZZ       0.8769
    Hexadecapole Moments (Debye-Ang^3)
      XXXX     -25.3128   XXXY       2.5867   XXYY      -7.2428
      XYYY       3.0269   YYYY     -19.1437   XXXZ      -0.3202
      XXYZ       0.7054   XYYZ       1.9378   YYYZ       2.1189
      XXZZ      -9.6225   XYZZ       0.8990   YYZZ      -8.6353
      XZZZ       0.9914   YZZZ       1.7288   ZZZZ     -25.9343
 -----------------------------------------------------------------
 Total job time:  49.04s(wall), 47.31s(cpu) 
 Wed Apr 24 14:58:13 2013

        *************************************************************
        *                                                           *
        *  Thank you very much for using Q-Chem.  Have a nice day.  *
        *                                                           *
        *************************************************************


0 sent ACK to 0 
now end server 0 ... 
