Process 0 of 1 is on cl153.stfx.acenet.ca - thread support 1
initial socket setup ...start
initial socket setup ...done 
now start server 0 ... 

cmd = /usr/bin/ssh clhead /usr/local/qchem/bin/get_hostid 30582131 > /scratch/tmp/6063700.1.medium.q/qchem19415/lic.dat
                  Welcome to Q-Chem
     A Quantum Leap Into The Future Of Chemistry

 Y. Shao, L. Fusti-Molnar, Y. Jung, J. Kussmann, C. Ochsenfeld,
 S. T. Brown, A. T. B. Gilbert, L. V. Slipchenko,S. V. Levchenko,
 D. P. O'Neill, R. A. DiStasio Jr., R. C. Lochan, T. Wang,
 G. J. O. Beran, N. A. Besley, J. M. Herbert, C. Y. Lin,
 T. Van Voorhis, S. H. Chien, A. Sodt, R. P. Steele, 
 V. A. Rassolov, P. E. Maslen, P. P. Korambath, R. D. Adamson,
 B. Austin, J. Baker, E. F. C. Byrd, H. Dachsel, R. J. Doerksen,
 A. Dreuw, B. D. Dunietz, A. D. Dutoi, T. R. Furlani,
 S. R. Gwaltney, A. Heyden, S. Hirata, C.-P. Hsu, G. Kedziora,
 R. Z. Khaliullin, P. Klunzinger, A. M. Lee, M. S. Lee, W. Liang,
 I. Lotan, N. Nair, B. Peters, E. I. Proynov, P. A. Pieniazek, 
 Y. M. Rhee, J. Ritchie, E. Rosta, C. D. Sherrill, 
 A. C. Simmonett, J. E. Subotnik, H. L. Woodcock III,
 W. Zhang, A. T. Bell, A. K. Chakraborty, D. M. Chipman,
 F. J. Keil, A. Warshel, W. J. Hehre, H. F. Schaefer III,
 J. Kong, A. I. Krylov, P. M. W. Gill, M. Head-Gordon,
 Q-Chem, Version 3.1, Q-Chem, Inc., Pittsburgh, PA (2007).

 Additional authors for Version 3.1: 
 Z. Gan, Y. Zhao, N. E. Schultz, D. Truhlar, E. Epifanovsky and M. Oana.

 Additional authors for Version 3.2: 
 R. Baer, B. R. Brooks, D. Casanova, J.-D. Chai, C.-L. Cheng, 
 C. Cramer, D. Crittenden, A. Ghysels, G. Hawkins, E. G. Hohenstein, 
 C. Kelley, W. Kurlancheek, D. Liotard, E. Livshits, P. Manohar, 
 A. Marenich, D. Neuhauser, R. Olson, M. A. Rohrdanz, K. S. Thanthiriwatte, 
 A. J. W. Thom, V. Vanovschi, C. F. Williams, Q. Wu and Z.-Q. You. 


 Intel X86 Linux Version

 Q-chem begins on Sun Jul  7 08:40:04 2013  

 Parallel job on  1  processors
Processing $rem in /usr/local/qchem/config/preferences.

theFileMan(): MAXOPENFILES=974 MAX_SUB_FILE_NUM=16
Maximum size of a physical file is 2.0 GB, maximum size of a tmp-file is 32.0 GB


--------------------------------------------------------------
User input:
--------------------------------------------------------------

$molecule
-1,2
O         -0.00679        0.00000        0.01924
C         -0.00704        0.00000        1.21921
H          0.95367        0.00000        1.77265
C         -1.23948        0.00000        2.06376
H         -2.13110        0.00000        1.44172
H         -1.23454       -0.87707        2.71383
H         -1.23454        0.87707        2.71383
$end

$comment
negative
$end

$xc_functional
C PBE   1.00
X wPBE  1.00
$end

$rem
SYMMETRY_DECOMPOSITION	0
exchange 		general
LRC_DFT                 true
BASIS                   g3large
omega			700
mem_static              760
max_scf_cycles          200
scf_final_print         1
sym_ignore              true
$end

--------------------------------------------------------------
 Writing REM_CC_EA            7
 ----------------------------------------------------
       Standard Nuclear Orientation (Angstroms)
    I     Atom         X            Y            Z
 ----------------------------------------------------
    1      O      -0.006790     0.000000     0.019240
    2      C      -0.007040     0.000000     1.219210
    3      H       0.953670     0.000000     1.772650
    4      C      -1.239480     0.000000     2.063760
    5      H      -2.131100     0.000000     1.441720
    6      H      -1.234540    -0.877070     2.713830
    7      H      -1.234540     0.877070     2.713830
 ----------------------------------------------------
 Nuclear Repulsion Energy =    70.0674222101 hartrees
 There are       13 alpha and       12 beta electrons
 Requested basis set is G3large
 There are 54 shells and 166 basis functions

Total QAlloc Memory Limit   2000 MB
Mega-Array Size       743 MB
MEM_STATIC part       760 MB

                       Distance Matrix (Angstroms)
             O (  1)   C (  2)   H (  3)   C (  4)   H (  5)   H (  6)
   C (  2)  1.199970
   H (  3)  1.999232  1.108720
   C (  4)  2.387381  1.494046  2.212386
   H (  5)  2.556588  2.135683  3.102470  1.087161
   H (  6)  3.088274  2.123652  2.538372  1.091727  1.786431
   H (  7)  3.088274  2.123652  2.538372  1.091727  1.786431  1.754140

 
 A cutoff of  1.0D-08 yielded   1418 shell pairs
 There are  13429 function pairs ( 16544 Cartesian)
Evaluating contribution to one-electron hamiltonian from nuclear
 Smallest overlap matrix eigenvalue = 1.31E-04
 Multipole matrices computed through 2nd order

  Scale SEOQF with 1.000000e-01/1.000000e-01/1.000000e-01

 Standard Electronic Orientation quadrupole field applied
 Nucleus-field energy     =    -0.0000000051 hartrees
 Guess from superposition of atomic densities
 Warning:  Energy on first SCF cycle will be non-variational
 Long-range K will be added via erf
 Coulomb attenuation parameter = 0.7 bohr**(-1)
 An unrestricted Kohn-Sham SCF calculation will be
 performed using Pulay DIIS extrapolation
 Exchange:  wPBE + LR-HF      Correlation:  PBE
 Using SG-1 standard quadrature grid
 SCF converges when DIIS error is below 1.0E-05
 Requested basis set is G3large
 There are 54 shells and 166 basis functions
 A cutoff of  1.0D-08 yielded   1418 shell pairs
 There are  13429 function pairs ( 16544 Cartesian)
 Warning!  Inaccurate integrated density:
   Number of electrons =    25
   Numerical integral  =    23.999992059399
   Relative error      =    -4.0000317624 %
 ---------------------------------------
  Cycle       Energy         DIIS Error
 ---------------------------------------
    1    -154.4886595509      3.61E-02
    2    -153.5821696770      6.42E-03
    3    -153.5907267868      7.16E-03
    4    -153.7299922392      6.40E-04
    5    -153.7332223006      2.28E-04
    6    -153.7338967609      8.12E-05
    7    -153.7341648889      4.79E-05
    8    -153.7343225876      2.81E-05
    9    -153.7344373094      2.27E-05
   10    -153.7345184331      1.78E-05
   11    -153.7345932221      1.74E-05
   12    -153.7346672684      1.46E-05
   13    -153.7347707829      1.06E-05
   14    -153.7348508923      7.21E-06 Convergence criterion met
 ---------------------------------------
 One-Electron    Energy =  -353.4974569435
 Total Coulomb   Energy =   150.8505305960
 Alpha Exchange  Energy =    -3.9027917143
 Beta  Exchange  Energy =    -3.6186107531
 DFT   Exchange  Energy =   -12.8239000289
 DFT Correlation Energy =    -0.8100442534
 Nuclear Repu.   Energy =    70.0674222050
 Nuclear Attr.   Energy =  -507.0375196654
 Kinetic         Energy =   153.5400627219
 <S^2> = 0.7574
 SCF time:  CPU 113.84 s  wall 114.36 s
 Final Alpha MO Eigenvalues
            1           2           3           4           5           6
    1 -18.7883590 -10.0486598 -10.0299242  -1.0063514  -0.7526050  -0.5270485
            7           8           9          10          11          12
    1  -0.4090378  -0.3958894  -0.3508018  -0.3183269  -0.2955918  -0.1408823
           13          14          15          16          17          18
    1   0.0186547   0.1623780   0.1816966   0.1873136   0.2038367   0.2614967
 Final Beta MO Eigenvalues
            1           2           3           4           5           6
    1 -18.7800683 -10.0497559 -10.0209266  -0.9868708  -0.7449287  -0.4951281
            7           8           9          10          11          12
    1  -0.4018349  -0.3742675  -0.3445500  -0.3091564  -0.2163491  -0.1332819
           13          14          15          16          17
    1   0.1629863   0.1822018   0.1881256   0.2041602   0.2621347
 Analysis of SCF Wavefunction
 
 --------------------------------------------------------------
                    Orbital Energies (a.u.)
 --------------------------------------------------------------
 
 Alpha MOs
 -- Occupied --
-18.788 -10.049 -10.030  -1.006  -0.753  -0.527  -0.409  -0.396
 -0.351  -0.318  -0.296  -0.141   0.019
 -- Virtual --
  0.162   0.182   0.187   0.204   0.261   0.277   0.293   0.293
  0.315   0.319   0.339   0.354   0.432   0.441   0.471   0.501
  0.515   0.528   0.576   0.585   0.636   0.713   0.723   0.761
  0.824   0.834   0.855   0.893   0.903   0.924   0.927   0.956
  1.000   1.080   1.097   1.130   1.169   1.193   1.319   1.325
  1.373   1.384   1.427   1.456   1.470   1.516   1.542   1.552
  1.579   1.617   1.643   1.725   1.747   1.784   1.794   1.799
  1.884   1.925   1.987   2.118   2.191   2.338   2.426   2.672
  2.839   2.853   2.907   2.959   3.123   3.148   3.201   3.212
  3.320   3.354   3.429   3.466   3.509   3.511   3.553   3.567
  3.578   3.631   3.776   3.807   3.811   3.854   3.890   4.032
  4.049   4.052   4.137   4.249   4.284   4.288   4.402   4.430
  4.502   4.589   4.601   4.660   4.674   4.805   4.850   4.928
  4.960   5.020   5.138   5.469   5.508   5.582   5.595   5.701
  5.906   5.949   5.984   6.067   6.093   6.309   6.811   7.143
  7.355   7.399   7.480   7.732   7.922   8.132  24.614  25.005
 27.757  28.117  28.464  28.491  28.605  28.836  41.316  41.337
 41.414  41.543  41.545  41.556  41.619  41.628  41.642  41.742
 44.210  44.261  44.364  44.446  44.462  46.208  46.318  47.033
 50.557
 
 Beta MOs
 -- Occupied --
-18.780 -10.050 -10.021  -0.987  -0.745  -0.495  -0.402  -0.374
 -0.345  -0.309  -0.216  -0.133
 -- Virtual --
  0.163   0.182   0.188   0.204   0.262   0.278   0.283   0.294
  0.315   0.320   0.341   0.359   0.408   0.440   0.442   0.478
  0.503   0.517   0.550   0.577   0.587   0.644   0.716   0.727
  0.765   0.828   0.854   0.874   0.905   0.924   0.930   0.946
  0.968   1.007   1.098   1.105   1.134   1.179   1.196   1.328
  1.331   1.384   1.388   1.433   1.460   1.484   1.520   1.546
  1.569   1.594   1.619   1.648   1.729   1.754   1.784   1.796
  1.804   1.887   1.933   1.990   2.139   2.214   2.347   2.449
  2.675   2.848   2.864   2.912   2.967   3.128   3.171   3.212
  3.245   3.322   3.365   3.442   3.469   3.518   3.527   3.562
  3.579   3.589   3.642   3.786   3.815   3.829   3.880   3.904
  4.033   4.058   4.069   4.143   4.253   4.288   4.295   4.404
  4.434   4.508   4.594   4.608   4.666   4.686   4.809   4.854
  4.935   4.962   5.025   5.142   5.473   5.544   5.599   5.616
  5.711   5.913   5.968   5.996   6.068   6.100   6.314   6.835
  7.149   7.389   7.431   7.488   7.763   7.928   8.146  24.614
 25.014  27.780  28.119  28.463  28.490  28.610  28.840  41.318
 41.347  41.418  41.550  41.552  41.561  41.629  41.634  41.641
 41.744  44.232  44.282  44.384  44.449  44.471  46.231  46.324
 47.038  50.565
 --------------------------------------------------------------
 
          Ground-State Mulliken Net Atomic Charges

     Atom                 Charge (a.u.)    Spin (a.u.)
  --------------------------------------------------------
      1 O                    -0.587724       0.248148
      2 C                    -0.406207       0.876939
      3 H                    -0.051181      -0.077339
      4 C                    -0.010651      -0.121759
      5 H                     0.031491       0.001154
      6 H                     0.014048       0.033962
      7 H                     0.010224       0.038894
  --------------------------------------------------------
  Sum of atomic charges =    -1.000000
  Sum of spin   charges =     1.000000

 -----------------------------------------------------------------
                    Cartesian Multipole Moments
 -----------------------------------------------------------------
    Charge (ESU x 10^10)
                -4.8032
    Dipole Moment (Debye)
         X       0.3345      Y       0.0480      Z      -2.8350
       Tot       2.8551
    Quadrupole Moments (Debye-Ang)
        XX     -24.3689     XY       0.1498     YY     -23.8383
        XZ       1.8414     YZ       0.0421     ZZ     -29.7434
    Octapole Moments (Debye-Ang^2)
       XXX      32.8099    XXY       0.0434    XYY       9.0747
       YYY       0.4176    XXZ     -34.2633    XYZ       0.3832
       YYZ     -30.0098    XZZ      16.5489    YZZ      -0.0587
       ZZZ    -100.7261
    Hexadecapole Moments (Debye-Ang^3)
      XXXX    -135.8980   XXXY       0.9898   XXYY     -31.4702
      XYYY       0.9262   YYYY     -47.0016   XXXZ      75.1722
      XXYZ      -0.1422   XYYZ      20.5964   YYYZ       0.3262
      XXZZ     -98.7022   XYZZ       1.2449   YYZZ     -68.5486
      XZZZ      84.5196   YZZZ      -0.7382   ZZZZ    -389.4706
 -----------------------------------------------------------------
 Total job time:  114.55s(wall), 114.01s(cpu) 
 Sun Jul  7 08:41:58 2013

        *************************************************************
        *                                                           *
        *  Thank you very much for using Q-Chem.  Have a nice day.  *
        *                                                           *
        *************************************************************


0 sent ACK to 0 
now end server 0 ... 
 
**********************************************************************
Job 2 of 3 
**********************************************************************
 
Process 0 of 1 is on cl153.stfx.acenet.ca - thread support 1
initial socket setup ...start
initial socket setup ...done 
now start server 0 ... 

cmd = /usr/bin/ssh clhead /usr/local/qchem/bin/get_hostid 1720329922 > /scratch/tmp/6063700.1.medium.q/qchem19415/lic.dat
                  Welcome to Q-Chem
     A Quantum Leap Into The Future Of Chemistry

 Y. Shao, L. Fusti-Molnar, Y. Jung, J. Kussmann, C. Ochsenfeld,
 S. T. Brown, A. T. B. Gilbert, L. V. Slipchenko,S. V. Levchenko,
 D. P. O'Neill, R. A. DiStasio Jr., R. C. Lochan, T. Wang,
 G. J. O. Beran, N. A. Besley, J. M. Herbert, C. Y. Lin,
 T. Van Voorhis, S. H. Chien, A. Sodt, R. P. Steele, 
 V. A. Rassolov, P. E. Maslen, P. P. Korambath, R. D. Adamson,
 B. Austin, J. Baker, E. F. C. Byrd, H. Dachsel, R. J. Doerksen,
 A. Dreuw, B. D. Dunietz, A. D. Dutoi, T. R. Furlani,
 S. R. Gwaltney, A. Heyden, S. Hirata, C.-P. Hsu, G. Kedziora,
 R. Z. Khaliullin, P. Klunzinger, A. M. Lee, M. S. Lee, W. Liang,
 I. Lotan, N. Nair, B. Peters, E. I. Proynov, P. A. Pieniazek, 
 Y. M. Rhee, J. Ritchie, E. Rosta, C. D. Sherrill, 
 A. C. Simmonett, J. E. Subotnik, H. L. Woodcock III,
 W. Zhang, A. T. Bell, A. K. Chakraborty, D. M. Chipman,
 F. J. Keil, A. Warshel, W. J. Hehre, H. F. Schaefer III,
 J. Kong, A. I. Krylov, P. M. W. Gill, M. Head-Gordon,
 Q-Chem, Version 3.1, Q-Chem, Inc., Pittsburgh, PA (2007).

 Additional authors for Version 3.1: 
 Z. Gan, Y. Zhao, N. E. Schultz, D. Truhlar, E. Epifanovsky and M. Oana.

 Additional authors for Version 3.2: 
 R. Baer, B. R. Brooks, D. Casanova, J.-D. Chai, C.-L. Cheng, 
 C. Cramer, D. Crittenden, A. Ghysels, G. Hawkins, E. G. Hohenstein, 
 C. Kelley, W. Kurlancheek, D. Liotard, E. Livshits, P. Manohar, 
 A. Marenich, D. Neuhauser, R. Olson, M. A. Rohrdanz, K. S. Thanthiriwatte, 
 A. J. W. Thom, V. Vanovschi, C. F. Williams, Q. Wu and Z.-Q. You. 


 Intel X86 Linux Version

 Q-chem begins on Sun Jul  7 08:42:01 2013  

 Parallel job on  1  processors
Processing $rem in /usr/local/qchem/config/preferences.

theFileMan(): MAXOPENFILES=974 MAX_SUB_FILE_NUM=16
Maximum size of a physical file is 2.0 GB, maximum size of a tmp-file is 32.0 GB


--------------------------------------------------------------
User input:
--------------------------------------------------------------

$molecule
0,1
O         -0.00679        0.00000        0.01924
C         -0.00704        0.00000        1.21921
H          0.95367        0.00000        1.77265
C         -1.23948        0.00000        2.06376
H         -2.13110        0.00000        1.44172
H         -1.23454       -0.87707        2.71383
H         -1.23454        0.87707        2.71383
$end

$comment
neutral
$end

$xc_functional
C PBE   1.00
X wPBE  1.00
$end


$rem
SYMMETRY_DECOMPOSITION	0
LRC_DFT                 true
exchange 		general
BASIS                   g3large
omega			700
mem_static              760
max_scf_cycles          200
scf_final_print         1
sym_ignore              true
$end

--------------------------------------------------------------
 Writing REM_CC_EA            7
 ----------------------------------------------------
       Standard Nuclear Orientation (Angstroms)
    I     Atom         X            Y            Z
 ----------------------------------------------------
    1      O      -0.006790     0.000000     0.019240
    2      C      -0.007040     0.000000     1.219210
    3      H       0.953670     0.000000     1.772650
    4      C      -1.239480     0.000000     2.063760
    5      H      -2.131100     0.000000     1.441720
    6      H      -1.234540    -0.877070     2.713830
    7      H      -1.234540     0.877070     2.713830
 ----------------------------------------------------
 Nuclear Repulsion Energy =    70.0674222101 hartrees
 There are       12 alpha and       12 beta electrons
 Requested basis set is G3large
 There are 54 shells and 166 basis functions

Total QAlloc Memory Limit   2000 MB
Mega-Array Size       743 MB
MEM_STATIC part       760 MB

                       Distance Matrix (Angstroms)
             O (  1)   C (  2)   H (  3)   C (  4)   H (  5)   H (  6)
   C (  2)  1.199970
   H (  3)  1.999232  1.108720
   C (  4)  2.387381  1.494046  2.212386
   H (  5)  2.556588  2.135683  3.102470  1.087161
   H (  6)  3.088274  2.123652  2.538372  1.091727  1.786431
   H (  7)  3.088274  2.123652  2.538372  1.091727  1.786431  1.754140

 
 A cutoff of  1.0D-08 yielded   1418 shell pairs
 There are  13429 function pairs ( 16544 Cartesian)
Evaluating contribution to one-electron hamiltonian from nuclear
 Smallest overlap matrix eigenvalue = 1.31E-04
 Multipole matrices computed through 2nd order

  Scale SEOQF with 1.000000e-01/1.000000e-01/1.000000e-01

 Standard Electronic Orientation quadrupole field applied
 Nucleus-field energy     =    -0.0000000051 hartrees
 Guess from superposition of atomic densities
 Warning:  Energy on first SCF cycle will be non-variational
 Long-range K will be added via erf
 Coulomb attenuation parameter = 0.7 bohr**(-1)
 A restricted Kohn-Sham SCF calculation will be
 performed using Pulay DIIS extrapolation
 Exchange:  wPBE + LR-HF      Correlation:  PBE
 Using SG-1 standard quadrature grid
 SCF converges when DIIS error is below 1.0E-05
 Requested basis set is G3large
 There are 54 shells and 166 basis functions
 A cutoff of  1.0D-08 yielded   1418 shell pairs
 There are  13429 function pairs ( 16544 Cartesian)
 ---------------------------------------
  Cycle       Energy         DIIS Error
 ---------------------------------------
    1    -154.4886595509      3.61E-02
    2    -153.6732044160      5.73E-03
    3    -153.6982393404      6.13E-03
    4    -153.7841409013      5.37E-04
    5    -153.7868534446      2.05E-04
    6    -153.7873143115      8.32E-05
    7    -153.7874173227      3.62E-05
    8    -153.7874430692      1.54E-05
    9    -153.7874503661      5.61E-06 Convergence criterion met
 ---------------------------------------
 One-Electron    Energy =  -346.9638080509
 Total Coulomb   Energy =   143.9560275055
 Alpha Exchange  Energy =    -3.6575156588
 Beta  Exchange  Energy =    -3.6575156588
 DFT   Exchange  Energy =   -12.7514317424
 DFT Correlation Energy =    -0.7806289659
 Nuclear Repu.   Energy =    70.0674222050
 Nuclear Attr.   Energy =  -500.1259637688
 Kinetic         Energy =   153.1621557179
 SCF time:  CPU 58.71 s  wall 58.88 s
 Final Alpha MO Eigenvalues
            1           2           3           4           5           6
    1 -19.1100893 -10.3692659 -10.2761480  -1.3062749  -0.9980413  -0.7894501
            7           8           9          10          11          12
    1  -0.6740912  -0.6242250  -0.6237904  -0.5703057  -0.5306574  -0.4258064
           13          14          15          16          17
    1   0.0366717   0.0558149   0.0640637   0.0796697   0.0812553
 Analysis of SCF Wavefunction
 
 --------------------------------------------------------------
                    Orbital Energies (a.u.)
 --------------------------------------------------------------
 
 Alpha MOs
 -- Occupied --
-19.110 -10.369 -10.276  -1.306  -0.998  -0.789  -0.674  -0.624
 -0.624  -0.570  -0.531  -0.426
 -- Virtual --
  0.037   0.056   0.064   0.080   0.081   0.113   0.130   0.145
  0.146   0.158   0.170   0.180   0.197   0.255   0.263   0.275
  0.314   0.339   0.345   0.382   0.397   0.424   0.500   0.527
  0.555   0.596   0.624   0.635   0.669   0.687   0.700   0.706
  0.725   0.790   0.841   0.882   0.902   0.908   0.987   1.078
  1.091   1.141   1.141   1.191   1.240   1.244   1.275   1.307
  1.317   1.339   1.390   1.414   1.481   1.523   1.551   1.569
  1.580   1.651   1.682   1.757   1.850   1.923   2.072   2.157
  2.409   2.576   2.613   2.657   2.716   2.864   2.867   2.933
  2.944   3.075   3.087   3.161   3.207   3.245   3.253   3.303
  3.311   3.313   3.380   3.515   3.543   3.547   3.574   3.635
  3.768   3.782   3.798   3.865   3.996   4.023   4.046   4.152
  4.188   4.241   4.337   4.347   4.411   4.417   4.564   4.619
  4.690   4.704   4.773   4.861   5.200   5.214   5.297   5.302
  5.412   5.621   5.664   5.700   5.843   5.855   6.021   6.507
  6.846   7.059   7.104   7.179   7.434   7.626   7.834  24.374
 24.683  27.422  27.842  28.236  28.250  28.286  28.543  41.001
 41.097  41.176  41.206  41.207  41.278  41.329  41.346  41.414
 41.457  43.895  43.945  44.046  44.128  44.143  45.890  45.999
 46.712  50.238
 --------------------------------------------------------------
 
          Ground-State Mulliken Net Atomic Charges

     Atom                 Charge (a.u.)
  ----------------------------------------
      1 O                    -0.311671
      2 C                     0.138007
      3 H                     0.074905
      4 C                    -0.157767
      5 H                     0.100653
      6 H                     0.077928
      7 H                     0.077944
  ----------------------------------------
  Sum of atomic charges =     0.000000

 -----------------------------------------------------------------
                    Cartesian Multipole Moments
 -----------------------------------------------------------------
    Charge (ESU x 10^10)
                 0.0000
    Dipole Moment (Debye)
         X      -0.4905      Y      -0.0001      Z       3.1330
       Tot       3.1712
    Quadrupole Moments (Debye-Ang)
        XX     -17.0130     XY      -0.0003     YY     -17.6417
        XZ      -0.8376     YZ      -0.0002     ZZ     -13.5180
    Octapole Moments (Debye-Ang^2)
       XXX      24.9576    XXY      -0.0002    XYY       8.4896
       YYY      -0.0001    XXZ     -20.3943    XYZ      -0.0003
       YYZ     -20.7669    XZZ       6.9835    YZZ      -0.0001
       ZZZ     -59.0888
    Hexadecapole Moments (Debye-Ang^3)
      XXXX     -95.5750   XXXY      -0.0001   XXYY     -20.9131
      XYYY      -0.0002   YYYY     -22.5949   XXXZ      56.3572
      XXYZ      -0.0002   XYYZ      16.8385   YYYZ       0.0000
      XXZZ     -60.1508   XYZZ      -0.0010   YYZZ     -44.1210
      XZZZ      50.8845   YZZZ       0.0004   ZZZZ    -258.6997
 -----------------------------------------------------------------
 Total job time:  59.05s(wall), 58.88s(cpu) 
 Sun Jul  7 08:43:00 2013

        *************************************************************
        *                                                           *
        *  Thank you very much for using Q-Chem.  Have a nice day.  *
        *                                                           *
        *************************************************************


0 sent ACK to 0 
now end server 0 ... 
 
**********************************************************************
Job 3 of 3 
**********************************************************************
 
Process 0 of 1 is on cl153.stfx.acenet.ca - thread support 1
initial socket setup ...start
initial socket setup ...done 
now start server 0 ... 

cmd = /usr/bin/ssh clhead /usr/local/qchem/bin/get_hostid 1111066980 > /scratch/tmp/6063700.1.medium.q/qchem19415/lic.dat
                  Welcome to Q-Chem
     A Quantum Leap Into The Future Of Chemistry

 Y. Shao, L. Fusti-Molnar, Y. Jung, J. Kussmann, C. Ochsenfeld,
 S. T. Brown, A. T. B. Gilbert, L. V. Slipchenko,S. V. Levchenko,
 D. P. O'Neill, R. A. DiStasio Jr., R. C. Lochan, T. Wang,
 G. J. O. Beran, N. A. Besley, J. M. Herbert, C. Y. Lin,
 T. Van Voorhis, S. H. Chien, A. Sodt, R. P. Steele, 
 V. A. Rassolov, P. E. Maslen, P. P. Korambath, R. D. Adamson,
 B. Austin, J. Baker, E. F. C. Byrd, H. Dachsel, R. J. Doerksen,
 A. Dreuw, B. D. Dunietz, A. D. Dutoi, T. R. Furlani,
 S. R. Gwaltney, A. Heyden, S. Hirata, C.-P. Hsu, G. Kedziora,
 R. Z. Khaliullin, P. Klunzinger, A. M. Lee, M. S. Lee, W. Liang,
 I. Lotan, N. Nair, B. Peters, E. I. Proynov, P. A. Pieniazek, 
 Y. M. Rhee, J. Ritchie, E. Rosta, C. D. Sherrill, 
 A. C. Simmonett, J. E. Subotnik, H. L. Woodcock III,
 W. Zhang, A. T. Bell, A. K. Chakraborty, D. M. Chipman,
 F. J. Keil, A. Warshel, W. J. Hehre, H. F. Schaefer III,
 J. Kong, A. I. Krylov, P. M. W. Gill, M. Head-Gordon,
 Q-Chem, Version 3.1, Q-Chem, Inc., Pittsburgh, PA (2007).

 Additional authors for Version 3.1: 
 Z. Gan, Y. Zhao, N. E. Schultz, D. Truhlar, E. Epifanovsky and M. Oana.

 Additional authors for Version 3.2: 
 R. Baer, B. R. Brooks, D. Casanova, J.-D. Chai, C.-L. Cheng, 
 C. Cramer, D. Crittenden, A. Ghysels, G. Hawkins, E. G. Hohenstein, 
 C. Kelley, W. Kurlancheek, D. Liotard, E. Livshits, P. Manohar, 
 A. Marenich, D. Neuhauser, R. Olson, M. A. Rohrdanz, K. S. Thanthiriwatte, 
 A. J. W. Thom, V. Vanovschi, C. F. Williams, Q. Wu and Z.-Q. You. 


 Intel X86 Linux Version

 Q-chem begins on Sun Jul  7 08:43:03 2013  

 Parallel job on  1  processors
Processing $rem in /usr/local/qchem/config/preferences.

theFileMan(): MAXOPENFILES=974 MAX_SUB_FILE_NUM=16
Maximum size of a physical file is 2.0 GB, maximum size of a tmp-file is 32.0 GB


--------------------------------------------------------------
User input:
--------------------------------------------------------------

$molecule
1,2
O         -0.00679        0.00000        0.01924
C         -0.00704        0.00000        1.21921
H          0.95367        0.00000        1.77265
C         -1.23948        0.00000        2.06376
H         -2.13110        0.00000        1.44172
H         -1.23454       -0.87707        2.71383
H         -1.23454        0.87707        2.71383
$end

$comment
positive
$end

$xc_functional
C PBE   1.00
X wPBE  1.00
$end

$rem
SYMMETRY_DECOMPOSITION	0
LRC_DFT                 true
exchange 		general
BASIS                   g3large
omega			700
mem_static              760
max_scf_cycles          200
scf_final_print         1
sym_ignore              true
$end

--------------------------------------------------------------
 Writing REM_CC_EA            7
 ----------------------------------------------------
       Standard Nuclear Orientation (Angstroms)
    I     Atom         X            Y            Z
 ----------------------------------------------------
    1      O      -0.006790     0.000000     0.019240
    2      C      -0.007040     0.000000     1.219210
    3      H       0.953670     0.000000     1.772650
    4      C      -1.239480     0.000000     2.063760
    5      H      -2.131100     0.000000     1.441720
    6      H      -1.234540    -0.877070     2.713830
    7      H      -1.234540     0.877070     2.713830
 ----------------------------------------------------
 Nuclear Repulsion Energy =    70.0674222101 hartrees
 There are       12 alpha and       11 beta electrons
 Requested basis set is G3large
 There are 54 shells and 166 basis functions

Total QAlloc Memory Limit   2000 MB
Mega-Array Size       743 MB
MEM_STATIC part       760 MB

                       Distance Matrix (Angstroms)
             O (  1)   C (  2)   H (  3)   C (  4)   H (  5)   H (  6)
   C (  2)  1.199970
   H (  3)  1.999232  1.108720
   C (  4)  2.387381  1.494046  2.212386
   H (  5)  2.556588  2.135683  3.102470  1.087161
   H (  6)  3.088274  2.123652  2.538372  1.091727  1.786431
   H (  7)  3.088274  2.123652  2.538372  1.091727  1.786431  1.754140

 
 A cutoff of  1.0D-08 yielded   1418 shell pairs
 There are  13429 function pairs ( 16544 Cartesian)
Evaluating contribution to one-electron hamiltonian from nuclear
 Smallest overlap matrix eigenvalue = 1.31E-04
 Multipole matrices computed through 2nd order

  Scale SEOQF with 1.000000e-01/1.000000e-01/1.000000e-01

 Standard Electronic Orientation quadrupole field applied
 Nucleus-field energy     =    -0.0000000051 hartrees
 Guess from superposition of atomic densities
 Warning:  Energy on first SCF cycle will be non-variational
 Long-range K will be added via erf
 Coulomb attenuation parameter = 0.7 bohr**(-1)
 An unrestricted Kohn-Sham SCF calculation will be
 performed using Pulay DIIS extrapolation
 Exchange:  wPBE + LR-HF      Correlation:  PBE
 Using SG-1 standard quadrature grid
 SCF converges when DIIS error is below 1.0E-05
 Requested basis set is G3large
 There are 54 shells and 166 basis functions
 A cutoff of  1.0D-08 yielded   1418 shell pairs
 There are  13429 function pairs ( 16544 Cartesian)
 Warning!  Inaccurate integrated density:
   Number of electrons =    23
   Numerical integral  =    23.999992059399
   Relative error      =     4.3477915626 %
 ---------------------------------------
  Cycle       Energy         DIIS Error
 ---------------------------------------
    1    -154.4886595509      3.61E-02
    2    -153.2755970188      4.63E-03
    3    -153.3473898764      4.09E-03
    4    -153.3928023000      8.66E-04
    5    -153.4001821555      4.65E-04
    6    -153.4038790864      2.08E-04
    7    -153.4059919118      9.80E-05
    8    -153.4064534358      4.09E-05
    9    -153.4065432236      2.03E-05
   10    -153.4065701790      1.21E-05
   11    -153.4065809617      7.18E-06 Convergence criterion met
 ---------------------------------------
 One-Electron    Energy =  -339.3578902471
 Total Coulomb   Energy =   136.3714929659
 Alpha Exchange  Energy =    -3.7133905435
 Beta  Exchange  Energy =    -3.3648261079
 DFT   Exchange  Energy =   -12.6684370712
 DFT Correlation Energy =    -0.7409521630
 Nuclear Repu.   Energy =    70.0674222050
 Nuclear Attr.   Energy =  -492.1926318387
 Kinetic         Energy =   152.8347415917
 <S^2> = 0.7623
 SCF time:  CPU 88.96 s  wall 89.35 s
 Final Alpha MO Eigenvalues
            1           2           3           4           5           6
    1 -19.5512098 -10.6960947 -10.5355479  -1.7118218  -1.2783141  -1.1129159
            7           8           9          10          11          12
    1  -1.0380970  -0.9678672  -0.9508592  -0.8294872  -0.8251821  -0.8048614
           13          14          15          16          17
    1  -0.2164349  -0.1118505  -0.0860695  -0.0727059  -0.0692607
 Final Beta MO Eigenvalues
            1           2           3           4           5           6
    1 -19.5282201 -10.6982955 -10.5331717  -1.6542212  -1.2574825  -1.0748397
            7           8           9          10          11          12
    1  -0.9807882  -0.9301135  -0.8938428  -0.8174022  -0.8158575  -0.3328601
           13          14          15          16
    1  -0.2140364  -0.1099144  -0.0846319  -0.0725453
 Analysis of SCF Wavefunction
 
 --------------------------------------------------------------
                    Orbital Energies (a.u.)
 --------------------------------------------------------------
 
 Alpha MOs
 -- Occupied --
-19.551 -10.696 -10.536  -1.712  -1.278  -1.113  -1.038  -0.968
 -0.951  -0.829  -0.825  -0.805
 -- Virtual --
 -0.216  -0.112  -0.086  -0.073  -0.069  -0.047  -0.030  -0.017
 -0.010  -0.009   0.013   0.029   0.040   0.059   0.078   0.081
  0.106   0.139   0.147   0.159   0.189   0.209   0.265   0.326
  0.341   0.354   0.385   0.391   0.425   0.463   0.475   0.480
  0.488   0.578   0.584   0.619   0.649   0.678   0.772   0.817
  0.831   0.866   0.893   0.929   0.958   0.961   1.027   1.051
  1.071   1.078   1.140   1.169   1.215   1.282   1.290   1.340
  1.357   1.373   1.422   1.517   1.528   1.578   1.752   1.838
  2.076   2.274   2.359   2.362   2.472   2.569   2.578   2.646
  2.669   2.776   2.824   2.887   2.911   2.964   2.966   3.017
  3.035   3.056   3.122   3.223   3.243   3.270   3.290   3.354
  3.459   3.502   3.541   3.560   3.708   3.744   3.790   3.883
  3.931   3.948   4.049   4.058   4.159   4.162   4.301   4.376
  4.421   4.441   4.509   4.531   4.816   4.821   4.889   4.926
  5.010   5.266   5.315   5.359   5.589   5.607   5.651   6.137
  6.445   6.605   6.651   6.803   7.047   7.183   7.433  24.103
 24.368  27.096  27.548  27.940  27.978  28.014  28.247  40.677
 40.837  40.879  40.880  40.913  40.950  41.033  41.069  41.156
 41.183  43.431  43.483  43.624  43.664  43.707  45.461  45.532
 46.282  49.800
 
 Beta MOs
 -- Occupied --
-19.528 -10.698 -10.533  -1.654  -1.257  -1.075  -0.981  -0.930
 -0.894  -0.817  -0.816
 -- Virtual --
 -0.333  -0.214  -0.110  -0.085  -0.073  -0.067  -0.045  -0.029
 -0.017  -0.010  -0.008   0.015   0.032   0.042   0.068   0.080
  0.084   0.108   0.141   0.151   0.164   0.210   0.213   0.271
  0.326   0.352   0.365   0.382   0.402   0.428   0.465   0.480
  0.481   0.492   0.580   0.585   0.622   0.654   0.681   0.774
  0.822   0.842   0.873   0.896   0.936   0.969   1.000   1.031
  1.060   1.075   1.086   1.155   1.177   1.228   1.289   1.292
  1.346   1.361   1.381   1.436   1.529   1.551   1.618   1.778
  1.844   2.108   2.282   2.362   2.374   2.473   2.565   2.590
  2.649   2.674   2.778   2.828   2.889   2.921   2.965   2.968
  3.021   3.037   3.058   3.124   3.231   3.238   3.276   3.289
  3.355   3.463   3.505   3.548   3.570   3.713   3.754   3.793
  3.890   3.935   3.961   4.058   4.068   4.161   4.165   4.306
  4.377   4.433   4.444   4.515   4.557   4.853   4.883   4.947
  4.965   5.073   5.280   5.352   5.370   5.600   5.610   5.687
  6.149   6.491   6.701   6.753   6.820   7.067   7.264   7.467
 24.105  24.367  27.093  27.550  27.938  27.980  28.015  28.248
 40.674  40.840  40.877  40.878  40.915  40.947  41.032  41.071
 41.158  41.186  43.491  43.541  43.633  43.718  43.731  45.478
 45.595  46.297  49.823
 --------------------------------------------------------------
 
          Ground-State Mulliken Net Atomic Charges

     Atom                 Charge (a.u.)    Spin (a.u.)
  --------------------------------------------------------
      1 O                     0.212899       0.893624
      2 C                     0.227971      -0.109204
      3 H                     0.228664       0.116623
      4 C                    -0.099070       0.112137
      5 H                     0.135500      -0.005404
      6 H                     0.146996      -0.004055
      7 H                     0.147040      -0.003721
  --------------------------------------------------------
  Sum of atomic charges =     1.000000
  Sum of spin   charges =     1.000000

 -----------------------------------------------------------------
                    Cartesian Multipole Moments
 -----------------------------------------------------------------
    Charge (ESU x 10^10)
                 4.8032
    Dipole Moment (Debye)
         X      -1.4849      Y       0.0003      Z       7.8077
       Tot       7.9476
    Quadrupole Moments (Debye-Ang)
        XX     -10.3117     XY      -0.0001     YY     -15.0207
        XZ      -3.6389     YZ       0.0014     ZZ      -0.5765
    Octapole Moments (Debye-Ang^2)
       XXX      17.9563    XXY       0.0018    XYY       7.1505
       YYY       0.0003    XXZ      -9.5293    XYZ      -0.0055
       YYZ     -16.7114    XZZ      -1.8520    YZZ       0.0048
       ZZZ     -26.1023
    Hexadecapole Moments (Debye-Ang^3)
      XXXX     -68.9208   XXXY      -0.0050   XXYY     -16.6984
      XYYY      -0.0009   YYYY     -17.3883   XXXZ      40.9659
      XXYZ       0.0058   XYYZ      13.0792   YYYZ       0.0014
      XXZZ     -31.7178   XYZZ      -0.0130   YYZZ     -32.8255
      XZZZ      22.4049   YZZZ       0.0161   ZZZZ    -160.0920
 -----------------------------------------------------------------
 Total job time:  89.53s(wall), 89.14s(cpu) 
 Sun Jul  7 08:44:33 2013

        *************************************************************
        *                                                           *
        *  Thank you very much for using Q-Chem.  Have a nice day.  *
        *                                                           *
        *************************************************************


0 sent ACK to 0 
now end server 0 ... 
