Process 0 of 1 is on cl070.stfx.acenet.ca - thread support 1
initial socket setup ...start
initial socket setup ...done 
now start server 0 ... 

cmd = /usr/bin/ssh clhead /usr/local/qchem/bin/get_hostid 1894668514 > /scratch/tmp/6065128.1.short.q/qchem32678/lic.dat
                  Welcome to Q-Chem
     A Quantum Leap Into The Future Of Chemistry

 Y. Shao, L. Fusti-Molnar, Y. Jung, J. Kussmann, C. Ochsenfeld,
 S. T. Brown, A. T. B. Gilbert, L. V. Slipchenko,S. V. Levchenko,
 D. P. O'Neill, R. A. DiStasio Jr., R. C. Lochan, T. Wang,
 G. J. O. Beran, N. A. Besley, J. M. Herbert, C. Y. Lin,
 T. Van Voorhis, S. H. Chien, A. Sodt, R. P. Steele, 
 V. A. Rassolov, P. E. Maslen, P. P. Korambath, R. D. Adamson,
 B. Austin, J. Baker, E. F. C. Byrd, H. Dachsel, R. J. Doerksen,
 A. Dreuw, B. D. Dunietz, A. D. Dutoi, T. R. Furlani,
 S. R. Gwaltney, A. Heyden, S. Hirata, C.-P. Hsu, G. Kedziora,
 R. Z. Khaliullin, P. Klunzinger, A. M. Lee, M. S. Lee, W. Liang,
 I. Lotan, N. Nair, B. Peters, E. I. Proynov, P. A. Pieniazek, 
 Y. M. Rhee, J. Ritchie, E. Rosta, C. D. Sherrill, 
 A. C. Simmonett, J. E. Subotnik, H. L. Woodcock III,
 W. Zhang, A. T. Bell, A. K. Chakraborty, D. M. Chipman,
 F. J. Keil, A. Warshel, W. J. Hehre, H. F. Schaefer III,
 J. Kong, A. I. Krylov, P. M. W. Gill, M. Head-Gordon,
 Q-Chem, Version 3.1, Q-Chem, Inc., Pittsburgh, PA (2007).

 Additional authors for Version 3.1: 
 Z. Gan, Y. Zhao, N. E. Schultz, D. Truhlar, E. Epifanovsky and M. Oana.

 Additional authors for Version 3.2: 
 R. Baer, B. R. Brooks, D. Casanova, J.-D. Chai, C.-L. Cheng, 
 C. Cramer, D. Crittenden, A. Ghysels, G. Hawkins, E. G. Hohenstein, 
 C. Kelley, W. Kurlancheek, D. Liotard, E. Livshits, P. Manohar, 
 A. Marenich, D. Neuhauser, R. Olson, M. A. Rohrdanz, K. S. Thanthiriwatte, 
 A. J. W. Thom, V. Vanovschi, C. F. Williams, Q. Wu and Z.-Q. You. 


 Intel X86 Linux Version

 Q-chem begins on Mon Jul  8 16:55:49 2013  

 Parallel job on  1  processors
Processing $rem in /usr/local/qchem/config/preferences.

theFileMan(): MAXOPENFILES=974 MAX_SUB_FILE_NUM=16
Maximum size of a physical file is 2.0 GB, maximum size of a tmp-file is 32.0 GB


--------------------------------------------------------------
User input:
--------------------------------------------------------------

$molecule
-1,2
N          0.00000        0.00000        0.02589
N          0.00000        0.00000        1.13189
O          0.00000        0.00000        2.30331
$end

$comment
negative
$end

$xc_functional
C PBE   1.00
X wPBE  1.00
$end

$rem
SYMMETRY_DECOMPOSITION	0
exchange 		general
LRC_DFT                 true
BASIS                   g3large
omega			510
mem_static              760
max_scf_cycles          200
scf_final_print         1
sym_ignore              true
$end

--------------------------------------------------------------
 Writing REM_CC_EA            3
 ----------------------------------------------------
       Standard Nuclear Orientation (Angstroms)
    I     Atom         X            Y            Z
 ----------------------------------------------------
    1      N       0.000000     0.000000     0.025890
    2      N       0.000000     0.000000     1.131890
    3      O       0.000000     0.000000     2.303310
 ----------------------------------------------------
 Nuclear Repulsion Energy =    61.7540562782 hartrees
 There are       12 alpha and       11 beta electrons
 Requested basis set is G3large
 There are 30 shells and 126 basis functions

Total QAlloc Memory Limit   2000 MB
Mega-Array Size       743 MB
MEM_STATIC part       760 MB

                       Distance Matrix (Angstroms)
             N (  1)   N (  2)
   N (  2)  1.106000
   O (  3)  2.277420  1.171420
 
 A cutoff of  1.0D-08 yielded    434 shell pairs
 There are   7827 function pairs ( 10283 Cartesian)
Evaluating contribution to one-electron hamiltonian from nuclear
 Smallest overlap matrix eigenvalue = 4.25E-05

 Q-Chem warning in module mkSTV.C, line 194:

 Overlap eigenvalue is smaller than square root of threshold

 Multipole matrices computed through 2nd order

  Scale SEOQF with 1.000000e-01/1.000000e-01/1.000000e-01

 Standard Electronic Orientation quadrupole field applied
 Nucleus-field energy     =    -0.0000000055 hartrees
 Guess from superposition of atomic densities
 Warning:  Energy on first SCF cycle will be non-variational
 Long-range K will be added via erf
 Coulomb attenuation parameter = 0.51 bohr**(-1)
 An unrestricted Kohn-Sham SCF calculation will be
 performed using Pulay DIIS extrapolation
 Exchange:  wPBE + LR-HF      Correlation:  PBE
 Using SG-1 standard quadrature grid
 SCF converges when DIIS error is below 1.0E-05
 Requested basis set is G3large
 There are 30 shells and 126 basis functions
 A cutoff of  1.0D-08 yielded    434 shell pairs
 There are   7827 function pairs ( 10283 Cartesian)
 Warning!  Inaccurate integrated density:
   Number of electrons =    23
   Numerical integral  =    22.000008617596
   Relative error      =    -4.3477886191 %
 ---------------------------------------
  Cycle       Energy         DIIS Error
 ---------------------------------------
    1    -185.3190873902      4.87E-02
    2    -184.4222471196      6.99E-03
    3    -184.4606330049      6.26E-03
    4    -184.5103378268      7.46E-04
    5    -184.5115331401      4.05E-04
    6    -184.5120645044      1.91E-04
    7    -184.5123176931      9.60E-05
    8    -184.5124486887      4.77E-05
    9    -184.5125700747      2.65E-05
   10    -184.5125937932      6.67E-06 Convergence criterion met
 ---------------------------------------
 One-Electron    Energy =  -379.7083824422
 Total Coulomb   Energy =   155.9923298378
 Alpha Exchange  Energy =    -2.9499113849
 Beta  Exchange  Energy =    -2.7228781241
 DFT   Exchange  Energy =   -16.1053791429
 DFT Correlation Energy =    -0.7724288095
 Nuclear Repu.   Energy =    61.7540562727
 Nuclear Attr.   Energy =  -564.4107536669
 Kinetic         Energy =   184.7023712247
 <S^2> = 0.7538
 SCF time:  CPU 30.33 s  wall 30.92 s
 Final Alpha MO Eigenvalues
            1           2           3           4           5           6
    1 -18.8070085 -14.1244462 -14.0250810  -1.1400340  -0.9629656  -0.4807199
            7           8           9          10          11          12
    1  -0.4585526  -0.4411234  -0.3418844  -0.2230232  -0.1904084   0.0673192
           13          14          15          16          17
    1   0.2548856   0.3066543   0.3282506   0.3614524   0.3773271
 Final Beta MO Eigenvalues
            1           2           3           4           5           6
    1 -18.8048347 -14.1120280 -14.0208732  -1.1257568  -0.9550370  -0.4654925
            7           8           9          10          11          12
    1  -0.4324469  -0.4065107  -0.3225774  -0.1883169  -0.1715493   0.2575608
           13          14          15          16
    1   0.3102977   0.3337688   0.3426100   0.3791292
 Analysis of SCF Wavefunction
 
 --------------------------------------------------------------
                    Orbital Energies (a.u.)
 --------------------------------------------------------------
 
 Alpha MOs
 -- Occupied --
-18.807 -14.124 -14.025  -1.140  -0.963  -0.481  -0.459  -0.441
 -0.342  -0.223  -0.190   0.067
 -- Virtual --
  0.255   0.307   0.328   0.361   0.377   0.394   0.409   0.427
  0.483   0.507   0.517   0.521   0.589   0.699   0.937   1.066
  1.069   1.154   1.160   1.179   1.179   1.215   1.258   1.382
  1.431   1.433   1.499   1.513   1.521   1.547   1.548   1.573
  2.008   2.008   2.030   2.114   2.114   2.368   2.759   2.759
  2.941   3.142   3.670   3.670   3.676   3.676   3.792   3.966
  3.972   4.041   4.043   4.164   4.164   4.344   4.347   4.636
  4.750   4.751   4.803   4.803   5.008   5.022   5.038   5.040
  5.190   5.191   5.227   5.228   5.426   5.426   5.506   5.508
  5.818   6.050   6.051   6.183   6.423   6.424   7.133   7.133
  7.437   7.589   7.590   7.940   7.942   8.165   9.184  35.793
 36.534  37.633  37.635  38.013  38.015  38.720  39.784  40.654
 40.764  40.765  40.859  40.861  40.874  40.986  41.184  41.185
 42.024  43.964  44.026  44.167  44.167  44.444  46.055  46.055
 46.957  50.771
 
 Beta MOs
 -- Occupied --
-18.805 -14.112 -14.021  -1.126  -0.955  -0.465  -0.432  -0.407
 -0.323  -0.188  -0.172
 -- Virtual --
  0.258   0.310   0.334   0.343   0.379   0.386   0.411   0.433
  0.452   0.487   0.520   0.527   0.530   0.595   0.716   0.942
  1.070   1.088   1.165   1.183   1.191   1.191   1.220   1.265
  1.388   1.435   1.445   1.505   1.523   1.541   1.565   1.565
  1.584   2.021   2.021   2.036   2.116   2.133   2.376   2.762
  2.777   2.949   3.153   3.680   3.681   3.698   3.698   3.801
  3.986   4.018   4.045   4.068   4.188   4.188   4.347   4.366
  4.649   4.766   4.766   4.808   4.828   5.018   5.029   5.079
  5.081   5.222   5.222   5.229   5.246   5.433   5.433   5.508
  5.523   5.823   6.060   6.060   6.187   6.430   6.453   7.144
  7.144   7.444   7.590   7.601   7.943   7.961   8.172   9.188
 35.803  36.544  37.640  37.655  38.020  38.036  38.723  39.792
 40.680  40.777  40.789  40.863  40.880  40.886  40.993  41.185
 41.199  42.028  43.971  44.033  44.166  44.172  44.445  46.056
 46.062  46.957  50.773
 --------------------------------------------------------------
 
          Ground-State Mulliken Net Atomic Charges

     Atom                 Charge (a.u.)    Spin (a.u.)
  --------------------------------------------------------
      1 N                    -1.002781       0.742425
      2 N                     0.623368       0.111090
      3 O                    -0.620586       0.146485
  --------------------------------------------------------
  Sum of atomic charges =    -1.000000
  Sum of spin   charges =     1.000000

 -----------------------------------------------------------------
                    Cartesian Multipole Moments
 -----------------------------------------------------------------
    Charge (ESU x 10^10)
                -4.8032
    Dipole Moment (Debye)
         X       0.0137      Y       0.0186      Z      -3.7401
       Tot       3.7401
    Quadrupole Moments (Debye-Ang)
        XX     -19.2475     XY      -1.4237     YY     -20.1677
        XZ       0.0069     YZ       0.0098     ZZ     -33.3312
    Octapole Moments (Debye-Ang^2)
       XXX       0.0637    XXY       0.0291    XYY       0.0212
       YYY       0.0874    XXZ     -18.9631    XYZ       0.0140
       YYZ     -18.9543    XZZ       0.0435    YZZ       0.0607
       ZZZ     -96.1638
    Hexadecapole Moments (Debye-Ang^3)
      XXXX     -24.4002   XXXY      -3.3677   XXYY      -8.8589
      XYYY      -3.3677   YYYY     -28.7536   XXXZ       0.0365
      XXYZ       0.0170   XYYZ       0.0122   YYYZ       0.0511
      XXZZ     -48.9495   XYZZ      -2.5325   YYZZ     -50.5865
      XZZZ       0.0977   YZZZ       0.1376   ZZZZ    -352.4710
 -----------------------------------------------------------------
 Total job time:  31.11s(wall), 30.46s(cpu) 
 Mon Jul  8 16:56:20 2013

        *************************************************************
        *                                                           *
        *  Thank you very much for using Q-Chem.  Have a nice day.  *
        *                                                           *
        *************************************************************


0 sent ACK to 0 
now end server 0 ... 
 
**********************************************************************
Job 2 of 3 
**********************************************************************
 
Process 0 of 1 is on cl070.stfx.acenet.ca - thread support 1
initial socket setup ...start
initial socket setup ...done 
now start server 0 ... 

cmd = /usr/bin/ssh clhead /usr/local/qchem/bin/get_hostid 141105353 > /scratch/tmp/6065128.1.short.q/qchem32678/lic.dat
                  Welcome to Q-Chem
     A Quantum Leap Into The Future Of Chemistry

 Y. Shao, L. Fusti-Molnar, Y. Jung, J. Kussmann, C. Ochsenfeld,
 S. T. Brown, A. T. B. Gilbert, L. V. Slipchenko,S. V. Levchenko,
 D. P. O'Neill, R. A. DiStasio Jr., R. C. Lochan, T. Wang,
 G. J. O. Beran, N. A. Besley, J. M. Herbert, C. Y. Lin,
 T. Van Voorhis, S. H. Chien, A. Sodt, R. P. Steele, 
 V. A. Rassolov, P. E. Maslen, P. P. Korambath, R. D. Adamson,
 B. Austin, J. Baker, E. F. C. Byrd, H. Dachsel, R. J. Doerksen,
 A. Dreuw, B. D. Dunietz, A. D. Dutoi, T. R. Furlani,
 S. R. Gwaltney, A. Heyden, S. Hirata, C.-P. Hsu, G. Kedziora,
 R. Z. Khaliullin, P. Klunzinger, A. M. Lee, M. S. Lee, W. Liang,
 I. Lotan, N. Nair, B. Peters, E. I. Proynov, P. A. Pieniazek, 
 Y. M. Rhee, J. Ritchie, E. Rosta, C. D. Sherrill, 
 A. C. Simmonett, J. E. Subotnik, H. L. Woodcock III,
 W. Zhang, A. T. Bell, A. K. Chakraborty, D. M. Chipman,
 F. J. Keil, A. Warshel, W. J. Hehre, H. F. Schaefer III,
 J. Kong, A. I. Krylov, P. M. W. Gill, M. Head-Gordon,
 Q-Chem, Version 3.1, Q-Chem, Inc., Pittsburgh, PA (2007).

 Additional authors for Version 3.1: 
 Z. Gan, Y. Zhao, N. E. Schultz, D. Truhlar, E. Epifanovsky and M. Oana.

 Additional authors for Version 3.2: 
 R. Baer, B. R. Brooks, D. Casanova, J.-D. Chai, C.-L. Cheng, 
 C. Cramer, D. Crittenden, A. Ghysels, G. Hawkins, E. G. Hohenstein, 
 C. Kelley, W. Kurlancheek, D. Liotard, E. Livshits, P. Manohar, 
 A. Marenich, D. Neuhauser, R. Olson, M. A. Rohrdanz, K. S. Thanthiriwatte, 
 A. J. W. Thom, V. Vanovschi, C. F. Williams, Q. Wu and Z.-Q. You. 


 Intel X86 Linux Version

 Q-chem begins on Mon Jul  8 16:56:23 2013  

 Parallel job on  1  processors
Processing $rem in /usr/local/qchem/config/preferences.

theFileMan(): MAXOPENFILES=974 MAX_SUB_FILE_NUM=16
Maximum size of a physical file is 2.0 GB, maximum size of a tmp-file is 32.0 GB


--------------------------------------------------------------
User input:
--------------------------------------------------------------

$molecule
0,1
N          0.00000        0.00000        0.02589
N          0.00000        0.00000        1.13189
O          0.00000        0.00000        2.30331
$end

$comment
neutral
$end

$xc_functional
C PBE   1.00
X wPBE  1.00
$end


$rem
SYMMETRY_DECOMPOSITION	0
LRC_DFT                 true
exchange 		general
BASIS                   g3large
omega			510
mem_static              760
max_scf_cycles          200
scf_final_print         1
sym_ignore              true
$end

--------------------------------------------------------------
 Writing REM_CC_EA            3
 ----------------------------------------------------
       Standard Nuclear Orientation (Angstroms)
    I     Atom         X            Y            Z
 ----------------------------------------------------
    1      N       0.000000     0.000000     0.025890
    2      N       0.000000     0.000000     1.131890
    3      O       0.000000     0.000000     2.303310
 ----------------------------------------------------
 Nuclear Repulsion Energy =    61.7540562782 hartrees
 There are       11 alpha and       11 beta electrons
 Requested basis set is G3large
 There are 30 shells and 126 basis functions

Total QAlloc Memory Limit   2000 MB
Mega-Array Size       743 MB
MEM_STATIC part       760 MB

                       Distance Matrix (Angstroms)
             N (  1)   N (  2)
   N (  2)  1.106000
   O (  3)  2.277420  1.171420
 
 A cutoff of  1.0D-08 yielded    434 shell pairs
 There are   7827 function pairs ( 10283 Cartesian)
Evaluating contribution to one-electron hamiltonian from nuclear
 Smallest overlap matrix eigenvalue = 4.25E-05

 Q-Chem warning in module mkSTV.C, line 194:

 Overlap eigenvalue is smaller than square root of threshold

 Multipole matrices computed through 2nd order

  Scale SEOQF with 1.000000e-01/1.000000e-01/1.000000e-01

 Standard Electronic Orientation quadrupole field applied
 Nucleus-field energy     =    -0.0000000055 hartrees
 Guess from superposition of atomic densities
 Warning:  Energy on first SCF cycle will be non-variational
 Long-range K will be added via erf
 Coulomb attenuation parameter = 0.51 bohr**(-1)
 A restricted Kohn-Sham SCF calculation will be
 performed using Pulay DIIS extrapolation
 Exchange:  wPBE + LR-HF      Correlation:  PBE
 Using SG-1 standard quadrature grid
 SCF converges when DIIS error is below 1.0E-05
 Requested basis set is G3large
 There are 30 shells and 126 basis functions
 A cutoff of  1.0D-08 yielded    434 shell pairs
 There are   7827 function pairs ( 10283 Cartesian)
 ---------------------------------------
  Cycle       Energy         DIIS Error
 ---------------------------------------
    1    -185.3190873902      4.87E-02
    2    -184.4959017476      8.14E-03
    3    -184.4918600641      9.06E-03
    4    -184.5903844582      5.96E-04
    5    -184.5907401288      4.61E-04
    6    -184.5910095490      1.80E-04
    7    -184.5910692811      2.99E-05
    8    -184.5910744479      9.51E-06 Convergence criterion met
 ---------------------------------------
 One-Electron    Energy =  -372.8849449832
 Total Coulomb   Energy =   148.7379077687
 Alpha Exchange  Energy =    -2.7395890641
 Beta  Exchange  Energy =    -2.7395890641
 DFT   Exchange  Energy =   -15.9737992993
 DFT Correlation Energy =    -0.7451160785
 Nuclear Repu.   Energy =    61.7540562727
 Nuclear Attr.   Energy =  -557.0300295773
 Kinetic         Energy =   184.1450845941
 SCF time:  CPU 20.16 s  wall 20.62 s
 Final Alpha MO Eigenvalues
            1           2           3           4           5           6
    1 -19.1122432 -14.5058519 -14.3600135  -1.4530415  -1.2868281  -0.7632655
            7           8           9          10          11          12
    1  -0.7502124  -0.7502090  -0.6427215  -0.4833842  -0.4833597   0.0791192
           13          14          15          16
    1   0.0885039   0.0885063   0.1391989   0.1647070
 Analysis of SCF Wavefunction
 
 --------------------------------------------------------------
                    Orbital Energies (a.u.)
 --------------------------------------------------------------
 
 Alpha MOs
 -- Occupied --
-19.112 -14.506 -14.360  -1.453  -1.287  -0.763  -0.750  -0.750
 -0.643  -0.483  -0.483
 -- Virtual --
  0.079   0.089   0.089   0.139   0.165   0.165   0.215   0.221
  0.221   0.290   0.310   0.332   0.332   0.392   0.455   0.694
  0.804   0.804   0.886   0.886   0.904   0.904   0.934   0.991
  1.144   1.185   1.185   1.218   1.232   1.232   1.266   1.266
  1.316   1.736   1.736   1.772   1.832   1.832   2.080   2.480
  2.480   2.673   2.846   3.357   3.357   3.365   3.365   3.480
  3.651   3.651   3.730   3.731   3.856   3.856   4.034   4.034
  4.320   4.443   4.443   4.495   4.495   4.701   4.716   4.719
  4.719   4.875   4.875   4.923   4.923   5.141   5.141   5.212
  5.212   5.515   5.753   5.753   5.872   6.103   6.103   6.843
  6.843   7.131   7.300   7.300   7.630   7.630   7.855   8.867
 35.439  36.179  37.278  37.278  37.661  37.661  38.383  39.420
 40.281  40.390  40.430  40.495  40.495  40.539  40.624  40.838
 40.838  41.671  43.662  43.724  43.862  43.862  44.137  45.751
 45.751  46.651  50.466
 --------------------------------------------------------------
 
          Ground-State Mulliken Net Atomic Charges

     Atom                 Charge (a.u.)
  ----------------------------------------
      1 N                    -0.136395
      2 N                     0.404535
      3 O                    -0.268140
  ----------------------------------------
  Sum of atomic charges =     0.000000

 -----------------------------------------------------------------
                    Cartesian Multipole Moments
 -----------------------------------------------------------------
    Charge (ESU x 10^10)
                 0.0000
    Dipole Moment (Debye)
         X       0.0000      Y       0.0000      Z      -0.2804
       Tot       0.2804
    Quadrupole Moments (Debye-Ang)
        XX     -15.1706     XY       0.0002     YY     -15.1705
        XZ       0.0004     YZ       0.0002     ZZ     -19.9582
    Octapole Moments (Debye-Ang^2)
       XXX       0.0000    XXY       0.0000    XYY       0.0000
       YYY       0.0000    XXZ     -17.4258    XYZ      -0.0011
       YYZ     -17.4262    XZZ       0.0009    YZZ       0.0004
       ZZZ     -66.4237
    Hexadecapole Moments (Debye-Ang^3)
      XXXX     -12.0819   XXXY       0.0003   XXYY      -4.0273
      XYYY       0.0003   YYYY     -12.0818   XXXZ       0.0007
      XXYZ       0.0001   XYYZ       0.0002   YYYZ       0.0003
      XXZZ     -38.9977   XYZZ      -0.0022   YYZZ     -38.9984
      XZZZ       0.0026   YZZZ       0.0011   ZZZZ    -252.6453
 -----------------------------------------------------------------
 Total job time:  20.75s(wall), 20.28s(cpu) 
 Mon Jul  8 16:56:44 2013

        *************************************************************
        *                                                           *
        *  Thank you very much for using Q-Chem.  Have a nice day.  *
        *                                                           *
        *************************************************************


0 sent ACK to 0 
now end server 0 ... 
 
**********************************************************************
Job 3 of 3 
**********************************************************************
 
Process 0 of 1 is on cl070.stfx.acenet.ca - thread support 1
initial socket setup ...start
initial socket setup ...done 
now start server 0 ... 

cmd = /usr/bin/ssh clhead /usr/local/qchem/bin/get_hostid 655811229 > /scratch/tmp/6065128.1.short.q/qchem32678/lic.dat
                  Welcome to Q-Chem
     A Quantum Leap Into The Future Of Chemistry

 Y. Shao, L. Fusti-Molnar, Y. Jung, J. Kussmann, C. Ochsenfeld,
 S. T. Brown, A. T. B. Gilbert, L. V. Slipchenko,S. V. Levchenko,
 D. P. O'Neill, R. A. DiStasio Jr., R. C. Lochan, T. Wang,
 G. J. O. Beran, N. A. Besley, J. M. Herbert, C. Y. Lin,
 T. Van Voorhis, S. H. Chien, A. Sodt, R. P. Steele, 
 V. A. Rassolov, P. E. Maslen, P. P. Korambath, R. D. Adamson,
 B. Austin, J. Baker, E. F. C. Byrd, H. Dachsel, R. J. Doerksen,
 A. Dreuw, B. D. Dunietz, A. D. Dutoi, T. R. Furlani,
 S. R. Gwaltney, A. Heyden, S. Hirata, C.-P. Hsu, G. Kedziora,
 R. Z. Khaliullin, P. Klunzinger, A. M. Lee, M. S. Lee, W. Liang,
 I. Lotan, N. Nair, B. Peters, E. I. Proynov, P. A. Pieniazek, 
 Y. M. Rhee, J. Ritchie, E. Rosta, C. D. Sherrill, 
 A. C. Simmonett, J. E. Subotnik, H. L. Woodcock III,
 W. Zhang, A. T. Bell, A. K. Chakraborty, D. M. Chipman,
 F. J. Keil, A. Warshel, W. J. Hehre, H. F. Schaefer III,
 J. Kong, A. I. Krylov, P. M. W. Gill, M. Head-Gordon,
 Q-Chem, Version 3.1, Q-Chem, Inc., Pittsburgh, PA (2007).

 Additional authors for Version 3.1: 
 Z. Gan, Y. Zhao, N. E. Schultz, D. Truhlar, E. Epifanovsky and M. Oana.

 Additional authors for Version 3.2: 
 R. Baer, B. R. Brooks, D. Casanova, J.-D. Chai, C.-L. Cheng, 
 C. Cramer, D. Crittenden, A. Ghysels, G. Hawkins, E. G. Hohenstein, 
 C. Kelley, W. Kurlancheek, D. Liotard, E. Livshits, P. Manohar, 
 A. Marenich, D. Neuhauser, R. Olson, M. A. Rohrdanz, K. S. Thanthiriwatte, 
 A. J. W. Thom, V. Vanovschi, C. F. Williams, Q. Wu and Z.-Q. You. 


 Intel X86 Linux Version

 Q-chem begins on Mon Jul  8 16:56:47 2013  

 Parallel job on  1  processors
Processing $rem in /usr/local/qchem/config/preferences.

theFileMan(): MAXOPENFILES=974 MAX_SUB_FILE_NUM=16
Maximum size of a physical file is 2.0 GB, maximum size of a tmp-file is 32.0 GB


--------------------------------------------------------------
User input:
--------------------------------------------------------------

$molecule
1,2
N          0.00000        0.00000        0.02589
N          0.00000        0.00000        1.13189
O          0.00000        0.00000        2.30331
$end

$comment
positive
$end

$xc_functional
C PBE   1.00
X wPBE  1.00
$end

$rem
SYMMETRY_DECOMPOSITION	0
LRC_DFT                 true
exchange 		general
BASIS                   g3large
omega			510
mem_static              760
max_scf_cycles          200
scf_final_print         1
sym_ignore              true
$end

--------------------------------------------------------------
 Writing REM_CC_EA            3
 ----------------------------------------------------
       Standard Nuclear Orientation (Angstroms)
    I     Atom         X            Y            Z
 ----------------------------------------------------
    1      N       0.000000     0.000000     0.025890
    2      N       0.000000     0.000000     1.131890
    3      O       0.000000     0.000000     2.303310
 ----------------------------------------------------
 Nuclear Repulsion Energy =    61.7540562782 hartrees
 There are       11 alpha and       10 beta electrons
 Requested basis set is G3large
 There are 30 shells and 126 basis functions

Total QAlloc Memory Limit   2000 MB
Mega-Array Size       743 MB
MEM_STATIC part       760 MB

                       Distance Matrix (Angstroms)
             N (  1)   N (  2)
   N (  2)  1.106000
   O (  3)  2.277420  1.171420
 
 A cutoff of  1.0D-08 yielded    434 shell pairs
 There are   7827 function pairs ( 10283 Cartesian)
Evaluating contribution to one-electron hamiltonian from nuclear
 Smallest overlap matrix eigenvalue = 4.25E-05

 Q-Chem warning in module mkSTV.C, line 194:

 Overlap eigenvalue is smaller than square root of threshold

 Multipole matrices computed through 2nd order

  Scale SEOQF with 1.000000e-01/1.000000e-01/1.000000e-01

 Standard Electronic Orientation quadrupole field applied
 Nucleus-field energy     =    -0.0000000055 hartrees
 Guess from superposition of atomic densities
 Warning:  Energy on first SCF cycle will be non-variational
 Long-range K will be added via erf
 Coulomb attenuation parameter = 0.51 bohr**(-1)
 An unrestricted Kohn-Sham SCF calculation will be
 performed using Pulay DIIS extrapolation
 Exchange:  wPBE + LR-HF      Correlation:  PBE
 Using SG-1 standard quadrature grid
 SCF converges when DIIS error is below 1.0E-05
 Requested basis set is G3large
 There are 30 shells and 126 basis functions
 A cutoff of  1.0D-08 yielded    434 shell pairs
 There are   7827 function pairs ( 10283 Cartesian)
 Warning!  Inaccurate integrated density:
   Number of electrons =    21
   Numerical integral  =    22.000008617596
   Relative error      =     4.7619457981 %
 ---------------------------------------
  Cycle       Energy         DIIS Error
 ---------------------------------------
    1    -185.3190873902      4.87E-02
    2    -183.9619229971      8.72E-03
    3    -184.0252205805      8.16E-03
    4    -184.1072579159      1.48E-03
    5    -184.1112101911      4.96E-04
    6    -184.1121852460      3.33E-04
    7    -184.1126165964      7.67E-05
    8    -184.1128557690      3.86E-05
    9    -184.1129115758      1.27E-05
   10    -184.1129137425      3.04E-06 Convergence criterion met
 ---------------------------------------
 One-Electron    Energy =  -364.6280584886
 Total Coulomb   Energy =   140.5816238786
 Alpha Exchange  Energy =    -2.7688483673
 Beta  Exchange  Energy =    -2.5100971242
 DFT   Exchange  Energy =   -15.8400868148
 DFT Correlation Energy =    -0.7015030988
 Nuclear Repu.   Energy =    61.7540562727
 Nuclear Attr.   Energy =  -548.4538072073
 Kinetic         Energy =   183.8257487187
 <S^2> = 0.7887
 SCF time:  CPU 30.38 s  wall 31.03 s
 Final Alpha MO Eigenvalues
            1           2           3           4           5           6
    1 -19.5631488 -14.8490215 -14.7646174  -1.8420612  -1.6741792  -1.1504929
            7           8           9          10          11          12
    1  -1.1322719  -1.1053485  -0.9892158  -0.9132517  -0.8638860  -0.2592923
           13          14          15          16
    1  -0.2409273  -0.1510202  -0.0527533  -0.0466877
 Final Beta MO Eigenvalues
            1           2           3           4           5           6
    1 -19.5441470 -14.8538226 -14.7552696  -1.8193033  -1.6412532  -1.1216813
            7           8           9          10          11          12
    1  -1.1022869  -1.0609332  -0.9714591  -0.8441306  -0.4721059  -0.2379927
           13          14          15
    1  -0.1890785  -0.1467487  -0.0457500
 Analysis of SCF Wavefunction
 
 --------------------------------------------------------------
                    Orbital Energies (a.u.)
 --------------------------------------------------------------
 
 Alpha MOs
 -- Occupied --
-19.563 -14.849 -14.765  -1.842  -1.674  -1.150  -1.132  -1.105
 -0.989  -0.913  -0.864
 -- Virtual --
 -0.259  -0.241  -0.151  -0.053  -0.047  -0.036  -0.012   0.014
  0.028   0.033   0.103   0.130   0.135   0.189   0.214   0.437
  0.516   0.525   0.562   0.562   0.619   0.631   0.632   0.691
  0.846   0.854   0.870   0.892   0.905   0.913   0.935   0.935
  1.031   1.375   1.376   1.450   1.491   1.512   1.780   2.126
  2.149   2.342   2.489   3.000   3.001   3.021   3.021   3.135
  3.322   3.323   3.355   3.380   3.507   3.507   3.655   3.676
  3.960   4.083   4.084   4.125   4.143   4.348   4.357   4.367
  4.371   4.501   4.502   4.516   4.552   4.720   4.721   4.806
  4.843   5.122   5.360   5.362   5.504   5.719   5.739   6.391
  6.392   6.749   6.867   6.911   7.229   7.256   7.479   8.480
 35.067  35.807  36.902  36.908  37.283  37.289  37.990  39.058
 39.938  40.021  40.047  40.130  40.132  40.135  40.260  40.447
 40.456  41.295  43.194  43.256  43.394  43.428  43.691  45.278
 45.311  46.210  50.022
 
 Beta MOs
 -- Occupied --
-19.544 -14.854 -14.755  -1.819  -1.641  -1.122  -1.102  -1.061
 -0.971  -0.844
 -- Virtual --
 -0.472  -0.238  -0.189  -0.147  -0.046  -0.045  -0.034  -0.006
  0.015   0.033   0.033   0.104   0.136   0.136   0.191   0.216
  0.445   0.523   0.526   0.570   0.570   0.634   0.635   0.638
  0.700   0.860   0.876   0.884   0.913   0.918   0.924   0.957
  0.958   1.042   1.409   1.412   1.468   1.515   1.517   1.785
  2.152   2.153   2.351   2.504   3.012   3.013   3.027   3.027
  3.140   3.307   3.316   3.389   3.395   3.521   3.521   3.680
  3.680   3.967   4.095   4.096   4.143   4.145   4.358   4.369
  4.370   4.375   4.527   4.530   4.564   4.575   4.778   4.779
  4.853   4.863   5.150   5.390   5.393   5.513   5.742   5.742
  6.470   6.481   6.768   6.922   6.934   7.263   7.266   7.489
  8.491  35.070  35.810  36.910  36.910  37.290  37.291  37.995
 39.058  39.930  40.039  40.041  40.133  40.134  40.150  40.259
 40.457  40.458  41.297  43.243  43.306  43.433  43.442  43.712
 45.324  45.334  46.223  50.039
 --------------------------------------------------------------
 
          Ground-State Mulliken Net Atomic Charges

     Atom                 Charge (a.u.)    Spin (a.u.)
  --------------------------------------------------------
      1 N                     0.345634       0.440859
      2 N                     0.403534      -0.183838
      3 O                     0.250832       0.742979
  --------------------------------------------------------
  Sum of atomic charges =     1.000000
  Sum of spin   charges =     1.000000

 -----------------------------------------------------------------
                    Cartesian Multipole Moments
 -----------------------------------------------------------------
    Charge (ESU x 10^10)
                 4.8032
    Dipole Moment (Debye)
         X       0.0007      Y      -0.0005      Z       5.6284
       Tot       5.6284
    Quadrupole Moments (Debye-Ang)
        XX     -12.6223     XY      -0.4792     YY     -12.8832
        XZ      -0.0003     YZ       0.0002     ZZ      -4.1705
    Octapole Moments (Debye-Ang^2)
       XXX       0.0005    XXY      -0.0001    XYY       0.0002
       YYY      -0.0004    XXZ     -14.4223    XYZ      -0.6721
       YYZ     -14.7884    XZZ       0.0002    YZZ      -0.0002
       ZZZ     -27.7253
    Hexadecapole Moments (Debye-Ang^3)
      XXXX      -8.4678   XXXY      -0.2631   XXYY      -2.8705
      XYYY      -0.2632   YYYY      -8.7544   XXXZ      -0.0002
      XXYZ       0.0000   XYYZ      -0.0001   YYYZ       0.0000
      XXZZ     -30.8579   XYZZ      -1.6415   YYZZ     -31.7521
      XZZZ       0.0001   YZZZ      -0.0003   ZZZZ    -146.0273
 -----------------------------------------------------------------
 Total job time:  31.16s(wall), 30.50s(cpu) 
 Mon Jul  8 16:57:18 2013

        *************************************************************
        *                                                           *
        *  Thank you very much for using Q-Chem.  Have a nice day.  *
        *                                                           *
        *************************************************************


0 sent ACK to 0 
now end server 0 ... 
