Process 0 of 1 is on cl087.stfx.acenet.ca - thread support 1
initial socket setup ...start
initial socket setup ...done 
now start server 0 ... 

cmd = /usr/bin/ssh clhead /usr/local/qchem/bin/get_hostid 1406375990 > /scratch/tmp/6028452.1.short.q/qchem25078/lic.dat
                  Welcome to Q-Chem
     A Quantum Leap Into The Future Of Chemistry

 Y. Shao, L. Fusti-Molnar, Y. Jung, J. Kussmann, C. Ochsenfeld,
 S. T. Brown, A. T. B. Gilbert, L. V. Slipchenko,S. V. Levchenko,
 D. P. O'Neill, R. A. DiStasio Jr., R. C. Lochan, T. Wang,
 G. J. O. Beran, N. A. Besley, J. M. Herbert, C. Y. Lin,
 T. Van Voorhis, S. H. Chien, A. Sodt, R. P. Steele, 
 V. A. Rassolov, P. E. Maslen, P. P. Korambath, R. D. Adamson,
 B. Austin, J. Baker, E. F. C. Byrd, H. Dachsel, R. J. Doerksen,
 A. Dreuw, B. D. Dunietz, A. D. Dutoi, T. R. Furlani,
 S. R. Gwaltney, A. Heyden, S. Hirata, C.-P. Hsu, G. Kedziora,
 R. Z. Khaliullin, P. Klunzinger, A. M. Lee, M. S. Lee, W. Liang,
 I. Lotan, N. Nair, B. Peters, E. I. Proynov, P. A. Pieniazek, 
 Y. M. Rhee, J. Ritchie, E. Rosta, C. D. Sherrill, 
 A. C. Simmonett, J. E. Subotnik, H. L. Woodcock III,
 W. Zhang, A. T. Bell, A. K. Chakraborty, D. M. Chipman,
 F. J. Keil, A. Warshel, W. J. Hehre, H. F. Schaefer III,
 J. Kong, A. I. Krylov, P. M. W. Gill, M. Head-Gordon,
 Q-Chem, Version 3.1, Q-Chem, Inc., Pittsburgh, PA (2007).

 Additional authors for Version 3.1: 
 Z. Gan, Y. Zhao, N. E. Schultz, D. Truhlar, E. Epifanovsky and M. Oana.

 Additional authors for Version 3.2: 
 R. Baer, B. R. Brooks, D. Casanova, J.-D. Chai, C.-L. Cheng, 
 C. Cramer, D. Crittenden, A. Ghysels, G. Hawkins, E. G. Hohenstein, 
 C. Kelley, W. Kurlancheek, D. Liotard, E. Livshits, P. Manohar, 
 A. Marenich, D. Neuhauser, R. Olson, M. A. Rohrdanz, K. S. Thanthiriwatte, 
 A. J. W. Thom, V. Vanovschi, C. F. Williams, Q. Wu and Z.-Q. You. 


 Intel X86 Linux Version

 Q-chem begins on Tue Jun  4 15:32:20 2013  

 Parallel job on  1  processors
Processing $rem in /usr/local/qchem/config/preferences.

theFileMan(): MAXOPENFILES=974 MAX_SUB_FILE_NUM=16
Maximum size of a physical file is 2.0 GB, maximum size of a tmp-file is 32.0 GB


--------------------------------------------------------------
User input:
--------------------------------------------------------------

$molecule
-1,2
Li         0.00000        0.00000       -0.02802
H          0.00000        0.00000        1.64909
$end

$comment
negative
$end

$xc_functional
C PBE   1.00
X wPBE  1.00
$end

$rem
SYMMETRY_DECOMPOSITION	0
exchange 		general
LRC_DFT                 true
BASIS                   g3large
omega			2000
mem_static              760
max_scf_cycles          200
scf_final_print         1
sym_ignore              true
$end

--------------------------------------------------------------
 Writing REM_CC_EA            2
 ----------------------------------------------------
       Standard Nuclear Orientation (Angstroms)
    I     Atom         X            Y            Z
 ----------------------------------------------------
    1      Li      0.000000     0.000000    -0.028020
    2      H       0.000000     0.000000     1.649090
 ----------------------------------------------------
 Nuclear Repulsion Energy =     0.9465876612 hartrees
 There are        3 alpha and        2 beta electrons
 Requested basis set is G3large
 There are 16 shells and 52 basis functions

Total QAlloc Memory Limit   2000 MB
Mega-Array Size       743 MB
MEM_STATIC part       760 MB

                       Distance Matrix (Angstroms)
             Li(  1)
   H (  2)  1.677110
 
 A cutoff of  1.0D-08 yielded    136 shell pairs
 There are   1462 function pairs (  1834 Cartesian)
Evaluating contribution to one-electron hamiltonian from nuclear
 Smallest overlap matrix eigenvalue = 4.09E-03
 Multipole matrices computed through 2nd order

  Scale SEOQF with 1.000000e-02/1.000000e-02/1.000000e-02

 Standard Electronic Orientation quadrupole field applied
 Guess from superposition of atomic densities
 Warning:  Energy on first SCF cycle will be non-variational
 Long-range K will be added via erf
 Coulomb attenuation parameter = 2 bohr**(-1)
 An unrestricted Kohn-Sham SCF calculation will be
 performed using Pulay DIIS extrapolation
 Exchange:  wPBE + LR-HF      Correlation:  PBE
 Using SG-1 standard quadrature grid
 SCF converges when DIIS error is below 1.0E-05
 Requested basis set is G3large
 There are 16 shells and 52 basis functions
 A cutoff of  1.0D-08 yielded    136 shell pairs
 There are   1462 function pairs (  1834 Cartesian)
 Warning!  Inaccurate integrated density:
   Number of electrons =     5
   Numerical integral  =     4.012981843575
   Relative error      =   -19.7403631285 %
 ---------------------------------------
  Cycle       Energy         DIIS Error
 ---------------------------------------
    1      -7.7709366416      5.83E-03
    2      -8.0212801154      4.99E-03
    3      -8.0519088080      2.16E-03
    4      -8.0674859264      5.32E-04
 Warning!  Inaccurate integrated density:
   Number of electrons =     5
   Numerical integral  =     4.991522740327
   Relative error      =    -0.1695451935 %
    5      -8.0728834555      3.84E-04
 Warning!  Inaccurate integrated density:
   Number of electrons =     5
   Numerical integral  =     4.988568370746
   Relative error      =    -0.2286325851 %
    6      -8.0782082894      3.00E-04
 Warning!  Inaccurate integrated density:
   Number of electrons =     5
   Numerical integral  =     4.989676792755
   Relative error      =    -0.2064641449 %
    7      -8.0813178383      3.49E-04
 Warning!  Inaccurate integrated density:
   Number of electrons =     5
   Numerical integral  =     4.986714336544
   Relative error      =    -0.2657132691 %
    8      -8.0757649893      1.98E-04
 Warning!  Inaccurate integrated density:
   Number of electrons =     5
   Numerical integral  =     4.985447916836
   Relative error      =    -0.2910416633 %
    9      -8.0751610808      1.19E-04
 Warning!  Inaccurate integrated density:
   Number of electrons =     5
   Numerical integral  =     4.983575992418
   Relative error      =    -0.3284801516 %
   10      -8.0752296126      2.38E-05
 Warning!  Inaccurate integrated density:
   Number of electrons =     5
   Numerical integral  =     4.983418620471
   Relative error      =    -0.3316275906 %
   11      -8.0752423686      9.48E-06 Convergence criterion met
 ---------------------------------------
 One-Electron    Energy =   -12.7184663339
 Total Coulomb   Energy =     5.9842933090
 Alpha Exchange  Energy =    -0.9199756629
 Beta  Exchange  Energy =    -0.8844261023
 DFT   Exchange  Energy =    -0.3937562283
 DFT Correlation Energy =    -0.0894990113
 Nuclear Repu.   Energy =     0.9465876611
 Nuclear Attr.   Energy =   -20.7084803565
 Kinetic         Energy =     7.9900140226
 <S^2> = 0.7503
 SCF time:  CPU 6.35 s  wall 7.41 s
 Final Alpha MO Eigenvalues
            1           2           3           4           5           6
    1  -2.3513692  -0.2330960   0.0093947   0.0530189   0.0729852   0.0808568
            7           8
    1   0.0923047   0.1200492
 Final Beta MO Eigenvalues
            1           2           3           4           5           6
    1  -2.3511121  -0.2362264   0.0704874   0.0824905   0.0911490   0.0922330
            7
    1   0.1062527
 Analysis of SCF Wavefunction
 
 --------------------------------------------------------------
                    Orbital Energies (a.u.)
 --------------------------------------------------------------
 
 Alpha MOs
 -- Occupied --
 -2.351  -0.233   0.009
 -- Virtual --
  0.053   0.073   0.081   0.092   0.120   0.128   0.148   0.216
  0.240   0.240   0.241   0.331   0.367   0.368   0.371   0.373
  0.486   0.614   0.663   0.665   0.687   0.688   0.701   0.701
  0.705   0.706   0.739   0.936   1.217   1.218   1.335   1.396
  1.396   1.480   1.481   1.704   3.154   4.012   4.492   4.492
  4.626   7.366   7.366   7.630  21.016  21.043  21.610  21.613
 21.614
 
 Beta MOs
 -- Occupied --
 -2.351  -0.236
 -- Virtual --
  0.070   0.082   0.091   0.092   0.106   0.129   0.131   0.148
  0.218   0.239   0.240   0.241   0.330   0.367   0.368   0.371
  0.372   0.485   0.614   0.663   0.664   0.687   0.687   0.699
  0.699   0.704   0.704   0.737   0.935   1.216   1.217   1.334
  1.396   1.396   1.480   1.480   1.703   3.152   4.012   4.491
  4.491   4.625   7.366   7.366   7.630  21.016  21.043  21.610
 21.614  21.614
 --------------------------------------------------------------
 
          Ground-State Mulliken Net Atomic Charges

     Atom                 Charge (a.u.)    Spin (a.u.)
  --------------------------------------------------------
      1 Li                   -0.620600       1.017175
      2 H                    -0.379400      -0.017175
  --------------------------------------------------------
  Sum of atomic charges =    -1.000000
  Sum of spin   charges =     1.000000

 -----------------------------------------------------------------
                    Cartesian Multipole Moments
 -----------------------------------------------------------------
    Charge (ESU x 10^10)
                -4.8032
    Dipole Moment (Debye)
         X      -0.2303      Y      -0.2302      Z      -6.0886
       Tot       6.0973
    Quadrupole Moments (Debye-Ang)
        XX    -100.2178     XY     -47.4738     YY    -100.1917
        XZ       0.7898     YZ       0.7896     ZZ     -60.0858
    Octapole Moments (Debye-Ang^2)
       XXX      -9.3632    XXY      -3.1207    XYY      -3.1215
       YYY      -9.3606    XXZ      -3.6124    XYZ       1.4299
       YYZ      -3.6132    XZZ      -3.1343    YZZ      -3.1335
       ZZZ     -23.7009
    Hexadecapole Moments (Debye-Ang^3)
      XXXX   -4199.0418   XXXY   -1395.2890   XXYY   -1399.4258
      XYYY   -1395.2890   YYYY   -4197.5223   XXXZ      26.6981
      XXYZ       8.8970   XYYZ       8.8994   YYYZ      26.6909
      XXZZ    -943.3343   XYZZ    -465.1361   YYZZ    -943.0810
      XZZZ      26.7313   YZZZ      26.7240   ZZZZ   -1471.0556
 -----------------------------------------------------------------
 Total job time:  7.51s(wall), 6.42s(cpu) 
 Tue Jun  4 15:32:27 2013

        *************************************************************
        *                                                           *
        *  Thank you very much for using Q-Chem.  Have a nice day.  *
        *                                                           *
        *************************************************************


0 sent ACK to 0 
now end server 0 ... 
 
**********************************************************************
Job 2 of 3 
**********************************************************************
 
Process 0 of 1 is on cl087.stfx.acenet.ca - thread support 1
initial socket setup ...start
initial socket setup ...done 
now start server 0 ... 

cmd = /usr/bin/ssh clhead /usr/local/qchem/bin/get_hostid 1590938727 > /scratch/tmp/6028452.1.short.q/qchem25078/lic.dat
                  Welcome to Q-Chem
     A Quantum Leap Into The Future Of Chemistry

 Y. Shao, L. Fusti-Molnar, Y. Jung, J. Kussmann, C. Ochsenfeld,
 S. T. Brown, A. T. B. Gilbert, L. V. Slipchenko,S. V. Levchenko,
 D. P. O'Neill, R. A. DiStasio Jr., R. C. Lochan, T. Wang,
 G. J. O. Beran, N. A. Besley, J. M. Herbert, C. Y. Lin,
 T. Van Voorhis, S. H. Chien, A. Sodt, R. P. Steele, 
 V. A. Rassolov, P. E. Maslen, P. P. Korambath, R. D. Adamson,
 B. Austin, J. Baker, E. F. C. Byrd, H. Dachsel, R. J. Doerksen,
 A. Dreuw, B. D. Dunietz, A. D. Dutoi, T. R. Furlani,
 S. R. Gwaltney, A. Heyden, S. Hirata, C.-P. Hsu, G. Kedziora,
 R. Z. Khaliullin, P. Klunzinger, A. M. Lee, M. S. Lee, W. Liang,
 I. Lotan, N. Nair, B. Peters, E. I. Proynov, P. A. Pieniazek, 
 Y. M. Rhee, J. Ritchie, E. Rosta, C. D. Sherrill, 
 A. C. Simmonett, J. E. Subotnik, H. L. Woodcock III,
 W. Zhang, A. T. Bell, A. K. Chakraborty, D. M. Chipman,
 F. J. Keil, A. Warshel, W. J. Hehre, H. F. Schaefer III,
 J. Kong, A. I. Krylov, P. M. W. Gill, M. Head-Gordon,
 Q-Chem, Version 3.1, Q-Chem, Inc., Pittsburgh, PA (2007).

 Additional authors for Version 3.1: 
 Z. Gan, Y. Zhao, N. E. Schultz, D. Truhlar, E. Epifanovsky and M. Oana.

 Additional authors for Version 3.2: 
 R. Baer, B. R. Brooks, D. Casanova, J.-D. Chai, C.-L. Cheng, 
 C. Cramer, D. Crittenden, A. Ghysels, G. Hawkins, E. G. Hohenstein, 
 C. Kelley, W. Kurlancheek, D. Liotard, E. Livshits, P. Manohar, 
 A. Marenich, D. Neuhauser, R. Olson, M. A. Rohrdanz, K. S. Thanthiriwatte, 
 A. J. W. Thom, V. Vanovschi, C. F. Williams, Q. Wu and Z.-Q. You. 


 Intel X86 Linux Version

 Q-chem begins on Tue Jun  4 15:32:30 2013  

 Parallel job on  1  processors
Processing $rem in /usr/local/qchem/config/preferences.

theFileMan(): MAXOPENFILES=974 MAX_SUB_FILE_NUM=16
Maximum size of a physical file is 2.0 GB, maximum size of a tmp-file is 32.0 GB


--------------------------------------------------------------
User input:
--------------------------------------------------------------

$molecule
0,1
Li         0.00000        0.00000       -0.02802
H          0.00000        0.00000        1.64909
$end

$comment
neutral
$end

$xc_functional
C PBE   1.00
X wPBE  1.00
$end


$rem
SYMMETRY_DECOMPOSITION	0
LRC_DFT                 true
exchange 		general
BASIS                   g3large
omega			2000
mem_static              760
max_scf_cycles          200
scf_final_print         1
sym_ignore              true
$end

--------------------------------------------------------------
 Writing REM_CC_EA            2
 ----------------------------------------------------
       Standard Nuclear Orientation (Angstroms)
    I     Atom         X            Y            Z
 ----------------------------------------------------
    1      Li      0.000000     0.000000    -0.028020
    2      H       0.000000     0.000000     1.649090
 ----------------------------------------------------
 Nuclear Repulsion Energy =     0.9465876612 hartrees
 There are        2 alpha and        2 beta electrons
 Requested basis set is G3large
 There are 16 shells and 52 basis functions

Total QAlloc Memory Limit   2000 MB
Mega-Array Size       743 MB
MEM_STATIC part       760 MB

                       Distance Matrix (Angstroms)
             Li(  1)
   H (  2)  1.677110
 
 A cutoff of  1.0D-08 yielded    136 shell pairs
 There are   1462 function pairs (  1834 Cartesian)
Evaluating contribution to one-electron hamiltonian from nuclear
 Smallest overlap matrix eigenvalue = 4.09E-03
 Multipole matrices computed through 2nd order

  Scale SEOQF with 1.000000e-02/1.000000e-02/1.000000e-02

 Standard Electronic Orientation quadrupole field applied
 Guess from superposition of atomic densities
 Warning:  Energy on first SCF cycle will be non-variational
 Long-range K will be added via erf
 Coulomb attenuation parameter = 2 bohr**(-1)
 A restricted Kohn-Sham SCF calculation will be
 performed using Pulay DIIS extrapolation
 Exchange:  wPBE + LR-HF      Correlation:  PBE
 Using SG-1 standard quadrature grid
 SCF converges when DIIS error is below 1.0E-05
 Requested basis set is G3large
 There are 16 shells and 52 basis functions
 A cutoff of  1.0D-08 yielded    136 shell pairs
 There are   1462 function pairs (  1834 Cartesian)
 Warning!  Inaccurate integrated density:
   Number of electrons =     4
   Numerical integral  =     4.012981843575
   Relative error      =     0.3245460894 %
 ---------------------------------------
  Cycle       Energy         DIIS Error
 ---------------------------------------
    1      -7.7709366416      5.83E-03
    2      -8.0678321594      4.49E-03
    3      -8.0818722964      1.84E-03
    4      -8.0857787931      2.61E-04
    5      -8.0859685939      7.72E-05
    6      -8.0859879051      8.36E-06 Convergence criterion met
 ---------------------------------------
 One-Electron    Energy =   -12.3794298619
 Total Coulomb   Energy =     5.5926374826
 Alpha Exchange  Energy =    -0.8832991686
 Beta  Exchange  Energy =    -0.8832991686
 DFT   Exchange  Energy =    -0.3938383629
 DFT Correlation Energy =    -0.0853464866
 Nuclear Repu.   Energy =     0.9465876611
 Nuclear Attr.   Energy =   -20.3545214475
 Kinetic         Energy =     7.9750915856
 SCF time:  CPU 3.27 s  wall 3.79 s
 Final Alpha MO Eigenvalues
            1           2           3           4           5           6
    1  -2.4410513  -0.3218959  -0.0092059   0.0147985   0.0147987   0.0220491
            7
    1   0.0278720
 Analysis of SCF Wavefunction
 
 --------------------------------------------------------------
                    Orbital Energies (a.u.)
 --------------------------------------------------------------
 
 Alpha MOs
 -- Occupied --
 -2.441  -0.322
 -- Virtual --
 -0.009   0.015   0.015   0.022   0.028   0.053   0.053   0.076
  0.138   0.159   0.159   0.163   0.246   0.282   0.282   0.286
  0.286   0.401   0.528   0.576   0.576   0.600   0.600   0.612
  0.612   0.618   0.618   0.653   0.849   1.130   1.130   1.247
  1.306   1.306   1.392   1.392   1.616   3.067   3.923   4.405
  4.405   4.539   7.276   7.276   7.541  20.926  20.953  21.520
 21.524  21.524
 --------------------------------------------------------------
 
          Ground-State Mulliken Net Atomic Charges

     Atom                 Charge (a.u.)
  ----------------------------------------
      1 Li                    0.369823
      2 H                    -0.369823
  ----------------------------------------
  Sum of atomic charges =     0.000000

 -----------------------------------------------------------------
                    Cartesian Multipole Moments
 -----------------------------------------------------------------
    Charge (ESU x 10^10)
                 0.0000
    Dipole Moment (Debye)
         X       0.0000      Y       0.0000      Z      -6.2377
       Tot       6.2377
    Quadrupole Moments (Debye-Ang)
        XX      -5.1357     XY       0.0001     YY      -5.1357
        XZ       0.0000     YZ       0.0000     ZZ     -12.3009
    Octapole Moments (Debye-Ang^2)
       XXX       0.0001    XXY       0.0000    XYY       0.0000
       YYY       0.0000    XXZ      -6.3673    XYZ       0.0001
       YYZ      -6.3673    XZZ       0.0000    YZZ       0.0000
       ZZZ     -27.3468
    Hexadecapole Moments (Debye-Ang^3)
      XXXX     -10.8112   XXXY       0.0002   XXYY      -3.6037
      XYYY       0.0002   YYYY     -10.8112   XXXZ       0.0000
      XXYZ       0.0000   XYYZ       0.0000   YYYZ       0.0000
      XXZZ     -12.0206   XYZZ       0.0001   YYZZ     -12.0206
      XZZZ       0.0001   YZZZ       0.0000   ZZZZ     -70.9968
 -----------------------------------------------------------------
 Total job time:  3.86s(wall), 3.34s(cpu) 
 Tue Jun  4 15:32:34 2013

        *************************************************************
        *                                                           *
        *  Thank you very much for using Q-Chem.  Have a nice day.  *
        *                                                           *
        *************************************************************


0 sent ACK to 0 
now end server 0 ... 
 
**********************************************************************
Job 3 of 3 
**********************************************************************
 
Process 0 of 1 is on cl087.stfx.acenet.ca - thread support 1
initial socket setup ...start
initial socket setup ...done 
now start server 0 ... 

cmd = /usr/bin/ssh clhead /usr/local/qchem/bin/get_hostid 1615707186 > /scratch/tmp/6028452.1.short.q/qchem25078/lic.dat
                  Welcome to Q-Chem
     A Quantum Leap Into The Future Of Chemistry

 Y. Shao, L. Fusti-Molnar, Y. Jung, J. Kussmann, C. Ochsenfeld,
 S. T. Brown, A. T. B. Gilbert, L. V. Slipchenko,S. V. Levchenko,
 D. P. O'Neill, R. A. DiStasio Jr., R. C. Lochan, T. Wang,
 G. J. O. Beran, N. A. Besley, J. M. Herbert, C. Y. Lin,
 T. Van Voorhis, S. H. Chien, A. Sodt, R. P. Steele, 
 V. A. Rassolov, P. E. Maslen, P. P. Korambath, R. D. Adamson,
 B. Austin, J. Baker, E. F. C. Byrd, H. Dachsel, R. J. Doerksen,
 A. Dreuw, B. D. Dunietz, A. D. Dutoi, T. R. Furlani,
 S. R. Gwaltney, A. Heyden, S. Hirata, C.-P. Hsu, G. Kedziora,
 R. Z. Khaliullin, P. Klunzinger, A. M. Lee, M. S. Lee, W. Liang,
 I. Lotan, N. Nair, B. Peters, E. I. Proynov, P. A. Pieniazek, 
 Y. M. Rhee, J. Ritchie, E. Rosta, C. D. Sherrill, 
 A. C. Simmonett, J. E. Subotnik, H. L. Woodcock III,
 W. Zhang, A. T. Bell, A. K. Chakraborty, D. M. Chipman,
 F. J. Keil, A. Warshel, W. J. Hehre, H. F. Schaefer III,
 J. Kong, A. I. Krylov, P. M. W. Gill, M. Head-Gordon,
 Q-Chem, Version 3.1, Q-Chem, Inc., Pittsburgh, PA (2007).

 Additional authors for Version 3.1: 
 Z. Gan, Y. Zhao, N. E. Schultz, D. Truhlar, E. Epifanovsky and M. Oana.

 Additional authors for Version 3.2: 
 R. Baer, B. R. Brooks, D. Casanova, J.-D. Chai, C.-L. Cheng, 
 C. Cramer, D. Crittenden, A. Ghysels, G. Hawkins, E. G. Hohenstein, 
 C. Kelley, W. Kurlancheek, D. Liotard, E. Livshits, P. Manohar, 
 A. Marenich, D. Neuhauser, R. Olson, M. A. Rohrdanz, K. S. Thanthiriwatte, 
 A. J. W. Thom, V. Vanovschi, C. F. Williams, Q. Wu and Z.-Q. You. 


 Intel X86 Linux Version

 Q-chem begins on Tue Jun  4 15:32:36 2013  

 Parallel job on  1  processors
Processing $rem in /usr/local/qchem/config/preferences.

theFileMan(): MAXOPENFILES=974 MAX_SUB_FILE_NUM=16
Maximum size of a physical file is 2.0 GB, maximum size of a tmp-file is 32.0 GB


--------------------------------------------------------------
User input:
--------------------------------------------------------------

$molecule
1,2
Li         0.00000        0.00000       -0.02802
H          0.00000        0.00000        1.64909
$end

$comment
positive
$end

$xc_functional
C PBE   1.00
X wPBE  1.00
$end

$rem
SYMMETRY_DECOMPOSITION	0
LRC_DFT                 true
exchange 		general
BASIS                   g3large
omega			2000
mem_static              760
max_scf_cycles          200
scf_final_print         1
sym_ignore              true
$end

--------------------------------------------------------------
 Writing REM_CC_EA            2
 ----------------------------------------------------
       Standard Nuclear Orientation (Angstroms)
    I     Atom         X            Y            Z
 ----------------------------------------------------
    1      Li      0.000000     0.000000    -0.028020
    2      H       0.000000     0.000000     1.649090
 ----------------------------------------------------
 Nuclear Repulsion Energy =     0.9465876612 hartrees
 There are        2 alpha and        1 beta electrons
 Requested basis set is G3large
 There are 16 shells and 52 basis functions

Total QAlloc Memory Limit   2000 MB
Mega-Array Size       743 MB
MEM_STATIC part       760 MB

                       Distance Matrix (Angstroms)
             Li(  1)
   H (  2)  1.677110
 
 A cutoff of  1.0D-08 yielded    136 shell pairs
 There are   1462 function pairs (  1834 Cartesian)
Evaluating contribution to one-electron hamiltonian from nuclear
 Smallest overlap matrix eigenvalue = 4.09E-03
 Multipole matrices computed through 2nd order

  Scale SEOQF with 1.000000e-02/1.000000e-02/1.000000e-02

 Standard Electronic Orientation quadrupole field applied
 Guess from superposition of atomic densities
 Warning:  Energy on first SCF cycle will be non-variational
 Long-range K will be added via erf
 Coulomb attenuation parameter = 2 bohr**(-1)
 An unrestricted Kohn-Sham SCF calculation will be
 performed using Pulay DIIS extrapolation
 Exchange:  wPBE + LR-HF      Correlation:  PBE
 Using SG-1 standard quadrature grid
 SCF converges when DIIS error is below 1.0E-05
 Requested basis set is G3large
 There are 16 shells and 52 basis functions
 A cutoff of  1.0D-08 yielded    136 shell pairs
 There are   1462 function pairs (  1834 Cartesian)
 Warning!  Inaccurate integrated density:
   Number of electrons =     3
   Numerical integral  =     4.012981843575
   Relative error      =    33.7660614525 %
 ---------------------------------------
  Cycle       Energy         DIIS Error
 ---------------------------------------
    1      -7.7709366416      5.83E-03
    2      -7.7837054049      2.77E-03
    3      -7.7970723661      1.27E-03
    4      -7.8003630598      1.14E-04
    5      -7.8003822262      1.18E-05
    6      -7.8003824366      9.68E-07 Convergence criterion met
 ---------------------------------------
 One-Electron    Energy =   -11.0018710050
 Total Coulomb   Energy =     4.3046966057
 Alpha Exchange  Energy =    -0.9595631819
 Beta  Exchange  Energy =    -0.6461232454
 DFT   Exchange  Energy =    -0.3921784068
 DFT Correlation Energy =    -0.0519308643
 Nuclear Repu.   Energy =     0.9465876611
 Nuclear Attr.   Energy =   -18.8148163376
 Kinetic         Energy =     7.8129453326
 <S^2> = 0.7500
 SCF time:  CPU 3.46 s  wall 3.97 s
 Final Alpha MO Eigenvalues
            1           2           3           4           5           6
    1  -2.7672373  -0.8228349  -0.1723573  -0.1330380  -0.1330351  -0.0855062
            7
    1  -0.0687123
 Final Beta MO Eigenvalues
            1           2           3           4           5           6
    1  -2.7627982  -0.1923023  -0.1249541  -0.1239201  -0.1238824  -0.0744340
 Analysis of SCF Wavefunction
 
 --------------------------------------------------------------
                    Orbital Energies (a.u.)
 --------------------------------------------------------------
 
 Alpha MOs
 -- Occupied --
 -2.767  -0.823
 -- Virtual --
 -0.172  -0.133  -0.133  -0.086  -0.069  -0.057  -0.057  -0.051
 -0.025  -0.003  -0.002  -0.002   0.038   0.060   0.060   0.083
  0.083   0.197   0.256   0.327   0.327   0.354   0.359   0.359
  0.390   0.390   0.397   0.397   0.585   0.789   0.789   0.906
  1.036   1.036   1.083   1.083   1.296   2.579   3.578   3.912
  3.912   4.072   6.954   6.954   7.214  20.600  20.624  21.193
 21.195  21.195
 
 Beta MOs
 -- Occupied --
 -2.763
 -- Virtual --
 -0.192  -0.125  -0.124  -0.124  -0.074  -0.058  -0.056  -0.056
 -0.030  -0.008  -0.001   0.001   0.001   0.085   0.085   0.087
  0.087   0.135   0.216   0.329   0.329   0.332   0.398   0.398
  0.399   0.399   0.403   0.403   0.501   0.728   0.952   0.953
  1.037   1.038   1.232   1.251   1.257   1.520   3.024   3.661
  4.412   4.413   4.753   6.955   6.955   7.220  20.602  20.627
 21.193  21.195  21.195
 --------------------------------------------------------------
 
          Ground-State Mulliken Net Atomic Charges

     Atom                 Charge (a.u.)    Spin (a.u.)
  --------------------------------------------------------
      1 Li                    0.839090       0.160578
      2 H                     0.160910       0.839422
  --------------------------------------------------------
  Sum of atomic charges =     1.000000
  Sum of spin   charges =     1.000000

 -----------------------------------------------------------------
                    Cartesian Multipole Moments
 -----------------------------------------------------------------
    Charge (ESU x 10^10)
                 4.8032
    Dipole Moment (Debye)
         X       0.0000      Y       0.0000      Z       0.4251
       Tot       0.4251
    Quadrupole Moments (Debye-Ang)
        XX      -1.5930     XY       0.0000     YY      -1.5930
        XZ       0.0000     YZ       0.0000     ZZ       0.1715
    Octapole Moments (Debye-Ang^2)
       XXX       0.0000    XXY       0.0000    XYY       0.0000
       YYY       0.0000    XXZ      -1.7745    XYZ       0.0000
       YYZ      -1.7745    XZZ       0.0000    YZZ       0.0000
       ZZZ      -1.1713
    Hexadecapole Moments (Debye-Ang^3)
      XXXX      -1.4971   XXXY       0.0000   XXYY      -0.4990
      XYYY       0.0000   YYYY      -1.4971   XXXZ       0.0000
      XXYZ       0.0000   XYYZ       0.0000   YYYZ       0.0000
      XXZZ      -3.1505   XYZZ       0.0000   YYZZ      -3.1505
      XZZZ       0.0000   YZZZ       0.0000   ZZZZ      -8.8114
 -----------------------------------------------------------------
 Total job time:  4.05s(wall), 3.52s(cpu) 
 Tue Jun  4 15:32:40 2013

        *************************************************************
        *                                                           *
        *  Thank you very much for using Q-Chem.  Have a nice day.  *
        *                                                           *
        *************************************************************


0 sent ACK to 0 
now end server 0 ... 
