Process 0 of 1 is on cl139.stfx.acenet.ca - thread support 1
initial socket setup ...start
initial socket setup ...done 
now start server 0 ... 

cmd = /usr/bin/ssh clhead /usr/local/qchem/bin/get_hostid 581949484 > /scratch/tmp/6061746.1.medium.q/qchem31144/lic.dat
                  Welcome to Q-Chem
     A Quantum Leap Into The Future Of Chemistry

 Y. Shao, L. Fusti-Molnar, Y. Jung, J. Kussmann, C. Ochsenfeld,
 S. T. Brown, A. T. B. Gilbert, L. V. Slipchenko,S. V. Levchenko,
 D. P. O'Neill, R. A. DiStasio Jr., R. C. Lochan, T. Wang,
 G. J. O. Beran, N. A. Besley, J. M. Herbert, C. Y. Lin,
 T. Van Voorhis, S. H. Chien, A. Sodt, R. P. Steele, 
 V. A. Rassolov, P. E. Maslen, P. P. Korambath, R. D. Adamson,
 B. Austin, J. Baker, E. F. C. Byrd, H. Dachsel, R. J. Doerksen,
 A. Dreuw, B. D. Dunietz, A. D. Dutoi, T. R. Furlani,
 S. R. Gwaltney, A. Heyden, S. Hirata, C.-P. Hsu, G. Kedziora,
 R. Z. Khaliullin, P. Klunzinger, A. M. Lee, M. S. Lee, W. Liang,
 I. Lotan, N. Nair, B. Peters, E. I. Proynov, P. A. Pieniazek, 
 Y. M. Rhee, J. Ritchie, E. Rosta, C. D. Sherrill, 
 A. C. Simmonett, J. E. Subotnik, H. L. Woodcock III,
 W. Zhang, A. T. Bell, A. K. Chakraborty, D. M. Chipman,
 F. J. Keil, A. Warshel, W. J. Hehre, H. F. Schaefer III,
 J. Kong, A. I. Krylov, P. M. W. Gill, M. Head-Gordon,
 Q-Chem, Version 3.1, Q-Chem, Inc., Pittsburgh, PA (2007).

 Additional authors for Version 3.1: 
 Z. Gan, Y. Zhao, N. E. Schultz, D. Truhlar, E. Epifanovsky and M. Oana.

 Additional authors for Version 3.2: 
 R. Baer, B. R. Brooks, D. Casanova, J.-D. Chai, C.-L. Cheng, 
 C. Cramer, D. Crittenden, A. Ghysels, G. Hawkins, E. G. Hohenstein, 
 C. Kelley, W. Kurlancheek, D. Liotard, E. Livshits, P. Manohar, 
 A. Marenich, D. Neuhauser, R. Olson, M. A. Rohrdanz, K. S. Thanthiriwatte, 
 A. J. W. Thom, V. Vanovschi, C. F. Williams, Q. Wu and Z.-Q. You. 


 Intel X86 Linux Version

 Q-chem begins on Thu Jul  4 19:20:05 2013  

 Parallel job on  1  processors
Processing $rem in /usr/local/qchem/config/preferences.

theFileMan(): MAXOPENFILES=974 MAX_SUB_FILE_NUM=16
Maximum size of a physical file is 2.0 GB, maximum size of a tmp-file is 32.0 GB


--------------------------------------------------------------
User input:
--------------------------------------------------------------

$molecule
-1,2
Si         0.00000        0.00000        0.00802
H          1.08933        0.00000        1.06616
H         -1.08933        0.00000        1.06616
$end

$comment
negative
$end

$xc_functional
C PBE   1.00
X wPBE  1.00
$end

$rem
SYMMETRY_DECOMPOSITION	0
exchange 		general
LRC_DFT                 true
BASIS                   g3large
omega			390
mem_static              760
max_scf_cycles          200
scf_final_print         1
sym_ignore              true
$end

--------------------------------------------------------------
 Writing REM_CC_EA            3
 ----------------------------------------------------
       Standard Nuclear Orientation (Angstroms)
    I     Atom         X            Y            Z
 ----------------------------------------------------
    1      Si      0.000000     0.000000     0.008020
    2      H       1.089330     0.000000     1.066160
    3      H      -1.089330     0.000000     1.066160
 ----------------------------------------------------
 Nuclear Repulsion Energy =     9.9995530166 hartrees
 There are        9 alpha and        8 beta electrons
 Requested basis set is G3large
 There are 31 shells and 86 basis functions

Total QAlloc Memory Limit   2000 MB
Mega-Array Size       743 MB
MEM_STATIC part       760 MB

                       Distance Matrix (Angstroms)
             Si(  1)   H (  2)
   H (  2)  1.518651
   H (  3)  1.518651  2.178660
 
 A cutoff of  1.0D-08 yielded    496 shell pairs
 There are   3877 function pairs (  5178 Cartesian)
Evaluating contribution to one-electron hamiltonian from nuclear
 Smallest overlap matrix eigenvalue = 2.06E-03
 Multipole matrices computed through 2nd order

  Scale SEOQF with 1.000000e-01/1.000000e-01/1.000000e-01

 Standard Electronic Orientation quadrupole field applied
 Nucleus-field energy     =    -0.0000000002 hartrees
 Guess from superposition of atomic densities
 Warning:  Energy on first SCF cycle will be non-variational
 Long-range K will be added via erf
 Coulomb attenuation parameter = 0.39 bohr**(-1)
 An unrestricted Kohn-Sham SCF calculation will be
 performed using Pulay DIIS extrapolation
 Exchange:  wPBE + LR-HF      Correlation:  PBE
 Using SG-1 standard quadrature grid
 SCF converges when DIIS error is below 1.0E-05
 Requested basis set is G3large
 There are 31 shells and 86 basis functions
 A cutoff of  1.0D-08 yielded    496 shell pairs
 There are   3877 function pairs (  5178 Cartesian)
 Warning!  Inaccurate integrated density:
   Number of electrons =    17
   Numerical integral  =    16.000001219769
   Relative error      =    -5.8823457661 %
 ---------------------------------------
  Cycle       Energy         DIIS Error
 ---------------------------------------
    1    -290.3013822601      2.20E-02
    2    -290.5103051363      2.98E-03
    3    -290.5384671974      1.47E-03
    4    -290.5418319470      4.30E-04
    5    -290.5431220693      1.79E-04
    6    -290.5436310255      6.21E-05
    7    -290.5437222247      1.96E-05
    8    -290.5437333048      7.85E-06 Convergence criterion met
 ---------------------------------------
 One-Electron    Energy =  -426.1173371740
 Total Coulomb   Energy =   147.2250184898
 Alpha Exchange  Energy =    -1.7218936908
 Beta  Exchange  Energy =    -1.5731825645
 DFT   Exchange  Energy =   -17.7777375129
 DFT Correlation Energy =    -0.5781538689
 Nuclear Repu.   Energy =     9.9995530165
 Nuclear Attr.   Energy =  -716.1789855403
 Kinetic         Energy =   290.0616483663
 <S^2> = 0.7628
 SCF time:  CPU 13.35 s  wall 13.72 s
 Final Alpha MO Eigenvalues
            1           2           3           4           5           6
    1 -65.3634486  -5.0212061  -3.4276560  -3.4233548  -3.4204467  -0.4152450
            7           8           9          10          11          12
    1  -0.2101205  -0.1147297  -0.0561776   0.1933960   0.2089815   0.2190156
           13          14
    1   0.2251032   0.2276736
 Final Beta MO Eigenvalues
            1           2           3           4           5           6
    1 -65.3614023  -5.0190186  -3.4222845  -3.4207367  -3.4195937  -0.3871476
            7           8           9          10          11          12
    1  -0.2068875  -0.1006957   0.1870231   0.1950227   0.2098786   0.2208163
           13
    1   0.2282228
 Analysis of SCF Wavefunction
 
 --------------------------------------------------------------
                    Orbital Energies (a.u.)
 --------------------------------------------------------------
 
 Alpha MOs
 -- Occupied --
-65.363  -5.021  -3.428  -3.423  -3.420  -0.415  -0.210  -0.115
 -0.056
 -- Virtual --
  0.193   0.209   0.219   0.225   0.228   0.260   0.347   0.384
  0.423   0.426   0.430   0.502   0.538   0.546   0.553   0.576
  0.716   0.742   0.774   0.779   0.782   0.789   0.797   0.821
  1.008   1.021   1.043   1.063   1.074   1.138   1.155   1.280
  1.363   1.376   1.496   1.576   1.612   1.641   1.705   1.793
  2.449   2.452   2.456   2.461   2.465   2.559   2.596   3.124
  3.187   3.830   3.832   3.875   3.978   4.083   4.331   4.342
  4.355   4.356   4.532   4.890   6.023  11.563  11.630  11.644
 17.726  17.791  17.842  17.843  18.100  22.436  22.438  22.440
 22.447  22.450  22.472  22.474 140.861
 
 Beta MOs
 -- Occupied --
-65.361  -5.019  -3.422  -3.421  -3.420  -0.387  -0.207  -0.101
 -- Virtual --
  0.187   0.195   0.210   0.221   0.228   0.273   0.274   0.351
  0.401   0.434   0.459   0.461   0.532   0.542   0.550   0.577
  0.586   0.722   0.747   0.788   0.798   0.803   0.805   0.812
  0.833   1.015   1.028   1.044   1.085   1.095   1.158   1.165
  1.280   1.376   1.388   1.499   1.605   1.616   1.646   1.709
  1.796   2.471   2.476   2.480   2.486   2.490   2.573   2.608
  3.124   3.187   3.839   3.840   3.876   3.991   4.082   4.331
  4.340   4.352   4.356   4.532   4.892   6.027  11.576  11.631
 11.646  17.726  17.798  17.847  17.848  18.101  22.439  22.439
 22.442  22.448  22.451  22.473  22.475 140.863
 --------------------------------------------------------------
 
          Ground-State Mulliken Net Atomic Charges

     Atom                 Charge (a.u.)    Spin (a.u.)
  --------------------------------------------------------
      1 Si                   -0.686973       1.085122
      2 H                    -0.156505      -0.042542
      3 H                    -0.156522      -0.042580
  --------------------------------------------------------
  Sum of atomic charges =    -1.000000
  Sum of spin   charges =     1.000000

 -----------------------------------------------------------------
                    Cartesian Multipole Moments
 -----------------------------------------------------------------
    Charge (ESU x 10^10)
                -4.8032
    Dipole Moment (Debye)
         X       0.0000      Y      -0.0068      Z      -0.0698
       Tot       0.0701
    Quadrupole Moments (Debye-Ang)
        XX     -22.4004     XY       0.0045     YY     -24.0780
        XZ       0.0000     YZ       0.0201     ZZ     -25.3301
    Octapole Moments (Debye-Ang^2)
       XXX       0.0003    XXY      -0.0098    XYY       0.0000
       YYY      -0.0282    XXZ      -4.7481    XYZ      -0.0043
       YYZ      -0.7807    XZZ       0.0005    YZZ      -0.0071
       ZZZ      -6.8144
    Hexadecapole Moments (Debye-Ang^3)
      XXXX     -70.3028   XXXY       0.0215   XXYY     -24.1922
      XYYY       0.0245   YYYY     -77.7484   XXXZ      -0.0001
      XXYZ       0.0283   XYYZ       0.0000   YYYZ       0.0724
      XXZZ     -28.3663   XYZZ       0.0057   YYZZ     -27.0871
      XZZZ       0.0002   YZZZ       0.0781   ZZZZ     -88.6246
 -----------------------------------------------------------------
 Total job time:  13.83s(wall), 13.44s(cpu) 
 Thu Jul  4 19:20:18 2013

        *************************************************************
        *                                                           *
        *  Thank you very much for using Q-Chem.  Have a nice day.  *
        *                                                           *
        *************************************************************


0 sent ACK to 0 
now end server 0 ... 
 
**********************************************************************
Job 2 of 3 
**********************************************************************
 
Process 0 of 1 is on cl139.stfx.acenet.ca - thread support 1
initial socket setup ...start
initial socket setup ...done 
now start server 0 ... 

cmd = /usr/bin/ssh clhead /usr/local/qchem/bin/get_hostid 464830828 > /scratch/tmp/6061746.1.medium.q/qchem31144/lic.dat
                  Welcome to Q-Chem
     A Quantum Leap Into The Future Of Chemistry

 Y. Shao, L. Fusti-Molnar, Y. Jung, J. Kussmann, C. Ochsenfeld,
 S. T. Brown, A. T. B. Gilbert, L. V. Slipchenko,S. V. Levchenko,
 D. P. O'Neill, R. A. DiStasio Jr., R. C. Lochan, T. Wang,
 G. J. O. Beran, N. A. Besley, J. M. Herbert, C. Y. Lin,
 T. Van Voorhis, S. H. Chien, A. Sodt, R. P. Steele, 
 V. A. Rassolov, P. E. Maslen, P. P. Korambath, R. D. Adamson,
 B. Austin, J. Baker, E. F. C. Byrd, H. Dachsel, R. J. Doerksen,
 A. Dreuw, B. D. Dunietz, A. D. Dutoi, T. R. Furlani,
 S. R. Gwaltney, A. Heyden, S. Hirata, C.-P. Hsu, G. Kedziora,
 R. Z. Khaliullin, P. Klunzinger, A. M. Lee, M. S. Lee, W. Liang,
 I. Lotan, N. Nair, B. Peters, E. I. Proynov, P. A. Pieniazek, 
 Y. M. Rhee, J. Ritchie, E. Rosta, C. D. Sherrill, 
 A. C. Simmonett, J. E. Subotnik, H. L. Woodcock III,
 W. Zhang, A. T. Bell, A. K. Chakraborty, D. M. Chipman,
 F. J. Keil, A. Warshel, W. J. Hehre, H. F. Schaefer III,
 J. Kong, A. I. Krylov, P. M. W. Gill, M. Head-Gordon,
 Q-Chem, Version 3.1, Q-Chem, Inc., Pittsburgh, PA (2007).

 Additional authors for Version 3.1: 
 Z. Gan, Y. Zhao, N. E. Schultz, D. Truhlar, E. Epifanovsky and M. Oana.

 Additional authors for Version 3.2: 
 R. Baer, B. R. Brooks, D. Casanova, J.-D. Chai, C.-L. Cheng, 
 C. Cramer, D. Crittenden, A. Ghysels, G. Hawkins, E. G. Hohenstein, 
 C. Kelley, W. Kurlancheek, D. Liotard, E. Livshits, P. Manohar, 
 A. Marenich, D. Neuhauser, R. Olson, M. A. Rohrdanz, K. S. Thanthiriwatte, 
 A. J. W. Thom, V. Vanovschi, C. F. Williams, Q. Wu and Z.-Q. You. 


 Intel X86 Linux Version

 Q-chem begins on Thu Jul  4 19:20:21 2013  

 Parallel job on  1  processors
Processing $rem in /usr/local/qchem/config/preferences.

theFileMan(): MAXOPENFILES=974 MAX_SUB_FILE_NUM=16
Maximum size of a physical file is 2.0 GB, maximum size of a tmp-file is 32.0 GB


--------------------------------------------------------------
User input:
--------------------------------------------------------------

$molecule
0,1
Si         0.00000        0.00000        0.00802
H          1.08933        0.00000        1.06616
H         -1.08933        0.00000        1.06616
$end

$comment
neutral
$end

$xc_functional
C PBE   1.00
X wPBE  1.00
$end


$rem
SYMMETRY_DECOMPOSITION	0
LRC_DFT                 true
exchange 		general
BASIS                   g3large
omega			390
mem_static              760
max_scf_cycles          200
scf_final_print         1
sym_ignore              true
$end

--------------------------------------------------------------
 Writing REM_CC_EA            3
 ----------------------------------------------------
       Standard Nuclear Orientation (Angstroms)
    I     Atom         X            Y            Z
 ----------------------------------------------------
    1      Si      0.000000     0.000000     0.008020
    2      H       1.089330     0.000000     1.066160
    3      H      -1.089330     0.000000     1.066160
 ----------------------------------------------------
 Nuclear Repulsion Energy =     9.9995530166 hartrees
 There are        8 alpha and        8 beta electrons
 Requested basis set is G3large
 There are 31 shells and 86 basis functions

Total QAlloc Memory Limit   2000 MB
Mega-Array Size       743 MB
MEM_STATIC part       760 MB

                       Distance Matrix (Angstroms)
             Si(  1)   H (  2)
   H (  2)  1.518651
   H (  3)  1.518651  2.178660
 
 A cutoff of  1.0D-08 yielded    496 shell pairs
 There are   3877 function pairs (  5178 Cartesian)
Evaluating contribution to one-electron hamiltonian from nuclear
 Smallest overlap matrix eigenvalue = 2.06E-03
 Multipole matrices computed through 2nd order

  Scale SEOQF with 1.000000e-01/1.000000e-01/1.000000e-01

 Standard Electronic Orientation quadrupole field applied
 Nucleus-field energy     =    -0.0000000002 hartrees
 Guess from superposition of atomic densities
 Warning:  Energy on first SCF cycle will be non-variational
 Long-range K will be added via erf
 Coulomb attenuation parameter = 0.39 bohr**(-1)
 A restricted Kohn-Sham SCF calculation will be
 performed using Pulay DIIS extrapolation
 Exchange:  wPBE + LR-HF      Correlation:  PBE
 Using SG-1 standard quadrature grid
 SCF converges when DIIS error is below 1.0E-05
 Requested basis set is G3large
 There are 31 shells and 86 basis functions
 A cutoff of  1.0D-08 yielded    496 shell pairs
 There are   3877 function pairs (  5178 Cartesian)
 ---------------------------------------
  Cycle       Energy         DIIS Error
 ---------------------------------------
    1    -290.3013822601      2.20E-02
    2    -290.4823035791      2.14E-03
    3    -290.4940116553      7.90E-04
    4    -290.4965674916      4.10E-04
    5    -290.4974845602      1.76E-04
    6    -290.4977272700      5.23E-05
    7    -290.4977484387      1.12E-05
    8    -290.4977494157      5.05E-06 Convergence criterion met
 ---------------------------------------
 One-Electron    Energy =  -421.9368572491
 Total Coulomb   Energy =   142.8940602081
 Alpha Exchange  Energy =    -1.5836135692
 Beta  Exchange  Energy =    -1.5836135692
 DFT   Exchange  Energy =   -17.7324749378
 DFT Correlation Energy =    -0.5548033150
 Nuclear Repu.   Energy =     9.9995530165
 Nuclear Attr.   Energy =  -711.9264880355
 Kinetic         Energy =   289.9896307863
 SCF time:  CPU 11.47 s  wall 11.88 s
 Final Alpha MO Eigenvalues
            1           2           3           4           5           6
    1 -65.6375653  -5.2934492  -3.7040859  -3.6934814  -3.6900895  -0.6446627
            7           8           9          10          11          12
    1  -0.4431782  -0.3465416  -0.0338347   0.0551081   0.0705945   0.0842357
           13
    1   0.0896080
 Analysis of SCF Wavefunction
 
 --------------------------------------------------------------
                    Orbital Energies (a.u.)
 --------------------------------------------------------------
 
 Alpha MOs
 -- Occupied --
-65.638  -5.293  -3.704  -3.693  -3.690  -0.645  -0.443  -0.347
 -- Virtual --
 -0.034   0.055   0.071   0.084   0.090   0.090   0.115   0.160
  0.198   0.225   0.231   0.234   0.323   0.348   0.356   0.365
  0.395   0.508   0.541   0.567   0.574   0.576   0.584   0.591
  0.615   0.797   0.812   0.814   0.825   0.835   0.905   0.932
  1.067   1.139   1.154   1.274   1.337   1.379   1.404   1.483
  1.568   2.195   2.200   2.202   2.208   2.213   2.312   2.349
  2.896   2.957   3.560   3.562   3.616   3.708   3.837   4.100
  4.113   4.125   4.127   4.301   4.649   5.760  11.293  11.362
 11.376  17.457  17.516  17.568  17.570  17.832  22.160  22.165
 22.168  22.175  22.178  22.202  22.204 140.588
 --------------------------------------------------------------
 
          Ground-State Mulliken Net Atomic Charges

     Atom                 Charge (a.u.)
  ----------------------------------------
      1 Si                    0.101282
      2 H                    -0.050643
      3 H                    -0.050639
  ----------------------------------------
  Sum of atomic charges =     0.000000

 -----------------------------------------------------------------
                    Cartesian Multipole Moments
 -----------------------------------------------------------------
    Charge (ESU x 10^10)
                 0.0000
    Dipole Moment (Debye)
         X       0.0000      Y      -0.0018      Z       0.3002
       Tot       0.3002
    Quadrupole Moments (Debye-Ang)
        XX     -15.9619     XY      -0.0004     YY     -12.3149
        XZ       0.0000     YZ       0.0044     ZZ     -17.9518
    Octapole Moments (Debye-Ang^2)
       XXX      -0.0001    XXY       0.0000    XYY       0.0000
       YYY      -0.0054    XXZ      -3.1159    XYZ      -0.0002
       YYZ      -1.1524    XZZ       0.0000    YZZ       0.0010
       ZZZ      -6.2139
    Hexadecapole Moments (Debye-Ang^3)
      XXXX     -42.2483   XXXY      -0.0006   XXYY      -9.9153
      XYYY      -0.0006   YYYY     -16.8797   XXXZ      -0.0001
      XXYZ       0.0036   XYYZ       0.0000   YYYZ       0.0080
      XXZZ     -15.4846   XYZZ      -0.0002   YYZZ     -11.2117
      XZZZ      -0.0001   YZZZ       0.0086   ZZZZ     -50.3093
 -----------------------------------------------------------------
 Total job time:  11.97s(wall), 11.56s(cpu) 
 Thu Jul  4 19:20:33 2013

        *************************************************************
        *                                                           *
        *  Thank you very much for using Q-Chem.  Have a nice day.  *
        *                                                           *
        *************************************************************


0 sent ACK to 0 
now end server 0 ... 
 
**********************************************************************
Job 3 of 3 
**********************************************************************
 
Process 0 of 1 is on cl139.stfx.acenet.ca - thread support 1
initial socket setup ...start
initial socket setup ...done 
now start server 0 ... 

cmd = /usr/bin/ssh clhead /usr/local/qchem/bin/get_hostid 1589351272 > /scratch/tmp/6061746.1.medium.q/qchem31144/lic.dat
                  Welcome to Q-Chem
     A Quantum Leap Into The Future Of Chemistry

 Y. Shao, L. Fusti-Molnar, Y. Jung, J. Kussmann, C. Ochsenfeld,
 S. T. Brown, A. T. B. Gilbert, L. V. Slipchenko,S. V. Levchenko,
 D. P. O'Neill, R. A. DiStasio Jr., R. C. Lochan, T. Wang,
 G. J. O. Beran, N. A. Besley, J. M. Herbert, C. Y. Lin,
 T. Van Voorhis, S. H. Chien, A. Sodt, R. P. Steele, 
 V. A. Rassolov, P. E. Maslen, P. P. Korambath, R. D. Adamson,
 B. Austin, J. Baker, E. F. C. Byrd, H. Dachsel, R. J. Doerksen,
 A. Dreuw, B. D. Dunietz, A. D. Dutoi, T. R. Furlani,
 S. R. Gwaltney, A. Heyden, S. Hirata, C.-P. Hsu, G. Kedziora,
 R. Z. Khaliullin, P. Klunzinger, A. M. Lee, M. S. Lee, W. Liang,
 I. Lotan, N. Nair, B. Peters, E. I. Proynov, P. A. Pieniazek, 
 Y. M. Rhee, J. Ritchie, E. Rosta, C. D. Sherrill, 
 A. C. Simmonett, J. E. Subotnik, H. L. Woodcock III,
 W. Zhang, A. T. Bell, A. K. Chakraborty, D. M. Chipman,
 F. J. Keil, A. Warshel, W. J. Hehre, H. F. Schaefer III,
 J. Kong, A. I. Krylov, P. M. W. Gill, M. Head-Gordon,
 Q-Chem, Version 3.1, Q-Chem, Inc., Pittsburgh, PA (2007).

 Additional authors for Version 3.1: 
 Z. Gan, Y. Zhao, N. E. Schultz, D. Truhlar, E. Epifanovsky and M. Oana.

 Additional authors for Version 3.2: 
 R. Baer, B. R. Brooks, D. Casanova, J.-D. Chai, C.-L. Cheng, 
 C. Cramer, D. Crittenden, A. Ghysels, G. Hawkins, E. G. Hohenstein, 
 C. Kelley, W. Kurlancheek, D. Liotard, E. Livshits, P. Manohar, 
 A. Marenich, D. Neuhauser, R. Olson, M. A. Rohrdanz, K. S. Thanthiriwatte, 
 A. J. W. Thom, V. Vanovschi, C. F. Williams, Q. Wu and Z.-Q. You. 


 Intel X86 Linux Version

 Q-chem begins on Thu Jul  4 19:20:36 2013  

 Parallel job on  1  processors
Processing $rem in /usr/local/qchem/config/preferences.

theFileMan(): MAXOPENFILES=974 MAX_SUB_FILE_NUM=16
Maximum size of a physical file is 2.0 GB, maximum size of a tmp-file is 32.0 GB


--------------------------------------------------------------
User input:
--------------------------------------------------------------

$molecule
1,2
Si         0.00000        0.00000        0.00802
H          1.08933        0.00000        1.06616
H         -1.08933        0.00000        1.06616
$end

$comment
positive
$end

$xc_functional
C PBE   1.00
X wPBE  1.00
$end

$rem
SYMMETRY_DECOMPOSITION	0
LRC_DFT                 true
exchange 		general
BASIS                   g3large
omega			390
mem_static              760
max_scf_cycles          200
scf_final_print         1
sym_ignore              true
$end

--------------------------------------------------------------
 Writing REM_CC_EA            3
 ----------------------------------------------------
       Standard Nuclear Orientation (Angstroms)
    I     Atom         X            Y            Z
 ----------------------------------------------------
    1      Si      0.000000     0.000000     0.008020
    2      H       1.089330     0.000000     1.066160
    3      H      -1.089330     0.000000     1.066160
 ----------------------------------------------------
 Nuclear Repulsion Energy =     9.9995530166 hartrees
 There are        8 alpha and        7 beta electrons
 Requested basis set is G3large
 There are 31 shells and 86 basis functions

Total QAlloc Memory Limit   2000 MB
Mega-Array Size       743 MB
MEM_STATIC part       760 MB

                       Distance Matrix (Angstroms)
             Si(  1)   H (  2)
   H (  2)  1.518651
   H (  3)  1.518651  2.178660
 
 A cutoff of  1.0D-08 yielded    496 shell pairs
 There are   3877 function pairs (  5178 Cartesian)
Evaluating contribution to one-electron hamiltonian from nuclear
 Smallest overlap matrix eigenvalue = 2.06E-03
 Multipole matrices computed through 2nd order

  Scale SEOQF with 1.000000e-01/1.000000e-01/1.000000e-01

 Standard Electronic Orientation quadrupole field applied
 Nucleus-field energy     =    -0.0000000002 hartrees
 Guess from superposition of atomic densities
 Warning:  Energy on first SCF cycle will be non-variational
 Long-range K will be added via erf
 Coulomb attenuation parameter = 0.39 bohr**(-1)
 An unrestricted Kohn-Sham SCF calculation will be
 performed using Pulay DIIS extrapolation
 Exchange:  wPBE + LR-HF      Correlation:  PBE
 Using SG-1 standard quadrature grid
 SCF converges when DIIS error is below 1.0E-05
 Requested basis set is G3large
 There are 31 shells and 86 basis functions
 A cutoff of  1.0D-08 yielded    496 shell pairs
 There are   3877 function pairs (  5178 Cartesian)
 Warning!  Inaccurate integrated density:
   Number of electrons =    15
   Numerical integral  =    16.000001219769
   Relative error      =     6.6666747985 %
 ---------------------------------------
  Cycle       Energy         DIIS Error
 ---------------------------------------
    1    -290.3013822601      2.20E-02
    2    -290.1042071724      4.07E-03
    3    -290.1472384650      1.74E-03
    4    -290.1511453070      5.70E-04
    5    -290.1525072108      2.42E-04
    6    -290.1530026673      8.76E-05
    7    -290.1530748953      1.75E-05
    8    -290.1530783720      6.49E-06 Convergence criterion met
 ---------------------------------------
 One-Electron    Energy =  -416.7167045207
 Total Coulomb   Energy =   137.7571096002
 Alpha Exchange  Energy =    -1.5979008091
 Beta  Exchange  Energy =    -1.4220969498
 DFT   Exchange  Energy =   -17.6524133966
 DFT Correlation Energy =    -0.5206253126
 Nuclear Repu.   Energy =     9.9995530165
 Nuclear Attr.   Energy =  -706.3464267267
 Kinetic         Energy =   289.6297222060
 <S^2> = 0.7547
 SCF time:  CPU 13.06 s  wall 13.40 s
 Final Alpha MO Eigenvalues
            1           2           3           4           5           6
    1 -65.9897496  -5.6409657  -4.0512523  -4.0434495  -4.0377729  -0.9501193
            7           8           9          10          11          12
    1  -0.7295319  -0.6852784  -0.3051063  -0.1614804  -0.1167963  -0.0773186
           13
    1  -0.0675636
 Final Beta MO Eigenvalues
            1           2           3           4           5           6
    1 -65.9864992  -5.6370193  -4.0484672  -4.0355549  -4.0342968  -0.9096060
            7           8           9          10          11          12
    1  -0.7111482  -0.3409968  -0.2818317  -0.1210942  -0.1106571  -0.0700600
 Analysis of SCF Wavefunction
 
 --------------------------------------------------------------
                    Orbital Energies (a.u.)
 --------------------------------------------------------------
 
 Alpha MOs
 -- Occupied --
-65.990  -5.641  -4.051  -4.043  -4.038  -0.950  -0.730  -0.685
 -- Virtual --
 -0.305  -0.161  -0.117  -0.077  -0.068  -0.065  -0.062  -0.031
 -0.020  -0.010  -0.010   0.004   0.111   0.137   0.142   0.154
  0.183   0.261   0.305   0.321   0.333   0.334   0.339   0.349
  0.381   0.514   0.531   0.539   0.547   0.564   0.624   0.666
  0.810   0.881   0.896   1.005   1.050   1.071   1.109   1.219
  1.291   1.868   1.874   1.875   1.886   1.888   1.994   2.029
  2.605   2.667   3.221   3.230   3.278   3.379   3.520   3.811
  3.821   3.834   3.835   4.008   4.341   5.422  10.950  11.011
 11.035  17.107  17.169  17.219  17.224  17.483  21.813  21.818
 21.822  21.828  21.831  21.856  21.856 140.236
 
 Beta MOs
 -- Occupied --
-65.986  -5.637  -4.048  -4.036  -4.034  -0.910  -0.711
 -- Virtual --
 -0.341  -0.282  -0.121  -0.111  -0.070  -0.063  -0.060  -0.058
 -0.006  -0.005  -0.004   0.011   0.017   0.119   0.145   0.157
  0.160   0.197   0.277   0.317   0.336   0.344   0.344   0.353
  0.360   0.390   0.537   0.549   0.562   0.566   0.584   0.641
  0.679   0.826   0.892   0.909   1.021   1.062   1.103   1.124
  1.235   1.310   1.899   1.902   1.908   1.914   1.920   2.024
  2.059   2.629   2.689   3.234   3.235   3.289   3.389   3.536
  3.833   3.844   3.857   3.859   4.030   4.361   5.435  10.954
 11.026  11.038  17.115  17.174  17.226  17.226  17.490  21.815
 21.822  21.823  21.830  21.833  21.859  21.859 140.240
 --------------------------------------------------------------
 
          Ground-State Mulliken Net Atomic Charges

     Atom                 Charge (a.u.)    Spin (a.u.)
  --------------------------------------------------------
      1 Si                    0.761765       0.764135
      2 H                     0.119203       0.118821
      3 H                     0.119033       0.117045
  --------------------------------------------------------
  Sum of atomic charges =     1.000000
  Sum of spin   charges =     1.000000

 -----------------------------------------------------------------
                    Cartesian Multipole Moments
 -----------------------------------------------------------------
    Charge (ESU x 10^10)
                 4.8032
    Dipole Moment (Debye)
         X       0.0008      Y      -0.0029      Z       0.1992
       Tot       0.1992
    Quadrupole Moments (Debye-Ang)
        XX     -10.7959     XY       0.0000     YY      -8.8618
        XZ       0.0041     YZ       0.0062     ZZ      -9.9091
    Octapole Moments (Debye-Ang^2)
       XXX       0.0020    XXY       0.0003    XYY       0.0000
       YYY      -0.0047    XXZ      -0.7732    XYZ       0.0000
       YYZ      -2.0521    XZZ       0.0033    YZZ      -0.0009
       ZZZ      -3.7362
    Hexadecapole Moments (Debye-Ang^3)
      XXXX     -26.4233   XXXY       0.0000   XXYY      -6.4414
      XYYY       0.0000   YYYY      -8.9249   XXXZ       0.0068
      XXYZ       0.0033   XYYZ       0.0017   YYYZ       0.0078
      XXZZ      -6.0517   XYZZ       0.0000   YYZZ      -5.9960
      XZZZ       0.0072   YZZZ       0.0085   ZZZZ     -23.2474
 -----------------------------------------------------------------
 Total job time:  13.50s(wall), 13.16s(cpu) 
 Thu Jul  4 19:20:50 2013

        *************************************************************
        *                                                           *
        *  Thank you very much for using Q-Chem.  Have a nice day.  *
        *                                                           *
        *************************************************************


0 sent ACK to 0 
now end server 0 ... 
