Process 0 of 1 is on cl135 - thread support 1
initial socket setup ...start
initial socket setup ...done 
now start server 0 ... 

cmd = /usr/bin/ssh clhead /usr/local/qchem/bin/get_hostid 177101115 > /tmp/1603281.1.medium.q/qchem12795/lic.dat

cmd = /usr/bin/ssh clhead /usr/local/qchem/bin/get_hostid 177101115 > /tmp/1603281.1.medium.q/qchem12795/lic.dat

cmd = /usr/bin/ssh clhead /usr/local/qchem/bin/get_hostid 177101115 > /tmp/1603281.1.medium.q/qchem12795/lic.dat

cmd = /usr/bin/ssh clhead /usr/local/qchem/bin/get_hostid 177101115 > /tmp/1603281.1.medium.q/qchem12795/lic.dat

cmd = /usr/bin/ssh clhead /usr/local/qchem/bin/get_hostid 177101115 > /tmp/1603281.1.medium.q/qchem12795/lic.dat
                  Welcome to Q-Chem
     A Quantum Leap Into The Future Of Chemistry

 Y. Shao, L. Fusti-Molnar, Y. Jung, J. Kussmann, C. Ochsenfeld,
 S. T. Brown, A. T. B. Gilbert, L. V. Slipchenko,S. V. Levchenko,
 D. P. O'Neill, R. A. DiStasio Jr., R. C. Lochan, T. Wang,
 G. J. O. Beran, N. A. Besley, J. M. Herbert, C. Y. Lin,
 T. Van Voorhis, S. H. Chien, A. Sodt, R. P. Steele, 
 V. A. Rassolov, P. E. Maslen, P. P. Korambath, R. D. Adamson,
 B. Austin, J. Baker, E. F. C. Byrd, H. Dachsel, R. J. Doerksen,
 A. Dreuw, B. D. Dunietz, A. D. Dutoi, T. R. Furlani,
 S. R. Gwaltney, A. Heyden, S. Hirata, C.-P. Hsu, G. Kedziora,
 R. Z. Khaliullin, P. Klunzinger, A. M. Lee, M. S. Lee, W. Liang,
 I. Lotan, N. Nair, B. Peters, E. I. Proynov, P. A. Pieniazek, 
 Y. M. Rhee, J. Ritchie, E. Rosta, C. D. Sherrill, 
 A. C. Simmonett, J. E. Subotnik, H. L. Woodcock III,
 W. Zhang, A. T. Bell, A. K. Chakraborty, D. M. Chipman,
 F. J. Keil, A. Warshel, W. J. Hehre, H. F. Schaefer III,
 J. Kong, A. I. Krylov, P. M. W. Gill, M. Head-Gordon,
 Q-Chem, Version 3.1, Q-Chem, Inc., Pittsburgh, PA (2007).

 Additional authors for Version 3.1: 
 Z. Gan, Y. Zhao, N. E. Schultz, D. Truhlar, E. Epifanovsky and M. Oana.

 Additional authors for Version 3.2: 
 R. Baer, B. R. Brooks, D. Casanova, J.-D. Chai, C.-L. Cheng, 
 C. Cramer, D. Crittenden, A. Ghysels, G. Hawkins, E. G. Hohenstein, 
 C. Kelley, W. Kurlancheek, D. Liotard, E. Livshits, P. Manohar, 
 A. Marenich, D. Neuhauser, R. Olson, M. A. Rohrdanz, K. S. Thanthiriwatte, 
 A. J. W. Thom, V. Vanovschi, C. F. Williams, Q. Wu and Z.-Q. You. 


 Intel X86 Linux Version

 Q-chem begins on Wed Mar 26 10:30:52 2014  

 Parallel job on  1  processors
Processing $rem in /usr/local/qchem/config/preferences.

theFileMan(): MAXOPENFILES=974 MAX_SUB_FILE_NUM=16
Maximum size of a physical file is 2.0 GB, maximum size of a tmp-file is 32.0 GB


--------------------------------------------------------------
User input:
--------------------------------------------------------------

$molecule
-1,2
C          0.00000        0.00000        0.00427
C          0.00000        0.00000        1.34256
Cl         1.44225        0.00000       -0.90517
Cl        -1.44225        0.00000       -0.90517
Cl        -1.44225        0.00000        2.25200
Cl         1.44225        0.00000        2.25200
$end

$comment
negative
$end

$xc_functional
C PBE   1.00
X wPBE  1.00
$end

$rem
SYMMETRY_DECOMPOSITION	0
exchange 		general
LRC_DFT                 true
BASIS                   g3large
omega			290
mem_static              760
max_scf_cycles          200
scf_final_print         1
sym_ignore              true
$end

--------------------------------------------------------------
 Writing REM_CC_EA            6
 ----------------------------------------------------
       Standard Nuclear Orientation (Angstroms)
    I     Atom         X            Y            Z
 ----------------------------------------------------
    1      C       0.000000     0.000000     0.004270
    2      C       0.000000     0.000000     1.342560
    3      Cl      1.442250     0.000000    -0.905170
    4      Cl     -1.442250     0.000000    -0.905170
    5      Cl     -1.442250     0.000000     2.252000
    6      Cl      1.442250     0.000000     2.252000
 ----------------------------------------------------
 Nuclear Repulsion Energy =   496.1446596895 hartrees
 There are       41 alpha and       40 beta electrons
 Requested basis set is G3large
 There are 96 shells and 348 basis functions

Total QAlloc Memory Limit   2000 MB
Mega-Array Size       743 MB
MEM_STATIC part       760 MB

                       Distance Matrix (Angstroms)
             C (  1)   C (  2)   Cl(  3)   Cl(  4)   Cl(  5)
   C (  2)  1.338290
   Cl(  3)  1.705041  2.670651
   Cl(  4)  1.705041  2.670651  2.884500
   Cl(  5)  2.670651  1.705041  4.276454  3.157170
   Cl(  6)  2.670651  1.705041  3.157170  4.276454  2.884500
 
 A cutoff of  1.0D-08 yielded   3466 shell pairs
 There are  47748 function pairs ( 66451 Cartesian)
Evaluating contribution to one-electron hamiltonian from nuclear
 Smallest overlap matrix eigenvalue = 9.65E-06

 Q-Chem warning in module mkSTV.C, line 194:

 Overlap eigenvalue is smaller than square root of threshold

 Multipole matrices computed through 2nd order

  Scale SEOQF with 1.000000e-01/1.000000e-01/1.000000e-01

 Standard Electronic Orientation quadrupole field applied
 Nucleus-field energy     =    -0.0000000176 hartrees
 Guess from superposition of atomic densities
 Warning:  Energy on first SCF cycle will be non-variational
 Long-range K will be added via erf
 Coulomb attenuation parameter = 0.29 bohr**(-1)
 An unrestricted Kohn-Sham SCF calculation will be
 performed using Pulay DIIS extrapolation
 Exchange:  wPBE + LR-HF      Correlation:  PBE
 Using SG-1 standard quadrature grid
 SCF converges when DIIS error is below 1.0E-05
 Requested basis set is G3large
 There are 96 shells and 348 basis functions
 A cutoff of  1.0D-08 yielded   3466 shell pairs
 There are  47748 function pairs ( 66451 Cartesian)
 Warning!  Inaccurate integrated density:
   Number of electrons =    81
   Numerical integral  =    80.000162316382
   Relative error      =    -1.2343675106 %
 ---------------------------------------
  Cycle       Energy         DIIS Error
 ---------------------------------------
    1   -1917.6962485010      2.03E-02
    2   -1916.2752068072      1.55E-03
    3   -1916.3206128912      7.84E-04
    4   -1916.3269193024      2.23E-04
    5   -1916.3278262375      1.61E-04
    6   -1916.3282530839      3.46E-05
    7   -1916.3283163148      1.01E-05
    8   -1916.3283274147      3.96E-06 Convergence criterion met
 ---------------------------------------
 One-Electron    Energy = -3648.2849892835
 Total Coulomb   Energy =  1359.2810290920
 Alpha Exchange  Energy =    -6.3533590946
 Beta  Exchange  Energy =    -6.2036628961
 DFT   Exchange  Energy =  -107.7916069584
 DFT Correlation Energy =    -3.1203979461
 Nuclear Repu.   Energy =   496.1446596719
 Nuclear Attr.   Energy = -5562.3762173443
 Kinetic         Energy =  1914.0912280608
 <S^2> = 0.7547
 SCF time:  CPU 535.57 s  wall 538.25 s
 Final Alpha MO Eigenvalues
            1           2           3           4           5           6
    1-100.6594376-100.6594367-100.6593642-100.6593640  -9.9269992  -9.9265012
            7           8           9          10          11          12
    1  -9.1797453  -9.1797295  -9.1796772  -9.1796631  -7.0008658  -7.0008645
           13          14          15          16          17          18
    1  -7.0008107  -7.0008090  -6.9912970  -6.9912961  -6.9912431  -6.9912423
           19          20          21          22          23          24
    1  -6.9911533  -6.9911521  -6.9910990  -6.9910984  -0.8540770  -0.8071086
           25          26          27          28          29          30
    1  -0.7676998  -0.7435647  -0.6151968  -0.4714849  -0.4095586  -0.4087138
           31          32          33          34          35          36
    1  -0.3615680  -0.3349492  -0.2996776  -0.2665761  -0.2629129  -0.2621164
           37          38          39          40          41          42
    1  -0.2539791  -0.2498295  -0.2141845  -0.1561739   0.0115407   0.1830220
           43          44          45          46
    1   0.1913633   0.1916209   0.2026700   0.2434832
 Final Beta MO Eigenvalues
            1           2           3           4           5           6
    1-100.6594256-100.6594249-100.6593520-100.6593516  -9.9201045  -9.9195321
            7           8           9          10          11          12
    1  -9.1796632  -9.1796474  -9.1795948  -9.1795809  -7.0010258  -7.0010241
           13          14          15          16          17          18
    1  -7.0009703  -7.0009682  -6.9911657  -6.9911648  -6.9911114  -6.9911108
           19          20          21          22          23          24
    1  -6.9908841  -6.9908827  -6.9908292  -6.9908274  -0.8471765  -0.8019800
           25          26          27          28          29          30
    1  -0.7662700  -0.7422151  -0.6083056  -0.4578296  -0.4056152  -0.4031750
           31          32          33          34          35          36
    1  -0.3424704  -0.3316482  -0.2860670  -0.2657933  -0.2615769  -0.2579704
           37          38          39          40          41          42
    1  -0.2537180  -0.2429751  -0.2138988  -0.1197269   0.1842119   0.1924701
           43          44          45
    1   0.1929224   0.2033151   0.2440942
 Analysis of SCF Wavefunction
 
 --------------------------------------------------------------
                    Orbital Energies (a.u.)
 --------------------------------------------------------------
 
 Alpha MOs
 -- Occupied --
*******-100.659-100.659-100.659  -9.927  -9.927  -9.180  -9.180
 -9.180  -9.180  -7.001  -7.001  -7.001  -7.001  -6.991  -6.991
 -6.991  -6.991  -6.991  -6.991  -6.991  -6.991  -0.854  -0.807
 -0.768  -0.744  -0.615  -0.471  -0.410  -0.409  -0.362  -0.335
 -0.300  -0.267  -0.263  -0.262  -0.254  -0.250  -0.214  -0.156
  0.012
 -- Virtual --
  0.183   0.191   0.192   0.203   0.243   0.245   0.251   0.255
  0.260   0.265   0.267   0.292   0.294   0.296   0.305   0.320
  0.323   0.325   0.346   0.346   0.357   0.357   0.388   0.396
  0.404   0.408   0.417   0.442   0.451   0.462   0.495   0.511
  0.519   0.535   0.544   0.575   0.575   0.594   0.595   0.604
  0.605   0.640   0.646   0.663   0.675   0.686   0.697   0.698
  0.709   0.714   0.733   0.737   0.762   0.782   0.783   0.797
  0.816   0.848   0.848   0.859   0.899   0.913   0.967   1.002
  1.005   1.010   1.034   1.050   1.074   1.097   1.138   1.169
  1.180   1.215   1.216   1.245   1.248   1.259   1.266   1.277
  1.288   1.299   1.316   1.323   1.324   1.337   1.347   1.349
  1.353   1.369   1.371   1.376   1.382   1.384   1.388   1.414
  1.429   1.435   1.460   1.482   1.495   1.505   1.525   1.531
  1.563   1.628   1.634   1.649   1.661   1.666   1.699   1.722
  1.756   1.795   1.820   1.825   1.848   1.865   1.907   1.908
  1.914   1.921   1.927   2.005   2.018   2.026   2.069   2.081
  2.099   2.274   2.364   2.379   2.392   2.443   2.459   2.528
  2.547   2.554   2.634   2.691   2.750   2.824   2.835   2.978
  3.082   3.091   3.112   3.249   3.249   3.347   3.354   3.404
  3.525   3.526   3.530   3.594   3.665   3.678   3.705   3.736
  3.738   3.821   3.844   3.866   3.894   3.989   4.145   4.210
  4.211   4.510   4.514   4.540   4.545   4.548   4.560   4.570
  4.573   4.575   4.625   4.635   4.636   4.637   4.664   4.667
  4.688   4.692   4.695   4.701   4.721   4.750   4.790   4.795
  4.809   4.809   4.853   4.861   4.862   4.940   4.976   5.150
  5.210   5.235   5.254   5.271   5.277   5.294   5.309   5.359
  5.373   5.394   5.418   5.459   5.494   5.522   5.535   5.675
  5.756   5.893   6.046   6.319   6.330   9.955  10.085  10.131
 10.265  20.680  20.688  20.702  20.729  20.734  20.762  20.770
 20.819  20.929  21.015  21.062  21.091  23.768  24.637  27.215
 27.219  27.255  27.260  27.266  27.270  27.276  27.286  27.290
 27.303  27.309  27.319  27.322  27.343  27.347  27.354  27.355
 27.432  27.442  27.472  27.491  27.619  28.326  28.333  28.427
 28.543  36.917  36.918  36.919  36.920  36.921  36.921  36.921
 36.924  36.929  36.930  36.930  36.931  36.933  36.933  36.933
 36.934  36.934  36.938  36.939  36.941  36.944  36.950  36.952
 36.952  36.956  36.957  36.962  36.971  40.929  40.985  41.025
 41.219  41.221  41.268  41.302  41.317  41.347  41.390 215.834
215.975 216.012 216.186
 
 Beta MOs
 -- Occupied --
*******-100.659-100.659-100.659  -9.920  -9.920  -9.180  -9.180
 -9.180  -9.180  -7.001  -7.001  -7.001  -7.001  -6.991  -6.991
 -6.991  -6.991  -6.991  -6.991  -6.991  -6.991  -0.847  -0.802
 -0.766  -0.742  -0.608  -0.458  -0.406  -0.403  -0.342  -0.332
 -0.286  -0.266  -0.262  -0.258  -0.254  -0.243  -0.214  -0.120
 -- Virtual --
  0.184   0.192   0.193   0.203   0.244   0.246   0.248   0.256
  0.256   0.261   0.268   0.281   0.293   0.295   0.297   0.311
  0.322   0.325   0.330   0.347   0.347   0.359   0.366   0.389
  0.398   0.405   0.410   0.419   0.446   0.455   0.467   0.498
  0.512   0.521   0.537   0.547   0.580   0.585   0.595   0.596
  0.608   0.615   0.642   0.646   0.665   0.689   0.695   0.699
  0.701   0.710   0.714   0.735   0.743   0.774   0.784   0.787
  0.800   0.820   0.849   0.852   0.873   0.907   0.920   0.968
  1.006   1.008   1.024   1.050   1.068   1.081   1.105   1.143
  1.176   1.182   1.217   1.223   1.250   1.254   1.263   1.268
  1.279   1.290   1.300   1.317   1.324   1.324   1.339   1.348
  1.351   1.354   1.372   1.372   1.381   1.382   1.387   1.389
  1.416   1.430   1.440   1.461   1.485   1.499   1.512   1.527
  1.535   1.566   1.632   1.634   1.652   1.663   1.671   1.701
  1.732   1.757   1.798   1.827   1.830   1.859   1.874   1.912
  1.918   1.918   1.922   1.940   2.013   2.021   2.029   2.072
  2.084   2.100   2.284   2.368   2.383   2.394   2.448   2.460
  2.533   2.549   2.556   2.638   2.696   2.753   2.827   2.837
  3.015   3.106   3.122   3.130   3.265   3.274   3.368   3.371
  3.426   3.526   3.539   3.546   3.618   3.682   3.697   3.738
  3.741   3.762   3.845   3.861   3.880   3.928   4.017   4.150
  4.219   4.233   4.514   4.517   4.541   4.546   4.550   4.562
  4.571   4.575   4.576   4.626   4.638   4.638   4.639   4.665
  4.669   4.689   4.694   4.695   4.703   4.724   4.752   4.793
  4.797   4.809   4.810   4.853   4.862   4.884   4.942   4.978
  5.152   5.211   5.235   5.254   5.272   5.278   5.295   5.313
  5.361   5.375   5.395   5.421   5.461   5.497   5.523   5.535
  5.678   5.757   5.894   6.047   6.321   6.332   9.956  10.085
 10.132  10.266  20.680  20.689  20.703  20.729  20.735  20.762
 20.770  20.819  20.929  21.015  21.062  21.091  23.776  24.645
 27.215  27.219  27.259  27.260  27.266  27.273  27.276  27.286
 27.290  27.303  27.309  27.320  27.322  27.343  27.348  27.354
 27.354  27.432  27.456  27.473  27.492  27.639  28.330  28.337
 28.431  28.548  36.917  36.918  36.919  36.920  36.921  36.921
 36.921  36.924  36.929  36.930  36.931  36.931  36.933  36.933
 36.933  36.934  36.935  36.938  36.939  36.941  36.944  36.950
 36.952  36.952  36.956  36.957  36.962  36.971  40.943  40.993
 41.041  41.233  41.235  41.282  41.305  41.331  41.352  41.393
215.834 215.975 216.012 216.186
 --------------------------------------------------------------
 
          Ground-State Mulliken Net Atomic Charges

     Atom                 Charge (a.u.)    Spin (a.u.)
  --------------------------------------------------------
      1 C                     0.533764       0.402383
      2 C                     0.533575       0.402382
      3 Cl                   -0.517046       0.048785
      4 Cl                   -0.516635       0.048832
      5 Cl                   -0.516975       0.048777
      6 Cl                   -0.516684       0.048841
  --------------------------------------------------------
  Sum of atomic charges =    -1.000000
  Sum of spin   charges =     1.000000

 -----------------------------------------------------------------
                    Cartesian Multipole Moments
 -----------------------------------------------------------------
    Charge (ESU x 10^10)
                -4.8032
    Dipole Moment (Debye)
         X       0.0000      Y       0.0000      Z      -3.2346
       Tot       3.2346
    Quadrupole Moments (Debye-Ang)
        XX     -74.3845     XY       0.0182     YY     -66.9646
        XZ       0.0004     YZ      -0.0021     ZZ     -80.5736
    Octapole Moments (Debye-Ang^2)
       XXX       0.0000    XXY       0.0000    XYY       0.0000
       YYY       0.0000    XXZ     -50.0916    XYZ       0.0123
       YYZ     -45.0950    XZZ       0.0005    YZZ      -0.0029
       ZZZ    -159.8447
    Hexadecapole Moments (Debye-Ang^3)
      XXXX    -751.4341   XXXY       0.1789   XXYY    -148.3480
      XYYY       0.0760   YYYY     -85.4024   XXXZ      -0.0006
      XXYZ      -0.0258   XYYZ      -0.0010   YYYZ      -0.0073
      XXZZ    -323.5540   XYZZ       0.1546   YYZZ    -206.4735
      XZZZ       0.0000   YZZZ      -0.0186   ZZZZ   -1174.6452
 -----------------------------------------------------------------
 Total job time:  538.90s(wall), 536.17s(cpu) 
 Wed Mar 26 10:39:51 2014

        *************************************************************
        *                                                           *
        *  Thank you very much for using Q-Chem.  Have a nice day.  *
        *                                                           *
        *************************************************************


0 sent ACK to 0 
now end server 0 ... 
 
**********************************************************************
Job 2 of 3 
**********************************************************************
 
Process 0 of 1 is on cl135 - thread support 1
initial socket setup ...start
initial socket setup ...done 
now start server 0 ... 

cmd = /usr/bin/ssh clhead /usr/local/qchem/bin/get_hostid 1320263730 > /tmp/1603281.1.medium.q/qchem12795/lic.dat

cmd = /usr/bin/ssh clhead /usr/local/qchem/bin/get_hostid 1320263730 > /tmp/1603281.1.medium.q/qchem12795/lic.dat

cmd = /usr/bin/ssh clhead /usr/local/qchem/bin/get_hostid 1320263730 > /tmp/1603281.1.medium.q/qchem12795/lic.dat

cmd = /usr/bin/ssh clhead /usr/local/qchem/bin/get_hostid 1320263730 > /tmp/1603281.1.medium.q/qchem12795/lic.dat

cmd = /usr/bin/ssh clhead /usr/local/qchem/bin/get_hostid 1320263730 > /tmp/1603281.1.medium.q/qchem12795/lic.dat
                  Welcome to Q-Chem
     A Quantum Leap Into The Future Of Chemistry

 Y. Shao, L. Fusti-Molnar, Y. Jung, J. Kussmann, C. Ochsenfeld,
 S. T. Brown, A. T. B. Gilbert, L. V. Slipchenko,S. V. Levchenko,
 D. P. O'Neill, R. A. DiStasio Jr., R. C. Lochan, T. Wang,
 G. J. O. Beran, N. A. Besley, J. M. Herbert, C. Y. Lin,
 T. Van Voorhis, S. H. Chien, A. Sodt, R. P. Steele, 
 V. A. Rassolov, P. E. Maslen, P. P. Korambath, R. D. Adamson,
 B. Austin, J. Baker, E. F. C. Byrd, H. Dachsel, R. J. Doerksen,
 A. Dreuw, B. D. Dunietz, A. D. Dutoi, T. R. Furlani,
 S. R. Gwaltney, A. Heyden, S. Hirata, C.-P. Hsu, G. Kedziora,
 R. Z. Khaliullin, P. Klunzinger, A. M. Lee, M. S. Lee, W. Liang,
 I. Lotan, N. Nair, B. Peters, E. I. Proynov, P. A. Pieniazek, 
 Y. M. Rhee, J. Ritchie, E. Rosta, C. D. Sherrill, 
 A. C. Simmonett, J. E. Subotnik, H. L. Woodcock III,
 W. Zhang, A. T. Bell, A. K. Chakraborty, D. M. Chipman,
 F. J. Keil, A. Warshel, W. J. Hehre, H. F. Schaefer III,
 J. Kong, A. I. Krylov, P. M. W. Gill, M. Head-Gordon,
 Q-Chem, Version 3.1, Q-Chem, Inc., Pittsburgh, PA (2007).

 Additional authors for Version 3.1: 
 Z. Gan, Y. Zhao, N. E. Schultz, D. Truhlar, E. Epifanovsky and M. Oana.

 Additional authors for Version 3.2: 
 R. Baer, B. R. Brooks, D. Casanova, J.-D. Chai, C.-L. Cheng, 
 C. Cramer, D. Crittenden, A. Ghysels, G. Hawkins, E. G. Hohenstein, 
 C. Kelley, W. Kurlancheek, D. Liotard, E. Livshits, P. Manohar, 
 A. Marenich, D. Neuhauser, R. Olson, M. A. Rohrdanz, K. S. Thanthiriwatte, 
 A. J. W. Thom, V. Vanovschi, C. F. Williams, Q. Wu and Z.-Q. You. 


 Intel X86 Linux Version

 Q-chem begins on Wed Mar 26 10:39:55 2014  

 Parallel job on  1  processors
Processing $rem in /usr/local/qchem/config/preferences.

theFileMan(): MAXOPENFILES=974 MAX_SUB_FILE_NUM=16
Maximum size of a physical file is 2.0 GB, maximum size of a tmp-file is 32.0 GB


--------------------------------------------------------------
User input:
--------------------------------------------------------------

$molecule
0,1
C          0.00000        0.00000        0.00427
C          0.00000        0.00000        1.34256
Cl         1.44225        0.00000       -0.90517
Cl        -1.44225        0.00000       -0.90517
Cl        -1.44225        0.00000        2.25200
Cl         1.44225        0.00000        2.25200
$end

$comment
neutral
$end

$xc_functional
C PBE   1.00
X wPBE  1.00
$end


$rem
SYMMETRY_DECOMPOSITION	0
LRC_DFT                 true
exchange 		general
BASIS                   g3large
omega			290
mem_static              760
max_scf_cycles          200
scf_final_print         1
sym_ignore              true
$end

--------------------------------------------------------------
 Writing REM_CC_EA            6
 ----------------------------------------------------
       Standard Nuclear Orientation (Angstroms)
    I     Atom         X            Y            Z
 ----------------------------------------------------
    1      C       0.000000     0.000000     0.004270
    2      C       0.000000     0.000000     1.342560
    3      Cl      1.442250     0.000000    -0.905170
    4      Cl     -1.442250     0.000000    -0.905170
    5      Cl     -1.442250     0.000000     2.252000
    6      Cl      1.442250     0.000000     2.252000
 ----------------------------------------------------
 Nuclear Repulsion Energy =   496.1446596895 hartrees
 There are       40 alpha and       40 beta electrons
 Requested basis set is G3large
 There are 96 shells and 348 basis functions

Total QAlloc Memory Limit   2000 MB
Mega-Array Size       743 MB
MEM_STATIC part       760 MB

                       Distance Matrix (Angstroms)
             C (  1)   C (  2)   Cl(  3)   Cl(  4)   Cl(  5)
   C (  2)  1.338290
   Cl(  3)  1.705041  2.670651
   Cl(  4)  1.705041  2.670651  2.884500
   Cl(  5)  2.670651  1.705041  4.276454  3.157170
   Cl(  6)  2.670651  1.705041  3.157170  4.276454  2.884500
 
 A cutoff of  1.0D-08 yielded   3466 shell pairs
 There are  47748 function pairs ( 66451 Cartesian)
Evaluating contribution to one-electron hamiltonian from nuclear
 Smallest overlap matrix eigenvalue = 9.65E-06

 Q-Chem warning in module mkSTV.C, line 194:

 Overlap eigenvalue is smaller than square root of threshold

 Multipole matrices computed through 2nd order

  Scale SEOQF with 1.000000e-01/1.000000e-01/1.000000e-01

 Standard Electronic Orientation quadrupole field applied
 Nucleus-field energy     =    -0.0000000176 hartrees
 Guess from superposition of atomic densities
 Warning:  Energy on first SCF cycle will be non-variational
 Long-range K will be added via erf
 Coulomb attenuation parameter = 0.29 bohr**(-1)
 A restricted Kohn-Sham SCF calculation will be
 performed using Pulay DIIS extrapolation
 Exchange:  wPBE + LR-HF      Correlation:  PBE
 Using SG-1 standard quadrature grid
 SCF converges when DIIS error is below 1.0E-05
 Requested basis set is G3large
 There are 96 shells and 348 basis functions
 A cutoff of  1.0D-08 yielded   3466 shell pairs
 There are  47748 function pairs ( 66451 Cartesian)
 ---------------------------------------
  Cycle       Energy         DIIS Error
 ---------------------------------------
    1   -1917.6962485010      2.03E-02
    2   -1916.2768305463      2.03E-03
    3   -1916.2768115298      2.34E-03
    4   -1916.3443691645      2.78E-04
    5   -1916.3458189819      1.03E-04
    6   -1916.3460826497      2.43E-05
    7   -1916.3461070697      7.12E-06 Convergence criterion met
 ---------------------------------------
 One-Electron    Energy = -3632.2489347894
 Total Coulomb   Energy =  1342.9071503664
 Alpha Exchange  Energy =    -6.2111560738
 Beta  Exchange  Energy =    -6.2111560738
 DFT   Exchange  Energy =  -107.6382990682
 DFT Correlation Energy =    -3.0883711028
 Nuclear Repu.   Energy =   496.1446596719
 Nuclear Attr.   Energy = -5546.0140700762
 Kinetic         Energy =  1913.7651352868
 SCF time:  CPU 382.39 s  wall 384.35 s
 Final Alpha MO Eigenvalues
            1           2           3           4           5           6
    1-100.8556816-100.8556813-100.8555526-100.8555514 -10.1850893 -10.1845168
            7           8           9          10          11          12
    1  -9.3765711  -9.3765598  -9.3764692  -9.3764603  -7.1987537  -7.1987520
           13          14          15          16          17          18
    1  -7.1986599  -7.1986577  -7.1878911  -7.1878898  -7.1877967  -7.1877952
           19          20          21          22          23          24
    1  -7.1869964  -7.1869956  -7.1869019  -7.1869008  -1.0649366  -1.0099590
           25          26          27          28          29          30
    1  -0.9675742  -0.9412336  -0.8310043  -0.6688283  -0.6154390  -0.6132817
           31          32          33          34          35          36
    1  -0.5649911  -0.5350939  -0.4882276  -0.4614649  -0.4525094  -0.4511065
           37          38          39          40          41          42
    1  -0.4439989  -0.4355414  -0.4038410  -0.3444463   0.0244711   0.0468410
           43          44          45
    1   0.0491473   0.0560448   0.0733354
 Analysis of SCF Wavefunction
 
 --------------------------------------------------------------
                    Orbital Energies (a.u.)
 --------------------------------------------------------------
 
 Alpha MOs
 -- Occupied --
*******-100.856-100.856-100.856 -10.185 -10.185  -9.377  -9.377
 -9.376  -9.376  -7.199  -7.199  -7.199  -7.199  -7.188  -7.188
 -7.188  -7.188  -7.187  -7.187  -7.187  -7.187  -1.065  -1.010
 -0.968  -0.941  -0.831  -0.669  -0.615  -0.613  -0.565  -0.535
 -0.488  -0.461  -0.453  -0.451  -0.444  -0.436  -0.404  -0.344
 -- Virtual --
  0.024   0.047   0.049   0.056   0.073   0.090   0.090   0.093
  0.108   0.122   0.136   0.136   0.146   0.162   0.164   0.168
  0.180   0.180   0.195   0.196   0.204   0.207   0.226   0.241
  0.247   0.263   0.264   0.265   0.267   0.280   0.296   0.319
  0.335   0.347   0.357   0.369   0.399   0.402   0.422   0.426
  0.426   0.427   0.465   0.473   0.502   0.505   0.517   0.528
  0.531   0.547   0.550   0.565   0.566   0.587   0.616   0.629
  0.630   0.646   0.664   0.667   0.674   0.703   0.718   0.794
  0.807   0.814   0.827   0.852   0.859   0.877   0.910   0.959
  0.980   0.991   1.029   1.031   1.059   1.061   1.074   1.078
  1.094   1.104   1.115   1.131   1.139   1.142   1.149   1.166
  1.167   1.170   1.185   1.187   1.194   1.198   1.200   1.207
  1.230   1.243   1.248   1.267   1.296   1.309   1.312   1.344
  1.346   1.374   1.440   1.453   1.462   1.478   1.481   1.518
  1.532   1.579   1.605   1.625   1.637   1.660   1.675   1.711
  1.717   1.728   1.739   1.741   1.818   1.819   1.833   1.881
  1.896   1.907   2.079   2.172   2.191   2.202   2.256   2.272
  2.339   2.349   2.365   2.438   2.502   2.547   2.631   2.644
  2.755   2.861   2.869   2.886   3.031   3.033   3.131   3.137
  3.185   3.306   3.307   3.309   3.378   3.442   3.462   3.490
  3.521   3.522   3.603   3.621   3.648   3.671   3.770   3.923
  3.992   3.994   4.300   4.306   4.346   4.351   4.351   4.365
  4.375   4.380   4.382   4.429   4.432   4.439   4.442   4.469
  4.470   4.490   4.496   4.500   4.505   4.521   4.553   4.591
  4.599   4.611   4.614   4.641   4.656   4.664   4.734   4.773
  4.945   5.016   5.041   5.060   5.076   5.083   5.096   5.100
  5.161   5.175   5.199   5.216   5.261   5.294   5.324   5.337
  5.472   5.553   5.692   5.843   6.117   6.125   9.760   9.889
  9.936  10.070  20.484  20.492  20.506  20.534  20.539  20.567
 20.575  20.624  20.731  20.817  20.865  20.893  23.515  24.383
 27.019  27.023  27.039  27.063  27.069  27.071  27.079  27.080
 27.094  27.107  27.112  27.121  27.122  27.146  27.148  27.157
 27.157  27.210  27.231  27.267  27.284  27.368  28.073  28.090
 28.182  28.296  36.720  36.721  36.723  36.724  36.724  36.724
 36.725  36.728  36.733  36.734  36.734  36.735  36.736  36.736
 36.736  36.737  36.738  36.740  36.742  36.744  36.747  36.753
 36.755  36.755  36.759  36.760  36.765  36.773  40.673  40.728
 40.769  40.963  40.965  41.012  41.044  41.060  41.089  41.132
215.638 215.779 215.816 215.990
 --------------------------------------------------------------
 
          Ground-State Mulliken Net Atomic Charges

     Atom                 Charge (a.u.)
  ----------------------------------------
      1 C                     0.645003
      2 C                     0.645066
      3 Cl                   -0.322374
      4 Cl                   -0.322626
      5 Cl                   -0.322446
      6 Cl                   -0.322623
  ----------------------------------------
  Sum of atomic charges =     0.000000

 -----------------------------------------------------------------
                    Cartesian Multipole Moments
 -----------------------------------------------------------------
    Charge (ESU x 10^10)
                 0.0000
    Dipole Moment (Debye)
         X       0.0000      Y       0.0000      Z       0.0000
       Tot       0.0000
    Quadrupole Moments (Debye-Ang)
        XX     -58.3165     XY       0.0015     YY     -61.1840
        XZ      -0.0016     YZ      -0.0008     ZZ     -60.2750
    Octapole Moments (Debye-Ang^2)
       XXX       0.0001    XXY       0.0000    XYY       0.0000
       YYY       0.0000    XXZ     -39.2712    XYZ       0.0010
       YYZ     -41.2022    XZZ      -0.0020    YZZ      -0.0010
       ZZZ    -121.7702
    Hexadecapole Moments (Debye-Ang^3)
      XXXX    -644.2862   XXXY       0.0011   XXYY    -128.3836
      XYYY       0.0027   YYYY     -68.6098   XXXZ      -0.0055
      XXYZ      -0.0060   XYYZ       0.0002   YYYZ      -0.0013
      XXZZ    -248.2906   XYZZ       0.0120   YYZZ    -181.8314
      XZZZ      -0.0043   YZZZ      -0.0075   ZZZZ    -997.1410
 -----------------------------------------------------------------
 Total job time:  384.97s(wall), 382.95s(cpu) 
 Wed Mar 26 10:46:20 2014

        *************************************************************
        *                                                           *
        *  Thank you very much for using Q-Chem.  Have a nice day.  *
        *                                                           *
        *************************************************************


0 sent ACK to 0 
now end server 0 ... 
 
**********************************************************************
Job 3 of 3 
**********************************************************************
 
Process 0 of 1 is on cl135 - thread support 1
initial socket setup ...start
initial socket setup ...done 
now start server 0 ... 

cmd = /usr/bin/ssh clhead /usr/local/qchem/bin/get_hostid 1128094807 > /tmp/1603281.1.medium.q/qchem12795/lic.dat

cmd = /usr/bin/ssh clhead /usr/local/qchem/bin/get_hostid 1128094807 > /tmp/1603281.1.medium.q/qchem12795/lic.dat

cmd = /usr/bin/ssh clhead /usr/local/qchem/bin/get_hostid 1128094807 > /tmp/1603281.1.medium.q/qchem12795/lic.dat

cmd = /usr/bin/ssh clhead /usr/local/qchem/bin/get_hostid 1128094807 > /tmp/1603281.1.medium.q/qchem12795/lic.dat

cmd = /usr/bin/ssh clhead /usr/local/qchem/bin/get_hostid 1128094807 > /tmp/1603281.1.medium.q/qchem12795/lic.dat
                  Welcome to Q-Chem
     A Quantum Leap Into The Future Of Chemistry

 Y. Shao, L. Fusti-Molnar, Y. Jung, J. Kussmann, C. Ochsenfeld,
 S. T. Brown, A. T. B. Gilbert, L. V. Slipchenko,S. V. Levchenko,
 D. P. O'Neill, R. A. DiStasio Jr., R. C. Lochan, T. Wang,
 G. J. O. Beran, N. A. Besley, J. M. Herbert, C. Y. Lin,
 T. Van Voorhis, S. H. Chien, A. Sodt, R. P. Steele, 
 V. A. Rassolov, P. E. Maslen, P. P. Korambath, R. D. Adamson,
 B. Austin, J. Baker, E. F. C. Byrd, H. Dachsel, R. J. Doerksen,
 A. Dreuw, B. D. Dunietz, A. D. Dutoi, T. R. Furlani,
 S. R. Gwaltney, A. Heyden, S. Hirata, C.-P. Hsu, G. Kedziora,
 R. Z. Khaliullin, P. Klunzinger, A. M. Lee, M. S. Lee, W. Liang,
 I. Lotan, N. Nair, B. Peters, E. I. Proynov, P. A. Pieniazek, 
 Y. M. Rhee, J. Ritchie, E. Rosta, C. D. Sherrill, 
 A. C. Simmonett, J. E. Subotnik, H. L. Woodcock III,
 W. Zhang, A. T. Bell, A. K. Chakraborty, D. M. Chipman,
 F. J. Keil, A. Warshel, W. J. Hehre, H. F. Schaefer III,
 J. Kong, A. I. Krylov, P. M. W. Gill, M. Head-Gordon,
 Q-Chem, Version 3.1, Q-Chem, Inc., Pittsburgh, PA (2007).

 Additional authors for Version 3.1: 
 Z. Gan, Y. Zhao, N. E. Schultz, D. Truhlar, E. Epifanovsky and M. Oana.

 Additional authors for Version 3.2: 
 R. Baer, B. R. Brooks, D. Casanova, J.-D. Chai, C.-L. Cheng, 
 C. Cramer, D. Crittenden, A. Ghysels, G. Hawkins, E. G. Hohenstein, 
 C. Kelley, W. Kurlancheek, D. Liotard, E. Livshits, P. Manohar, 
 A. Marenich, D. Neuhauser, R. Olson, M. A. Rohrdanz, K. S. Thanthiriwatte, 
 A. J. W. Thom, V. Vanovschi, C. F. Williams, Q. Wu and Z.-Q. You. 


 Intel X86 Linux Version

 Q-chem begins on Wed Mar 26 10:46:25 2014  

 Parallel job on  1  processors
Processing $rem in /usr/local/qchem/config/preferences.

theFileMan(): MAXOPENFILES=974 MAX_SUB_FILE_NUM=16
Maximum size of a physical file is 2.0 GB, maximum size of a tmp-file is 32.0 GB


--------------------------------------------------------------
User input:
--------------------------------------------------------------

$molecule
1,2
C          0.00000        0.00000        0.00427
C          0.00000        0.00000        1.34256
Cl         1.44225        0.00000       -0.90517
Cl        -1.44225        0.00000       -0.90517
Cl        -1.44225        0.00000        2.25200
Cl         1.44225        0.00000        2.25200
$end

$comment
positive
$end

$xc_functional
C PBE   1.00
X wPBE  1.00
$end

$rem
SYMMETRY_DECOMPOSITION	0
LRC_DFT                 true
exchange 		general
BASIS                   g3large
omega			290
mem_static              760
max_scf_cycles          200
scf_final_print         1
sym_ignore              true
$end

--------------------------------------------------------------
 Writing REM_CC_EA            6
 ----------------------------------------------------
       Standard Nuclear Orientation (Angstroms)
    I     Atom         X            Y            Z
 ----------------------------------------------------
    1      C       0.000000     0.000000     0.004270
    2      C       0.000000     0.000000     1.342560
    3      Cl      1.442250     0.000000    -0.905170
    4      Cl     -1.442250     0.000000    -0.905170
    5      Cl     -1.442250     0.000000     2.252000
    6      Cl      1.442250     0.000000     2.252000
 ----------------------------------------------------
 Nuclear Repulsion Energy =   496.1446596895 hartrees
 There are       40 alpha and       39 beta electrons
 Requested basis set is G3large
 There are 96 shells and 348 basis functions

Total QAlloc Memory Limit   2000 MB
Mega-Array Size       743 MB
MEM_STATIC part       760 MB

                       Distance Matrix (Angstroms)
             C (  1)   C (  2)   Cl(  3)   Cl(  4)   Cl(  5)
   C (  2)  1.338290
   Cl(  3)  1.705041  2.670651
   Cl(  4)  1.705041  2.670651  2.884500
   Cl(  5)  2.670651  1.705041  4.276454  3.157170
   Cl(  6)  2.670651  1.705041  3.157170  4.276454  2.884500
 
 A cutoff of  1.0D-08 yielded   3466 shell pairs
 There are  47748 function pairs ( 66451 Cartesian)
Evaluating contribution to one-electron hamiltonian from nuclear
 Smallest overlap matrix eigenvalue = 9.65E-06

 Q-Chem warning in module mkSTV.C, line 194:

 Overlap eigenvalue is smaller than square root of threshold

 Multipole matrices computed through 2nd order

  Scale SEOQF with 1.000000e-01/1.000000e-01/1.000000e-01

 Standard Electronic Orientation quadrupole field applied
 Nucleus-field energy     =    -0.0000000176 hartrees
 Guess from superposition of atomic densities
 Warning:  Energy on first SCF cycle will be non-variational
 Long-range K will be added via erf
 Coulomb attenuation parameter = 0.29 bohr**(-1)
 An unrestricted Kohn-Sham SCF calculation will be
 performed using Pulay DIIS extrapolation
 Exchange:  wPBE + LR-HF      Correlation:  PBE
 Using SG-1 standard quadrature grid
 SCF converges when DIIS error is below 1.0E-05
 Requested basis set is G3large
 There are 96 shells and 348 basis functions
 A cutoff of  1.0D-08 yielded   3466 shell pairs
 There are  47748 function pairs ( 66451 Cartesian)
 Warning!  Inaccurate integrated density:
   Number of electrons =    79
   Numerical integral  =    80.000162316382
   Relative error      =     1.2660282486 %
 ---------------------------------------
  Cycle       Energy         DIIS Error
 ---------------------------------------
    1   -1917.6962485010      2.03E-02
    2   -1915.8273159016      3.07E-03
    3   -1915.6913306901      4.82E-03
    4   -1915.9992840939      3.79E-04
    5   -1916.0016729091      1.51E-04
    6   -1916.0023050880      3.59E-05
    7   -1916.0024567141      1.34E-05
    8   -1916.0025013191      6.86E-06 Convergence criterion met
 ---------------------------------------
 One-Electron    Energy = -3615.1408454327
 Total Coulomb   Energy =  1325.7823109064
 Alpha Exchange  Energy =    -6.2188168362
 Beta  Exchange  Energy =    -6.0573132181
 DFT   Exchange  Energy =  -107.4624525386
 DFT Correlation Energy =    -3.0500438719
 Nuclear Repu.   Energy =   496.1446596719
 Nuclear Attr.   Energy = -5528.4724191829
 Kinetic         Energy =  1913.3315737503
 <S^2> = 0.7539
 SCF time:  CPU 538.85 s  wall 540.81 s
 Final Alpha MO Eigenvalues
            1           2           3           4           5           6
    1-101.0723555-101.0723542-101.0720862-101.0720845 -10.4347600 -10.4341788
            7           8           9          10          11          12
    1  -9.5913745  -9.5913679  -9.5911654  -9.5911619  -7.4135817  -7.4135796
           13          14          15          16          17          18
    1  -7.4133729  -7.4133707  -7.4050939  -7.4050924  -7.4048803  -7.4048788
           19          20          21          22          23          24
    1  -7.4005337  -7.4005326  -7.4003272  -7.4003258  -1.2900611  -1.2225314
           25          26          27          28          29          30
    1  -1.1791451  -1.1512004  -1.0666237  -0.8808220  -0.8298960  -0.8283766
           31          32          33          34          35          36
    1  -0.7965344  -0.7441960  -0.7011331  -0.6670516  -0.6593239  -0.6540592
           37          38          39          40          41          42
    1  -0.6448190  -0.6438678  -0.6054356  -0.5725194  -0.2065390  -0.1563267
           43          44          45
    1  -0.1369458  -0.1350560  -0.0874673
 Final Beta MO Eigenvalues
            1           2           3           4           5           6
    1-101.0714872-101.0714860-101.0712203-101.0712186 -10.4304264 -10.4298966
            7           8           9          10          11          12
    1  -9.5906213  -9.5906150  -9.5904147  -9.5904081  -7.4132578  -7.4132558
           13          14          15          16          17          18
    1  -7.4130511  -7.4130489  -7.4025828  -7.4025813  -7.4023751  -7.4023737
           19          20          21          22          23          24
    1  -7.4001066  -7.4001055  -7.3999016  -7.3999003  -1.2813089  -1.2182922
           25          26          27          28          29          30
    1  -1.1748405  -1.1465908  -1.0500877  -0.8734141  -0.8257746  -0.8233769
           31          32          33          34          35          36
    1  -0.7651180  -0.7415181  -0.6818988  -0.6643751  -0.6520396  -0.6429620
           37          38          39          40          41          42
    1  -0.6337212  -0.6241612  -0.6032285  -0.3424077  -0.1668192  -0.1516589
           43          44
    1  -0.1295907  -0.1295119
 Analysis of SCF Wavefunction
 
 --------------------------------------------------------------
                    Orbital Energies (a.u.)
 --------------------------------------------------------------
 
 Alpha MOs
 -- Occupied --
*******-101.072-101.072-101.072 -10.435 -10.434  -9.591  -9.591
 -9.591  -9.591  -7.414  -7.414  -7.413  -7.413  -7.405  -7.405
 -7.405  -7.405  -7.401  -7.401  -7.400  -7.400  -1.290  -1.223
 -1.179  -1.151  -1.067  -0.881  -0.830  -0.828  -0.797  -0.744
 -0.701  -0.667  -0.659  -0.654  -0.645  -0.644  -0.605  -0.573
 -- Virtual --
 -0.207  -0.156  -0.137  -0.135  -0.087  -0.047  -0.043  -0.038
 -0.037  -0.021   0.000   0.000   0.000   0.018   0.026   0.028
  0.038   0.038   0.040   0.043   0.051   0.069   0.073   0.078
  0.083   0.086   0.091   0.109   0.111   0.129   0.161   0.161
  0.162   0.167   0.183   0.186   0.211   0.213   0.231   0.236
  0.243   0.252   0.281   0.295   0.313   0.332   0.333   0.352
  0.353   0.374   0.390   0.392   0.393   0.404   0.436   0.452
  0.455   0.465   0.481   0.496   0.498   0.499   0.521   0.603
  0.615   0.616   0.630   0.651   0.657   0.667   0.713   0.771
  0.782   0.796   0.836   0.838   0.860   0.862   0.876   0.880
  0.899   0.908   0.921   0.935   0.941   0.954   0.955   0.972
  0.975   0.975   0.990   0.993   1.001   1.005   1.006   1.014
  1.038   1.047   1.049   1.066   1.099   1.101   1.120   1.149
  1.155   1.174   1.242   1.264   1.266   1.279   1.290   1.329
  1.329   1.393   1.403   1.417   1.438   1.458   1.471   1.508
  1.513   1.539   1.544   1.547   1.611   1.617   1.632   1.686
  1.701   1.708   1.871   1.972   1.986   1.997   2.053   2.075
  2.134   2.143   2.166   2.234   2.302   2.336   2.430   2.444
  2.510   2.615   2.628   2.636   2.794   2.804   2.898   2.905
  2.953   3.079   3.082   3.084   3.146   3.195   3.241   3.260
  3.292   3.303   3.369   3.385   3.419   3.431   3.527   3.697
  3.755   3.772   4.080   4.087   4.133   4.137   4.139   4.153
  4.163   4.168   4.170   4.213   4.221   4.222   4.232   4.258
  4.259   4.279   4.284   4.292   4.292   4.304   4.345   4.377
  4.386   4.401   4.404   4.407   4.449   4.455   4.519   4.559
  4.730   4.804   4.829   4.849   4.865   4.871   4.872   4.889
  4.947   4.961   4.987   5.002   5.046   5.078   5.114   5.128
  5.258   5.339   5.478   5.629   5.904   5.910   9.549   9.678
  9.725   9.859  20.267  20.276  20.290  20.322  20.322  20.355
 20.362  20.411  20.517  20.603  20.651  20.680  23.268  24.134
 26.804  26.804  26.807  26.848  26.854  26.855  26.859  26.865
 26.879  26.892  26.898  26.906  26.906  26.930  26.932  26.940
 26.943  26.975  27.015  27.048  27.064  27.115  27.827  27.851
 27.942  28.055  36.506  36.506  36.508  36.509  36.509  36.509
 36.509  36.513  36.519  36.519  36.519  36.520  36.521  36.521
 36.521  36.522  36.524  36.524  36.529  36.529  36.532  36.539
 36.540  36.541  36.545  36.545  36.550  36.559  40.419  40.479
 40.515  40.709  40.712  40.759  40.798  40.807  40.841  40.886
215.422 215.563 215.600 215.774
 
 Beta MOs
 -- Occupied --
*******-101.071-101.071-101.071 -10.430 -10.430  -9.591  -9.591
 -9.590  -9.590  -7.413  -7.413  -7.413  -7.413  -7.403  -7.403
 -7.402  -7.402  -7.400  -7.400  -7.400  -7.400  -1.281  -1.218
 -1.175  -1.147  -1.050  -0.873  -0.826  -0.823  -0.765  -0.742
 -0.682  -0.664  -0.652  -0.643  -0.634  -0.624  -0.603
 -- Virtual --
 -0.342  -0.167  -0.152  -0.130  -0.130  -0.086  -0.046  -0.043
 -0.036  -0.035  -0.019   0.001   0.001   0.001   0.021   0.026
  0.028   0.039   0.041   0.042   0.044   0.052   0.072   0.078
  0.078   0.090   0.090   0.092   0.109   0.112   0.129   0.162
  0.163   0.165   0.168   0.185   0.191   0.218   0.218   0.242
  0.243   0.246   0.256   0.286   0.295   0.324   0.338   0.339
  0.355   0.357   0.375   0.390   0.395   0.397   0.409   0.440
  0.455   0.458   0.480   0.483   0.498   0.500   0.511   0.523
  0.611   0.617   0.620   0.634   0.660   0.664   0.679   0.716
  0.774   0.783   0.797   0.841   0.841   0.865   0.865   0.882
  0.883   0.904   0.913   0.924   0.940   0.946   0.956   0.958
  0.977   0.980   0.980   0.993   0.998   1.006   1.007   1.012
  1.020   1.041   1.051   1.052   1.071   1.103   1.109   1.124
  1.154   1.156   1.179   1.247   1.267   1.269   1.283   1.295
  1.331   1.338   1.394   1.413   1.423   1.442   1.466   1.480
  1.515   1.517   1.543   1.549   1.550   1.614   1.626   1.635
  1.688   1.705   1.711   1.878   1.974   1.995   2.005   2.061
  2.077   2.143   2.144   2.168   2.235   2.305   2.339   2.432
  2.446   2.536   2.642   2.647   2.656   2.812   2.815   2.915
  2.917   2.968   3.083   3.089   3.093   3.162   3.219   3.243
  3.275   3.304   3.306   3.386   3.398   3.430   3.452   3.548
  3.701   3.772   3.778   4.082   4.090   4.142   4.146   4.147
  4.160   4.171   4.177   4.178   4.218   4.228   4.232   4.238
  4.264   4.264   4.284   4.292   4.296   4.299   4.313   4.347
  4.385   4.393   4.404   4.409   4.421   4.450   4.456   4.522
  4.562   4.732   4.807   4.831   4.851   4.867   4.874   4.875
  4.892   4.949   4.964   4.990   5.004   5.049   5.082   5.114
  5.128   5.259   5.340   5.480   5.630   5.905   5.912   9.551
  9.680   9.726   9.861  20.272  20.280  20.294  20.322  20.326
 20.355  20.363  20.412  20.518  20.603  20.651  20.680  23.273
 24.139  26.806  26.809  26.812  26.850  26.856  26.857  26.860
 26.867  26.881  26.894  26.899  26.906  26.908  26.932  26.933
 26.942  26.943  26.982  27.015  27.048  27.064  27.128  27.830
 27.853  27.945  28.057  36.507  36.507  36.509  36.510  36.510
 36.510  36.510  36.514  36.519  36.520  36.520  36.520  36.522
 36.522  36.522  36.523  36.525  36.525  36.529  36.529  36.533
 36.540  36.540  36.541  36.545  36.545  36.551  36.559  40.429
 40.483  40.526  40.718  40.721  40.768  40.799  40.816  40.844
 40.887 215.423 215.564 215.601 215.775
 --------------------------------------------------------------
 
          Ground-State Mulliken Net Atomic Charges

     Atom                 Charge (a.u.)    Spin (a.u.)
  --------------------------------------------------------
      1 C                     0.707755       0.246849
      2 C                     0.708186       0.246754
      3 Cl                   -0.103904       0.126682
      4 Cl                   -0.103964       0.126511
      5 Cl                   -0.104114       0.126692
      6 Cl                   -0.103959       0.126512
  --------------------------------------------------------
  Sum of atomic charges =     1.000000
  Sum of spin   charges =     1.000000

 -----------------------------------------------------------------
                    Cartesian Multipole Moments
 -----------------------------------------------------------------
    Charge (ESU x 10^10)
                 4.8032
    Dipole Moment (Debye)
         X       0.0000      Y       0.0000      Z       3.2345
       Tot       3.2345
    Quadrupole Moments (Debye-Ang)
        XX     -43.5841     XY      -0.0074     YY     -56.3626
        XZ       0.0020     YZ      -0.0034     ZZ     -41.2294
    Octapole Moments (Debye-Ang^2)
       XXX       0.0000    XXY       0.0000    XYY       0.0000
       YYY       0.0000    XXZ     -29.3503    XYZ      -0.0050
       YYZ     -37.9554    XZZ       0.0027    YZZ      -0.0046
       ZZZ     -86.2273
    Hexadecapole Moments (Debye-Ang^3)
      XXXX    -563.1775   XXXY      -0.0627   XXYY    -114.4949
      XYYY      -0.0077   YYYY     -58.0044   XXXZ       0.0038
      XXYZ      -0.0011   XYYZ      -0.0024   YYYZ      -0.0033
      XXZZ    -186.8885   XYZZ       0.0075   YYZZ    -163.8421
      XZZZ       0.0049   YZZZ      -0.0361   ZZZZ    -845.2533
 -----------------------------------------------------------------
 Total job time:  541.44s(wall), 539.43s(cpu) 
 Wed Mar 26 10:55:26 2014

        *************************************************************
        *                                                           *
        *  Thank you very much for using Q-Chem.  Have a nice day.  *
        *                                                           *
        *************************************************************


0 sent ACK to 0 
now end server 0 ... 
