Process 0 of 1 is on cl038.stfx.acenet.ca - thread support 1
initial socket setup ...start
initial socket setup ...done 
now start server 0 ... 

cmd = /usr/bin/ssh clhead /usr/local/qchem/bin/get_hostid 1679488250 > /scratch/tmp/6065289.1.short.q/qchem4949/lic.dat
                  Welcome to Q-Chem
     A Quantum Leap Into The Future Of Chemistry

 Y. Shao, L. Fusti-Molnar, Y. Jung, J. Kussmann, C. Ochsenfeld,
 S. T. Brown, A. T. B. Gilbert, L. V. Slipchenko,S. V. Levchenko,
 D. P. O'Neill, R. A. DiStasio Jr., R. C. Lochan, T. Wang,
 G. J. O. Beran, N. A. Besley, J. M. Herbert, C. Y. Lin,
 T. Van Voorhis, S. H. Chien, A. Sodt, R. P. Steele, 
 V. A. Rassolov, P. E. Maslen, P. P. Korambath, R. D. Adamson,
 B. Austin, J. Baker, E. F. C. Byrd, H. Dachsel, R. J. Doerksen,
 A. Dreuw, B. D. Dunietz, A. D. Dutoi, T. R. Furlani,
 S. R. Gwaltney, A. Heyden, S. Hirata, C.-P. Hsu, G. Kedziora,
 R. Z. Khaliullin, P. Klunzinger, A. M. Lee, M. S. Lee, W. Liang,
 I. Lotan, N. Nair, B. Peters, E. I. Proynov, P. A. Pieniazek, 
 Y. M. Rhee, J. Ritchie, E. Rosta, C. D. Sherrill, 
 A. C. Simmonett, J. E. Subotnik, H. L. Woodcock III,
 W. Zhang, A. T. Bell, A. K. Chakraborty, D. M. Chipman,
 F. J. Keil, A. Warshel, W. J. Hehre, H. F. Schaefer III,
 J. Kong, A. I. Krylov, P. M. W. Gill, M. Head-Gordon,
 Q-Chem, Version 3.1, Q-Chem, Inc., Pittsburgh, PA (2007).

 Additional authors for Version 3.1: 
 Z. Gan, Y. Zhao, N. E. Schultz, D. Truhlar, E. Epifanovsky and M. Oana.

 Additional authors for Version 3.2: 
 R. Baer, B. R. Brooks, D. Casanova, J.-D. Chai, C.-L. Cheng, 
 C. Cramer, D. Crittenden, A. Ghysels, G. Hawkins, E. G. Hohenstein, 
 C. Kelley, W. Kurlancheek, D. Liotard, E. Livshits, P. Manohar, 
 A. Marenich, D. Neuhauser, R. Olson, M. A. Rohrdanz, K. S. Thanthiriwatte, 
 A. J. W. Thom, V. Vanovschi, C. F. Williams, Q. Wu and Z.-Q. You. 


 Intel X86 Linux Version

 Q-chem begins on Mon Jul  8 16:58:19 2013  

 Parallel job on  1  processors
Processing $rem in /usr/local/qchem/config/preferences.

theFileMan(): MAXOPENFILES=974 MAX_SUB_FILE_NUM=16
Maximum size of a physical file is 2.0 GB, maximum size of a tmp-file is 32.0 GB


--------------------------------------------------------------
User input:
--------------------------------------------------------------

$molecule
-1,2
C         -0.00239        0.00000        0.00366
C          0.00239        0.00000        1.52136
O          1.01667        0.00000       -0.61795
H         -1.00159        0.00000       -0.46287
O         -1.01667        0.00000        2.14296
H          1.00159        0.00000        1.98789
$end

$comment
negative
$end

$xc_functional
C PBE   1.00
X wPBE  1.00
$end

$rem
SYMMETRY_DECOMPOSITION	0
exchange 		general
LRC_DFT                 true
BASIS                   g3large
omega			420
mem_static              760
max_scf_cycles          200
scf_final_print         1
sym_ignore              true
$end

--------------------------------------------------------------
 Writing REM_CC_EA            6
 ----------------------------------------------------
       Standard Nuclear Orientation (Angstroms)
    I     Atom         X            Y            Z
 ----------------------------------------------------
    1      C      -0.002390     0.000000     0.003660
    2      C       0.002390     0.000000     1.521360
    3      O       1.016670     0.000000    -0.617950
    4      H      -1.001590     0.000000    -0.462870
    5      O      -1.016670     0.000000     2.142960
    6      H       1.001590     0.000000     1.987890
 ----------------------------------------------------
 Nuclear Repulsion Energy =   102.6576218305 hartrees
 There are       16 alpha and       15 beta electrons
 Requested basis set is G3large
 There are 52 shells and 188 basis functions

Total QAlloc Memory Limit   2000 MB
Mega-Array Size       743 MB
MEM_STATIC part       760 MB

                       Distance Matrix (Angstroms)
             C (  1)   C (  2)   O (  3)   H (  4)   O (  5)
   C (  2)  1.517708
   O (  3)  1.193684  2.367575
   H (  4)  1.102747  2.223768  2.024209
   O (  5)  2.367566  1.193679  3.428862  2.605874
   H (  6)  2.223768  1.102747  2.605884  3.165273  2.024209
 
 A cutoff of  1.0D-08 yielded   1239 shell pairs
 There are  16161 function pairs ( 20529 Cartesian)
Evaluating contribution to one-electron hamiltonian from nuclear
 Smallest overlap matrix eigenvalue = 1.78E-04
 Multipole matrices computed through 2nd order

  Scale SEOQF with 1.000000e-01/1.000000e-01/1.000000e-01

 Standard Electronic Orientation quadrupole field applied
 Nucleus-field energy     =    -0.0000000055 hartrees
 Guess from superposition of atomic densities
 Warning:  Energy on first SCF cycle will be non-variational
 Long-range K will be added via erf
 Coulomb attenuation parameter = 0.42 bohr**(-1)
 An unrestricted Kohn-Sham SCF calculation will be
 performed using Pulay DIIS extrapolation
 Exchange:  wPBE + LR-HF      Correlation:  PBE
 Using SG-1 standard quadrature grid
 SCF converges when DIIS error is below 1.0E-05
 Requested basis set is G3large
 There are 52 shells and 188 basis functions
 A cutoff of  1.0D-08 yielded   1239 shell pairs
 There are  16161 function pairs ( 20529 Cartesian)
 Warning!  Inaccurate integrated density:
   Number of electrons =    31
   Numerical integral  =    29.999861636644
   Relative error      =    -3.2262527850 %
 ---------------------------------------
  Cycle       Energy         DIIS Error
 ---------------------------------------
    1    -228.7892757037      3.73E-02
    2    -227.5566238201      7.53E-03
    3    -227.5218170537      9.04E-03
    4    -227.7632464244      4.65E-04
    5    -227.7650200176      2.14E-04
    6    -227.7655531848      6.24E-05
    7    -227.7656695983      2.52E-05
    8    -227.7657180402      1.09E-05
    9    -227.7657301888      3.93E-06 Convergence criterion met
 ---------------------------------------
 One-Electron    Energy =  -521.6119724157
 Total Coulomb   Energy =   220.0762865107
 Alpha Exchange  Energy =    -3.3533595467
 Beta  Exchange  Energy =    -3.1501438542
 DFT   Exchange  Energy =   -21.3578978515
 DFT Correlation Energy =    -1.0262648564
 Nuclear Repu.   Energy =   102.6576218250
 Nuclear Attr.   Energy =  -749.0224886713
 Kinetic         Energy =   227.4105162556
 <S^2> = 0.7600
 SCF time:  CPU 96.55 s  wall 97.10 s
 Final Alpha MO Eigenvalues
            1           2           3           4           5           6
    1 -18.7276849 -18.7276669  -9.9538446  -9.9536215  -0.9796179  -0.9637175
            7           8           9          10          11          12
    1  -0.6004470  -0.4999024  -0.3872512  -0.3752192  -0.3538379  -0.3394727
           13          14          15          16          17          18
    1  -0.2997794  -0.2054298  -0.1349078  -0.0402885   0.1775604   0.1782223
           19          20          21
    1   0.2378495   0.2558284   0.2613237
 Final Beta MO Eigenvalues
            1           2           3           4           5           6
    1 -18.7207481 -18.7207315  -9.9514382  -9.9512959  -0.9680437  -0.9521538
            7           8           9          10          11          12
    1  -0.5767350  -0.4930056  -0.3832987  -0.3655867  -0.3321116  -0.3111896
           13          14          15          16          17          18
    1  -0.2490270  -0.1980912  -0.1276566   0.1776500   0.1785848   0.2381473
           19          20
    1   0.2424553   0.2562725
 Analysis of SCF Wavefunction
 
 --------------------------------------------------------------
                    Orbital Energies (a.u.)
 --------------------------------------------------------------
 
 Alpha MOs
 -- Occupied --
-18.728 -18.728  -9.954  -9.954  -0.980  -0.964  -0.600  -0.500
 -0.387  -0.375  -0.354  -0.339  -0.300  -0.205  -0.135  -0.040
 -- Virtual --
  0.178   0.178   0.238   0.256   0.261   0.264   0.277   0.310
  0.316   0.341   0.348   0.431   0.435   0.447   0.469   0.494
  0.513   0.525   0.529   0.546   0.576   0.663   0.709   0.720
  0.793   0.821   0.840   0.849   0.875   0.914   0.920   0.922
  1.000   1.026   1.067   1.098   1.140   1.278   1.287   1.318
  1.330   1.346   1.370   1.389   1.389   1.433   1.443   1.444
  1.488   1.524   1.582   1.646   1.701   1.813   1.831   1.865
  1.968   2.051   2.052   2.099   2.138   2.260   2.342   2.424
  2.528   2.754   2.765   2.791   2.890   2.942   2.958   3.011
  3.084   3.178   3.236   3.238   3.240   3.341   3.374   3.421
  3.465   3.558   3.579   3.639   3.662   3.676   3.693   3.761
  3.834   3.867   3.972   3.980   4.001   4.129   4.165   4.181
  4.394   4.456   4.498   4.514   4.525   4.794   4.946   4.961
  5.304   5.313   5.322   5.367   5.396   5.417   5.420   5.450
  5.608   5.718   5.802   5.821   5.829   5.834   6.126   6.195
  6.607   6.626   6.848   7.120   7.141   7.158   7.160   7.265
  7.306   7.314   7.494   7.553   7.734   7.771   7.919   7.989
 24.724  24.852  27.441  27.561  27.914  28.410  28.460  28.753
 41.083  41.180  41.230  41.284  41.326  41.331  41.403  41.407
 41.555  41.564  43.965  43.985  44.009  44.019  44.104  44.128
 44.133  44.176  44.255  44.277  45.966  45.971  46.073  46.110
 46.798  46.833  50.316  50.350
 
 Beta MOs
 -- Occupied --
-18.721 -18.721  -9.951  -9.951  -0.968  -0.952  -0.577  -0.493
 -0.383  -0.366  -0.332  -0.311  -0.249  -0.198  -0.128
 -- Virtual --
  0.178   0.179   0.238   0.242   0.256   0.272   0.277   0.285
  0.310   0.322   0.349   0.378   0.433   0.437   0.449   0.492
  0.501   0.514   0.527   0.531   0.547   0.577   0.671   0.712
  0.728   0.795   0.838   0.855   0.861   0.879   0.919   0.932
  0.936   1.017   1.031   1.070   1.103   1.151   1.285   1.294
  1.323   1.331   1.359   1.373   1.392   1.407   1.436   1.447
  1.460   1.492   1.538   1.587   1.650   1.704   1.817   1.841
  1.872   1.984   2.065   2.067   2.115   2.146   2.276   2.349
  2.441   2.530   2.758   2.771   2.799   2.905   2.945   2.970
  3.028   3.103   3.184   3.242   3.249   3.251   3.350   3.380
  3.438   3.477   3.567   3.591   3.650   3.668   3.691   3.701
  3.775   3.839   3.880   3.986   3.986   4.004   4.131   4.170
  4.186   4.407   4.460   4.505   4.519   4.530   4.798   4.950
  4.963   5.327   5.338   5.344   5.385   5.418   5.435   5.436
  5.456   5.617   5.726   5.820   5.835   5.845   5.847   6.129
  6.198   6.626   6.644   6.851   7.135   7.170   7.187   7.188
  7.270   7.321   7.324   7.521   7.580   7.739   7.776   7.931
  8.002  24.727  24.855  27.449  27.569  27.916  28.412  28.461
 28.755  41.089  41.187  41.231  41.285  41.331  41.337  41.408
 41.412  41.556  41.565  43.984  44.005  44.026  44.036  44.122
 44.135  44.146  44.178  44.260  44.283  45.986  45.992  46.078
 46.114  46.802  46.838  50.323  50.356
 --------------------------------------------------------------
 
          Ground-State Mulliken Net Atomic Charges

     Atom                 Charge (a.u.)    Spin (a.u.)
  --------------------------------------------------------
      1 C                    -0.071362       0.279255
      2 C                    -0.071370       0.279252
      3 O                    -0.448313       0.246406
      4 H                     0.019677      -0.025663
      5 O                    -0.448314       0.246402
      6 H                     0.019682      -0.025651
  --------------------------------------------------------
  Sum of atomic charges =    -1.000000
  Sum of spin   charges =     1.000000

 -----------------------------------------------------------------
                    Cartesian Multipole Moments
 -----------------------------------------------------------------
    Charge (ESU x 10^10)
                -4.8032
    Dipole Moment (Debye)
         X       0.0000      Y       0.0000      Z      -3.6625
       Tot       3.6625
    Quadrupole Moments (Debye-Ang)
        XX     -33.0233     XY       0.0003     YY     -26.0902
        XZ       8.9487     YZ      -0.0004     ZZ     -39.6827
    Octapole Moments (Debye-Ang^2)
       XXX      -0.0001    XXY       0.0000    XYY      -0.0001
       YYY       0.0000    XXZ     -25.1804    XYZ       0.0002
       YYZ     -19.8939    XZZ      13.6469    YZZ      -0.0005
       ZZZ     -86.5159
    Hexadecapole Moments (Debye-Ang^3)
      XXXX    -133.7305   XXXY       0.0006   XXYY     -25.8908
      XYYY       0.0004   YYYY     -33.0311   XXXZ      55.7579
      XXYZ      -0.0004   XYYZ      14.5881   YYYZ      -0.0009
      XXZZ     -91.8652   XYZZ       0.0007   YYZZ     -58.5520
      XZZZ      83.1004   YZZZ      -0.0021   ZZZZ    -390.6656
 -----------------------------------------------------------------
 Total job time:  97.36s(wall), 96.78s(cpu) 
 Mon Jul  8 16:59:56 2013

        *************************************************************
        *                                                           *
        *  Thank you very much for using Q-Chem.  Have a nice day.  *
        *                                                           *
        *************************************************************


0 sent ACK to 0 
now end server 0 ... 
 
**********************************************************************
Job 2 of 3 
**********************************************************************
 
Process 0 of 1 is on cl038.stfx.acenet.ca - thread support 1
initial socket setup ...start
initial socket setup ...done 
now start server 0 ... 

cmd = /usr/bin/ssh clhead /usr/local/qchem/bin/get_hostid 1315180943 > /scratch/tmp/6065289.1.short.q/qchem4949/lic.dat
                  Welcome to Q-Chem
     A Quantum Leap Into The Future Of Chemistry

 Y. Shao, L. Fusti-Molnar, Y. Jung, J. Kussmann, C. Ochsenfeld,
 S. T. Brown, A. T. B. Gilbert, L. V. Slipchenko,S. V. Levchenko,
 D. P. O'Neill, R. A. DiStasio Jr., R. C. Lochan, T. Wang,
 G. J. O. Beran, N. A. Besley, J. M. Herbert, C. Y. Lin,
 T. Van Voorhis, S. H. Chien, A. Sodt, R. P. Steele, 
 V. A. Rassolov, P. E. Maslen, P. P. Korambath, R. D. Adamson,
 B. Austin, J. Baker, E. F. C. Byrd, H. Dachsel, R. J. Doerksen,
 A. Dreuw, B. D. Dunietz, A. D. Dutoi, T. R. Furlani,
 S. R. Gwaltney, A. Heyden, S. Hirata, C.-P. Hsu, G. Kedziora,
 R. Z. Khaliullin, P. Klunzinger, A. M. Lee, M. S. Lee, W. Liang,
 I. Lotan, N. Nair, B. Peters, E. I. Proynov, P. A. Pieniazek, 
 Y. M. Rhee, J. Ritchie, E. Rosta, C. D. Sherrill, 
 A. C. Simmonett, J. E. Subotnik, H. L. Woodcock III,
 W. Zhang, A. T. Bell, A. K. Chakraborty, D. M. Chipman,
 F. J. Keil, A. Warshel, W. J. Hehre, H. F. Schaefer III,
 J. Kong, A. I. Krylov, P. M. W. Gill, M. Head-Gordon,
 Q-Chem, Version 3.1, Q-Chem, Inc., Pittsburgh, PA (2007).

 Additional authors for Version 3.1: 
 Z. Gan, Y. Zhao, N. E. Schultz, D. Truhlar, E. Epifanovsky and M. Oana.

 Additional authors for Version 3.2: 
 R. Baer, B. R. Brooks, D. Casanova, J.-D. Chai, C.-L. Cheng, 
 C. Cramer, D. Crittenden, A. Ghysels, G. Hawkins, E. G. Hohenstein, 
 C. Kelley, W. Kurlancheek, D. Liotard, E. Livshits, P. Manohar, 
 A. Marenich, D. Neuhauser, R. Olson, M. A. Rohrdanz, K. S. Thanthiriwatte, 
 A. J. W. Thom, V. Vanovschi, C. F. Williams, Q. Wu and Z.-Q. You. 


 Intel X86 Linux Version

 Q-chem begins on Mon Jul  8 16:59:58 2013  

 Parallel job on  1  processors
Processing $rem in /usr/local/qchem/config/preferences.

theFileMan(): MAXOPENFILES=974 MAX_SUB_FILE_NUM=16
Maximum size of a physical file is 2.0 GB, maximum size of a tmp-file is 32.0 GB


--------------------------------------------------------------
User input:
--------------------------------------------------------------

$molecule
0,1
C         -0.00239        0.00000        0.00366
C          0.00239        0.00000        1.52136
O          1.01667        0.00000       -0.61795
H         -1.00159        0.00000       -0.46287
O         -1.01667        0.00000        2.14296
H          1.00159        0.00000        1.98789
$end

$comment
neutral
$end

$xc_functional
C PBE   1.00
X wPBE  1.00
$end


$rem
SYMMETRY_DECOMPOSITION	0
LRC_DFT                 true
exchange 		general
BASIS                   g3large
omega			420
mem_static              760
max_scf_cycles          200
scf_final_print         1
sym_ignore              true
$end

--------------------------------------------------------------
 Writing REM_CC_EA            6
 ----------------------------------------------------
       Standard Nuclear Orientation (Angstroms)
    I     Atom         X            Y            Z
 ----------------------------------------------------
    1      C      -0.002390     0.000000     0.003660
    2      C       0.002390     0.000000     1.521360
    3      O       1.016670     0.000000    -0.617950
    4      H      -1.001590     0.000000    -0.462870
    5      O      -1.016670     0.000000     2.142960
    6      H       1.001590     0.000000     1.987890
 ----------------------------------------------------
 Nuclear Repulsion Energy =   102.6576218305 hartrees
 There are       15 alpha and       15 beta electrons
 Requested basis set is G3large
 There are 52 shells and 188 basis functions

Total QAlloc Memory Limit   2000 MB
Mega-Array Size       743 MB
MEM_STATIC part       760 MB

                       Distance Matrix (Angstroms)
             C (  1)   C (  2)   O (  3)   H (  4)   O (  5)
   C (  2)  1.517708
   O (  3)  1.193684  2.367575
   H (  4)  1.102747  2.223768  2.024209
   O (  5)  2.367566  1.193679  3.428862  2.605874
   H (  6)  2.223768  1.102747  2.605884  3.165273  2.024209
 
 A cutoff of  1.0D-08 yielded   1239 shell pairs
 There are  16161 function pairs ( 20529 Cartesian)
Evaluating contribution to one-electron hamiltonian from nuclear
 Smallest overlap matrix eigenvalue = 1.78E-04
 Multipole matrices computed through 2nd order

  Scale SEOQF with 1.000000e-01/1.000000e-01/1.000000e-01

 Standard Electronic Orientation quadrupole field applied
 Nucleus-field energy     =    -0.0000000055 hartrees
 Guess from superposition of atomic densities
 Warning:  Energy on first SCF cycle will be non-variational
 Long-range K will be added via erf
 Coulomb attenuation parameter = 0.42 bohr**(-1)
 A restricted Kohn-Sham SCF calculation will be
 performed using Pulay DIIS extrapolation
 Exchange:  wPBE + LR-HF      Correlation:  PBE
 Using SG-1 standard quadrature grid
 SCF converges when DIIS error is below 1.0E-05
 Requested basis set is G3large
 There are 52 shells and 188 basis functions
 A cutoff of  1.0D-08 yielded   1239 shell pairs
 There are  16161 function pairs ( 20529 Cartesian)
 ---------------------------------------
  Cycle       Energy         DIIS Error
 ---------------------------------------
    1    -228.7892757037      3.73E-02
    2    -227.5250232404      7.47E-03
    3    -227.4088237180      1.05E-02
    4    -227.7324465702      4.94E-04
    5    -227.7344446706      1.77E-04
    6    -227.7347276645      4.79E-05
    7    -227.7347767423      1.46E-05
    8    -227.7347758791      3.82E-06 Convergence criterion met
 ---------------------------------------
 One-Electron    Energy =  -513.4859423774
 Total Coulomb   Energy =   211.6621337852
 Alpha Exchange  Energy =    -3.1704075714
 Beta  Exchange  Energy =    -3.1704075714
 DFT   Exchange  Energy =   -21.2344061152
 DFT Correlation Energy =    -0.9933678538
 Nuclear Repu.   Energy =   102.6576218250
 Nuclear Attr.   Energy =  -740.5817743901
 Kinetic         Energy =   227.0958320126
 SCF time:  CPU 69.90 s  wall 70.19 s
 Final Alpha MO Eigenvalues
            1           2           3           4           5           6
    1 -19.0152639 -19.0152615 -10.2366911 -10.2365421  -1.2498104  -1.2330274
            7           8           9          10          11          12
    1  -0.8647654  -0.7557265  -0.6507834  -0.6351912  -0.5995561  -0.5985285
           13          14          15          16          17          18
    1  -0.5367870  -0.4676040  -0.3953491  -0.0227550   0.0468938   0.0516498
           19          20
    1   0.0919482   0.0937330
 Analysis of SCF Wavefunction
 
 --------------------------------------------------------------
                    Orbital Energies (a.u.)
 --------------------------------------------------------------
 
 Alpha MOs
 -- Occupied --
-19.015 -19.015 -10.237 -10.237  -1.250  -1.233  -0.865  -0.756
 -0.651  -0.635  -0.600  -0.599  -0.537  -0.468  -0.395
 -- Virtual --
 -0.023   0.047   0.052   0.092   0.094   0.101   0.115   0.133
  0.151   0.153   0.167   0.192   0.245   0.248   0.263   0.284
  0.322   0.330   0.342   0.350   0.372   0.389   0.421   0.492
  0.495   0.577   0.597   0.612   0.630   0.664   0.680   0.684
  0.695   0.765   0.809   0.834   0.855   0.901   1.031   1.059
  1.088   1.109   1.109   1.149   1.169   1.169   1.202   1.211
  1.224   1.252   1.277   1.342   1.409   1.470   1.583   1.594
  1.620   1.718   1.804   1.806   1.852   1.880   2.005   2.095
  2.174   2.282   2.509   2.517   2.541   2.618   2.693   2.698
  2.745   2.813   2.917   2.966   2.973   2.975   3.082   3.110
  3.152   3.204   3.295   3.314   3.374   3.398   3.404   3.437
  3.493   3.575   3.601   3.705   3.720   3.739   3.865   3.901
  3.917   4.124   4.205   4.245   4.249   4.257   4.532   4.683
  4.701   5.042   5.051   5.061   5.104   5.134   5.155   5.158
  5.186   5.343   5.456   5.537   5.557   5.563   5.567   5.863
  5.933   6.337   6.356   6.576   6.855   6.877   6.894   6.896
  6.995   7.043   7.045   7.230   7.289   7.468   7.504   7.654
  7.723  24.444  24.570  27.160  27.280  27.631  28.129  28.178
 28.471  40.801  40.898  40.947  41.001  41.044  41.049  41.120
 41.124  41.273  41.281  43.683  43.703  43.726  43.736  43.821
 43.845  43.847  43.891  43.969  43.992  45.682  45.688  45.788
 45.824  46.511  46.547  50.031  50.064
 --------------------------------------------------------------
 
          Ground-State Mulliken Net Atomic Charges

     Atom                 Charge (a.u.)
  ----------------------------------------
      1 C                     0.104493
      2 C                     0.104490
      3 O                    -0.225621
      4 H                     0.121127
      5 O                    -0.225618
      6 H                     0.121129
  ----------------------------------------
  Sum of atomic charges =     0.000000

 -----------------------------------------------------------------
                    Cartesian Multipole Moments
 -----------------------------------------------------------------
    Charge (ESU x 10^10)
                 0.0000
    Dipole Moment (Debye)
         X       0.0000      Y       0.0000      Z       0.0000
       Tot       0.0000
    Quadrupole Moments (Debye-Ang)
        XX     -25.5066     XY      -0.0007     YY     -21.2456
        XZ       6.1413     YZ      -0.0003     ZZ     -26.3990
    Octapole Moments (Debye-Ang^2)
       XXX       0.0000    XXY       0.0000    XYY       0.0000
       YYY       0.0000    XXZ     -19.4490    XYZ      -0.0005
       YYZ     -16.1999    XZZ       9.3656    YZZ      -0.0005
       ZZZ     -60.3883
    Hexadecapole Moments (Debye-Ang^3)
      XXXX    -104.4431   XXXY      -0.0021   XXYY     -19.3266
      XYYY      -0.0005   YYYY     -18.4260   XXXZ      48.4507
      XXYZ       0.0005   XYYZ      12.9929   YYYZ      -0.0005
      XXZZ     -68.3078   XYZZ      -0.0008   YYZZ     -46.9251
      XZZZ      65.5641   YZZZ      -0.0026   ZZZZ    -302.6216
 -----------------------------------------------------------------
 Total job time:  70.42s(wall), 70.12s(cpu) 
 Mon Jul  8 17:01:09 2013

        *************************************************************
        *                                                           *
        *  Thank you very much for using Q-Chem.  Have a nice day.  *
        *                                                           *
        *************************************************************


0 sent ACK to 0 
now end server 0 ... 
 
**********************************************************************
Job 3 of 3 
**********************************************************************
 
Process 0 of 1 is on cl038.stfx.acenet.ca - thread support 1
initial socket setup ...start
initial socket setup ...done 
now start server 0 ... 

cmd = /usr/bin/ssh clhead /usr/local/qchem/bin/get_hostid 589406047 > /scratch/tmp/6065289.1.short.q/qchem4949/lic.dat
                  Welcome to Q-Chem
     A Quantum Leap Into The Future Of Chemistry

 Y. Shao, L. Fusti-Molnar, Y. Jung, J. Kussmann, C. Ochsenfeld,
 S. T. Brown, A. T. B. Gilbert, L. V. Slipchenko,S. V. Levchenko,
 D. P. O'Neill, R. A. DiStasio Jr., R. C. Lochan, T. Wang,
 G. J. O. Beran, N. A. Besley, J. M. Herbert, C. Y. Lin,
 T. Van Voorhis, S. H. Chien, A. Sodt, R. P. Steele, 
 V. A. Rassolov, P. E. Maslen, P. P. Korambath, R. D. Adamson,
 B. Austin, J. Baker, E. F. C. Byrd, H. Dachsel, R. J. Doerksen,
 A. Dreuw, B. D. Dunietz, A. D. Dutoi, T. R. Furlani,
 S. R. Gwaltney, A. Heyden, S. Hirata, C.-P. Hsu, G. Kedziora,
 R. Z. Khaliullin, P. Klunzinger, A. M. Lee, M. S. Lee, W. Liang,
 I. Lotan, N. Nair, B. Peters, E. I. Proynov, P. A. Pieniazek, 
 Y. M. Rhee, J. Ritchie, E. Rosta, C. D. Sherrill, 
 A. C. Simmonett, J. E. Subotnik, H. L. Woodcock III,
 W. Zhang, A. T. Bell, A. K. Chakraborty, D. M. Chipman,
 F. J. Keil, A. Warshel, W. J. Hehre, H. F. Schaefer III,
 J. Kong, A. I. Krylov, P. M. W. Gill, M. Head-Gordon,
 Q-Chem, Version 3.1, Q-Chem, Inc., Pittsburgh, PA (2007).

 Additional authors for Version 3.1: 
 Z. Gan, Y. Zhao, N. E. Schultz, D. Truhlar, E. Epifanovsky and M. Oana.

 Additional authors for Version 3.2: 
 R. Baer, B. R. Brooks, D. Casanova, J.-D. Chai, C.-L. Cheng, 
 C. Cramer, D. Crittenden, A. Ghysels, G. Hawkins, E. G. Hohenstein, 
 C. Kelley, W. Kurlancheek, D. Liotard, E. Livshits, P. Manohar, 
 A. Marenich, D. Neuhauser, R. Olson, M. A. Rohrdanz, K. S. Thanthiriwatte, 
 A. J. W. Thom, V. Vanovschi, C. F. Williams, Q. Wu and Z.-Q. You. 


 Intel X86 Linux Version

 Q-chem begins on Mon Jul  8 17:01:12 2013  

 Parallel job on  1  processors
Processing $rem in /usr/local/qchem/config/preferences.

theFileMan(): MAXOPENFILES=974 MAX_SUB_FILE_NUM=16
Maximum size of a physical file is 2.0 GB, maximum size of a tmp-file is 32.0 GB


--------------------------------------------------------------
User input:
--------------------------------------------------------------

$molecule
1,2
C         -0.00239        0.00000        0.00366
C          0.00239        0.00000        1.52136
O          1.01667        0.00000       -0.61795
H         -1.00159        0.00000       -0.46287
O         -1.01667        0.00000        2.14296
H          1.00159        0.00000        1.98789
$end

$comment
positive
$end

$xc_functional
C PBE   1.00
X wPBE  1.00
$end

$rem
SYMMETRY_DECOMPOSITION	0
LRC_DFT                 true
exchange 		general
BASIS                   g3large
omega			420
mem_static              760
max_scf_cycles          200
scf_final_print         1
sym_ignore              true
$end

--------------------------------------------------------------
 Writing REM_CC_EA            6
 ----------------------------------------------------
       Standard Nuclear Orientation (Angstroms)
    I     Atom         X            Y            Z
 ----------------------------------------------------
    1      C      -0.002390     0.000000     0.003660
    2      C       0.002390     0.000000     1.521360
    3      O       1.016670     0.000000    -0.617950
    4      H      -1.001590     0.000000    -0.462870
    5      O      -1.016670     0.000000     2.142960
    6      H       1.001590     0.000000     1.987890
 ----------------------------------------------------
 Nuclear Repulsion Energy =   102.6576218305 hartrees
 There are       15 alpha and       14 beta electrons
 Requested basis set is G3large
 There are 52 shells and 188 basis functions

Total QAlloc Memory Limit   2000 MB
Mega-Array Size       743 MB
MEM_STATIC part       760 MB

                       Distance Matrix (Angstroms)
             C (  1)   C (  2)   O (  3)   H (  4)   O (  5)
   C (  2)  1.517708
   O (  3)  1.193684  2.367575
   H (  4)  1.102747  2.223768  2.024209
   O (  5)  2.367566  1.193679  3.428862  2.605874
   H (  6)  2.223768  1.102747  2.605884  3.165273  2.024209
 
 A cutoff of  1.0D-08 yielded   1239 shell pairs
 There are  16161 function pairs ( 20529 Cartesian)
Evaluating contribution to one-electron hamiltonian from nuclear
 Smallest overlap matrix eigenvalue = 1.78E-04
 Multipole matrices computed through 2nd order

  Scale SEOQF with 1.000000e-01/1.000000e-01/1.000000e-01

 Standard Electronic Orientation quadrupole field applied
 Nucleus-field energy     =    -0.0000000055 hartrees
 Guess from superposition of atomic densities
 Warning:  Energy on first SCF cycle will be non-variational
 Long-range K will be added via erf
 Coulomb attenuation parameter = 0.42 bohr**(-1)
 An unrestricted Kohn-Sham SCF calculation will be
 performed using Pulay DIIS extrapolation
 Exchange:  wPBE + LR-HF      Correlation:  PBE
 Using SG-1 standard quadrature grid
 SCF converges when DIIS error is below 1.0E-05
 Requested basis set is G3large
 There are 52 shells and 188 basis functions
 A cutoff of  1.0D-08 yielded   1239 shell pairs
 There are  16161 function pairs ( 20529 Cartesian)
 Warning!  Inaccurate integrated density:
   Number of electrons =    29
   Numerical integral  =    29.999861636644
   Relative error      =     3.4477987470 %
 ---------------------------------------
  Cycle       Energy         DIIS Error
 ---------------------------------------
    1    -228.7892757037      3.73E-02
    2    -227.1155945580      6.85E-03
    3    -226.9962993198      1.03E-02
    4    -227.3326565111      7.68E-04
    5    -227.3356802538      2.47E-04
    6    -227.3363743445      6.66E-05
    7    -227.3365146841      2.13E-05
    8    -227.3365486516      9.23E-06 Convergence criterion met
 ---------------------------------------
 One-Electron    Energy =  -504.6572830969
 Total Coulomb   Energy =   202.8117002865
 Alpha Exchange  Energy =    -3.1909079388
 Beta  Exchange  Energy =    -2.9398980484
 DFT   Exchange  Energy =   -21.0602391682
 DFT Correlation Energy =    -0.9575425108
 Nuclear Repu.   Energy =   102.6576218250
 Nuclear Attr.   Energy =  -731.3200912061
 Kinetic         Energy =   226.6628081093
 <S^2> = 0.7611
 SCF time:  CPU 86.36 s  wall 86.80 s
 Final Alpha MO Eigenvalues
            1           2           3           4           5           6
    1 -19.3440108 -19.3439305 -10.5352129 -10.5350588  -1.5558309  -1.5397102
            7           8           9          10          11          12
    1  -1.1704546  -1.0424778  -0.9510535  -0.9312903  -0.8913027  -0.8865057
           13          14          15          16          17          18
    1  -0.8285846  -0.7856723  -0.7119269  -0.3043875  -0.1590939  -0.1042563
           19          20
    1  -0.0998686  -0.0731931
 Final Beta MO Eigenvalues
            1           2           3           4           5           6
    1 -19.3346139 -19.3345325 -10.5346401 -10.5344895  -1.5402345  -1.5229669
            7           8           9          10          11          12
    1  -1.1466687  -1.0194697  -0.9207043  -0.9135409  -0.8808456  -0.8750150
           13          14          15          16          17          18
    1  -0.8195159  -0.6872049  -0.4018199  -0.2973946  -0.1578822  -0.1030677
           19
    1  -0.0964111
 Analysis of SCF Wavefunction
 
 --------------------------------------------------------------
                    Orbital Energies (a.u.)
 --------------------------------------------------------------
 
 Alpha MOs
 -- Occupied --
-19.344 -19.344 -10.535 -10.535  -1.556  -1.540  -1.170  -1.042
 -0.951  -0.931  -0.891  -0.887  -0.829  -0.786  -0.712
 -- Virtual --
 -0.304  -0.159  -0.104  -0.100  -0.073  -0.064  -0.047  -0.021
 -0.016  -0.002   0.007   0.038   0.040   0.051   0.069   0.089
  0.110   0.146   0.149   0.158   0.183   0.186   0.208   0.268
  0.276   0.346   0.364   0.374   0.393   0.420   0.440   0.450
  0.450   0.518   0.583   0.598   0.600   0.647   0.766   0.814
  0.839   0.858   0.869   0.913   0.928   0.931   0.949   0.962
  0.981   1.000   1.015   1.077   1.147   1.222   1.334   1.337
  1.353   1.437   1.528   1.538   1.573   1.592   1.732   1.819
  1.905   2.004   2.238   2.244   2.267   2.326   2.416   2.417
  2.468   2.532   2.630   2.675   2.694   2.695   2.802   2.826
  2.869   2.923   3.014   3.030   3.091   3.111   3.119   3.154
  3.210   3.290   3.318   3.422   3.436   3.454   3.572   3.610
  3.628   3.832   3.921   3.955   3.959   3.965   4.240   4.385
  4.405   4.746   4.747   4.750   4.799   4.828   4.844   4.853
  4.860   5.036   5.162   5.245   5.256   5.264   5.269   5.556
  5.627   6.040   6.061   6.261   6.541   6.550   6.567   6.568
  6.694   6.726   6.745   6.932   6.991   7.150   7.182   7.350
  7.419  24.148  24.272  26.863  26.983  27.329  27.832  27.881
 28.172  40.501  40.599  40.649  40.701  40.744  40.749  40.822
 40.827  40.973  40.982  43.347  43.369  43.390  43.399  43.501
 43.512  43.525  43.554  43.641  43.664  45.359  45.364  45.448
 45.484  46.187  46.223  49.704  49.738
 
 Beta MOs
 -- Occupied --
-19.335 -19.335 -10.535 -10.534  -1.540  -1.523  -1.147  -1.019
 -0.921  -0.914  -0.881  -0.875  -0.820  -0.687
 -- Virtual --
 -0.402  -0.297  -0.158  -0.103  -0.096  -0.072  -0.064  -0.044
 -0.019  -0.016  -0.002   0.014   0.040   0.044   0.058   0.072
  0.091   0.124   0.147   0.154   0.163   0.188   0.197   0.210
  0.273   0.281   0.358   0.366   0.375   0.399   0.425   0.444
  0.453   0.460   0.518   0.586   0.600   0.603   0.652   0.770
  0.822   0.848   0.860   0.876   0.919   0.936   0.938   0.960
  0.967   0.996   1.010   1.020   1.090   1.159   1.229   1.342
  1.345   1.363   1.456   1.543   1.550   1.591   1.607   1.735
  1.832   1.909   2.019   2.248   2.254   2.277   2.335   2.428
  2.428   2.467   2.535   2.644   2.683   2.695   2.700   2.808
  2.833   2.868   2.926   3.019   3.036   3.094   3.116   3.118
  3.163   3.211   3.302   3.320   3.424   3.442   3.460   3.580
  3.622   3.636   3.839   3.939   3.966   3.973   3.978   4.252
  4.403   4.424   4.756   4.764   4.781   4.824   4.852   4.873
  4.877   4.902   5.061   5.177   5.254   5.273   5.279   5.282
  5.579   5.650   6.045   6.066   6.284   6.566   6.591   6.608
  6.610   6.703   6.754   6.757   6.940   7.000   7.183   7.218
  7.365   7.433  24.148  24.274  26.863  26.983  27.334  27.832
 27.881  28.175  40.502  40.600  40.650  40.704  40.746  40.751
 40.822  40.826  40.975  40.983  43.370  43.390  43.414  43.424
 43.504  43.528  43.534  43.577  43.654  43.676  45.366  45.371
 45.474  45.511  46.194  46.229  49.714  49.747
 --------------------------------------------------------------
 
          Ground-State Mulliken Net Atomic Charges

     Atom                 Charge (a.u.)    Spin (a.u.)
  --------------------------------------------------------
      1 C                     0.181589       0.021211
      2 C                     0.181637       0.021213
      3 O                     0.081232       0.388092
      4 H                     0.237215       0.090723
      5 O                     0.081116       0.388044
      6 H                     0.237211       0.090717
  --------------------------------------------------------
  Sum of atomic charges =     1.000000
  Sum of spin   charges =     1.000000

 -----------------------------------------------------------------
                    Cartesian Multipole Moments
 -----------------------------------------------------------------
    Charge (ESU x 10^10)
                 4.8032
    Dipole Moment (Debye)
         X       0.0005      Y       0.0000      Z       3.6620
       Tot       3.6620
    Quadrupole Moments (Debye-Ang)
        XX     -17.9218     XY       0.0020     YY     -19.1339
        XZ       3.5517     YZ       0.0063     ZZ     -12.3765
    Octapole Moments (Debye-Ang^2)
       XXX       0.0005    XXY       0.0000    XYY       0.0000
       YYY       0.0000    XXZ     -13.6662    XYZ       0.0015
       YYZ     -14.5896    XZZ       5.4171    YZZ       0.0096
       ZZZ     -32.5707
    Hexadecapole Moments (Debye-Ang^3)
      XXXX     -80.2973   XXXY       0.0146   XXYY     -16.1084
      XYYY       0.0008   YYYY     -14.7575   XXXZ      42.0651
      XXYZ      -0.0046   XYYZ      11.9329   YYYZ       0.0035
      XXZZ     -47.6552   XYZZ      -0.0133   YYZZ     -40.9971
      XZZZ      49.1014   YZZZ       0.0472   ZZZZ    -212.8294
 -----------------------------------------------------------------
 Total job time:  87.01s(wall), 86.57s(cpu) 
 Mon Jul  8 17:02:39 2013

        *************************************************************
        *                                                           *
        *  Thank you very much for using Q-Chem.  Have a nice day.  *
        *                                                           *
        *************************************************************


0 sent ACK to 0 
now end server 0 ... 
