Process 0 of 1 is on cl198.stfx.acenet.ca - thread support 1
initial socket setup ...start
initial socket setup ...done 
now start server 0 ... 

cmd = /usr/bin/ssh clhead /usr/local/qchem/bin/get_hostid 1990515941 > /scratch/tmp/6027624.1.medium.q/qchem2105/lic.dat
                  Welcome to Q-Chem
     A Quantum Leap Into The Future Of Chemistry

 Y. Shao, L. Fusti-Molnar, Y. Jung, J. Kussmann, C. Ochsenfeld,
 S. T. Brown, A. T. B. Gilbert, L. V. Slipchenko,S. V. Levchenko,
 D. P. O'Neill, R. A. DiStasio Jr., R. C. Lochan, T. Wang,
 G. J. O. Beran, N. A. Besley, J. M. Herbert, C. Y. Lin,
 T. Van Voorhis, S. H. Chien, A. Sodt, R. P. Steele, 
 V. A. Rassolov, P. E. Maslen, P. P. Korambath, R. D. Adamson,
 B. Austin, J. Baker, E. F. C. Byrd, H. Dachsel, R. J. Doerksen,
 A. Dreuw, B. D. Dunietz, A. D. Dutoi, T. R. Furlani,
 S. R. Gwaltney, A. Heyden, S. Hirata, C.-P. Hsu, G. Kedziora,
 R. Z. Khaliullin, P. Klunzinger, A. M. Lee, M. S. Lee, W. Liang,
 I. Lotan, N. Nair, B. Peters, E. I. Proynov, P. A. Pieniazek, 
 Y. M. Rhee, J. Ritchie, E. Rosta, C. D. Sherrill, 
 A. C. Simmonett, J. E. Subotnik, H. L. Woodcock III,
 W. Zhang, A. T. Bell, A. K. Chakraborty, D. M. Chipman,
 F. J. Keil, A. Warshel, W. J. Hehre, H. F. Schaefer III,
 J. Kong, A. I. Krylov, P. M. W. Gill, M. Head-Gordon,
 Q-Chem, Version 3.1, Q-Chem, Inc., Pittsburgh, PA (2007).

 Additional authors for Version 3.1: 
 Z. Gan, Y. Zhao, N. E. Schultz, D. Truhlar, E. Epifanovsky and M. Oana.

 Additional authors for Version 3.2: 
 R. Baer, B. R. Brooks, D. Casanova, J.-D. Chai, C.-L. Cheng, 
 C. Cramer, D. Crittenden, A. Ghysels, G. Hawkins, E. G. Hohenstein, 
 C. Kelley, W. Kurlancheek, D. Liotard, E. Livshits, P. Manohar, 
 A. Marenich, D. Neuhauser, R. Olson, M. A. Rohrdanz, K. S. Thanthiriwatte, 
 A. J. W. Thom, V. Vanovschi, C. F. Williams, Q. Wu and Z.-Q. You. 


 Intel X86 Linux Version

 Q-chem begins on Mon Jun  3 17:03:41 2013  

 Parallel job on  1  processors
Processing $rem in /usr/local/qchem/config/preferences.

theFileMan(): MAXOPENFILES=974 MAX_SUB_FILE_NUM=16
Maximum size of a physical file is 2.0 GB, maximum size of a tmp-file is 32.0 GB


--------------------------------------------------------------
User input:
--------------------------------------------------------------

$molecule
-1,1
Si
X,1,1.
H,1,R,2,BETA
H,1,R,2,BETA,3,120.,0
H,1,R,2,BETA,3,-120.,0

 R=1.48898721
 BETA=108.02552928

$end

$comment
negative
$end

$xc_functional
   X HF 1.0
   X BNL 1.0
   C LYP 1.0
$end

$rem
SYMMETRY_DECOMPOSITION	0
exchange 		general
BASIS                   g3large
omega			70
separate_jk		true
mem_static              760
max_scf_cycles          200
scf_final_print         1
sym_ignore              true
$end

--------------------------------------------------------------
 Writing REM_CC_EA            4
 ----------------------------------------------------
       Standard Nuclear Orientation (Angstroms)
    I     Atom         X            Y            Z
 ----------------------------------------------------
    1      Si      0.000000     0.000000     0.000000
    2      H       1.415906     0.000000    -0.460753
    3      H      -0.707953    -1.226210    -0.460753
    4      H      -0.707953     1.226210    -0.460753
 ----------------------------------------------------
 Nuclear Repulsion Energy =    15.5738830141 hartrees
 There are        9 alpha and        9 beta electrons
 Requested basis set is G3large
 There are 37 shells and 96 basis functions

Total QAlloc Memory Limit   2000 MB
Mega-Array Size       743 MB
MEM_STATIC part       760 MB

                       Distance Matrix (Angstroms)
             Si(  1)   H (  2)   H (  3)
   H (  2)  1.488987
   H (  3)  1.488987  2.452421
   H (  4)  1.488987  2.452421  2.452421
 
 A cutoff of  1.0D-08 yielded    703 shell pairs
 There are   4798 function pairs (  6229 Cartesian)
Evaluating contribution to one-electron hamiltonian from nuclear
 Smallest overlap matrix eigenvalue = 1.72E-03
 Multipole matrices computed through 2nd order

  Scale SEOQF with 1.000000e-01/1.000000e-01/1.000000e-01

 Standard Electronic Orientation quadrupole field applied
 Nucleus-field energy     =     0.0000000003 hartrees
 Guess from superposition of atomic densities
 Warning:  Energy on first SCF cycle will be non-variational
 A restricted hybrid HF-DFT SCF calculation will be
 performed using Pulay DIIS extrapolation
 Exchange:     1.0000 Hartree-Fock + 1.0000 BNL
 Correlation:  1.0000 LYP
 Using SG-1 standard quadrature grid
 SCF converges when DIIS error is below 1.0E-05
 Warning!  Inaccurate integrated density:
   Number of electrons =    18
   Numerical integral  =    16.999930810780
   Relative error      =    -5.5559399401 %
 ---------------------------------------
  Cycle       Energy         DIIS Error
 ---------------------------------------
    1    -289.3570087832      2.79E-02
    2    -289.4393392570      4.88E-03
    3    -289.4565305607      5.45E-03
    4    -289.5075919502      5.47E-04
    5    -289.5078594634      1.11E-04
    6    -289.5078841418      5.11E-05
    7    -289.5078900024      1.89E-05
    8    -289.5078906901      2.36E-06 Convergence criterion met
 ---------------------------------------
 One-Electron    Energy =  -437.5309196005
 Total Coulomb   Energy =   152.7390468972
 Alpha Exchange  Energy =    -0.3523990764
 Beta  Exchange  Energy =    -0.3523990764
 DFT   Exchange  Energy =   -18.9400991767
 DFT Correlation Energy =    -0.6450036715
 Nuclear Repu.   Energy =    15.5738830143
 Nuclear Attr.   Energy =  -726.6940128588
 Kinetic         Energy =   289.1630932583
 SCF time:  CPU 14.89 s  wall 15.33 s
 Final Alpha MO Eigenvalues
            1           2           3           4           5           6
    1 -64.8642832  -4.7912115  -3.2317594  -3.2317333  -3.2297752  -0.2834602
            7           8           9          10          11          12
    1  -0.1261020  -0.1260931   0.0263941   0.1594574   0.1841146   0.1841176
           13          14
    1   0.1975795   0.1975922
 Analysis of SCF Wavefunction
 
 --------------------------------------------------------------
                    Orbital Energies (a.u.)
 --------------------------------------------------------------
 
 Alpha MOs
 -- Occupied --
-64.864  -4.791  -3.232  -3.232  -3.230  -0.283  -0.126  -0.126
  0.026
 -- Virtual --
  0.159   0.184   0.184   0.198   0.198   0.201   0.235   0.291
  0.291   0.300   0.351   0.351   0.421   0.447   0.447   0.480
  0.509   0.509   0.574   0.643   0.667   0.667   0.678   0.678
  0.694   0.718   0.881   0.881   0.903   0.904   0.910   1.000
  1.000   1.036   1.230   1.274   1.281   1.281   1.320   1.320
  1.434   1.484   1.484   1.516   1.686   1.686   2.308   2.309
  2.315   2.315   2.382   2.382   2.487   2.972   2.972   3.098
  3.685   3.686   3.783   3.946   3.948   4.180   4.183   4.183
  4.249   4.249   4.250   4.505   4.629   4.630   6.043  11.412
 11.491  11.491  17.619  17.654  17.736  17.887  17.986  22.308
 22.311  22.319  22.323  22.338  22.340  22.360 141.320
 --------------------------------------------------------------
 
          Ground-State Mulliken Net Atomic Charges

     Atom                 Charge (a.u.)
  ----------------------------------------
      1 Si                   -0.703469
      2 H                    -0.098684
      3 H                    -0.098940
      4 H                    -0.098908
  ----------------------------------------
  Sum of atomic charges =    -1.000000

 -----------------------------------------------------------------
                    Cartesian Multipole Moments
 -----------------------------------------------------------------
    Charge (ESU x 10^10)
                -4.8032
    Dipole Moment (Debye)
         X      -0.0009      Y       0.0003      Z      -0.6448
       Tot       0.6448
    Quadrupole Moments (Debye-Ang)
        XX     -24.3302     XY       0.0000     YY     -24.3298
        XZ      -0.0015     YZ      -0.0003     ZZ     -33.5590
    Octapole Moments (Debye-Ang^2)
       XXX      -1.7116    XXY       0.0000    XYY       1.7066
       YYY      -0.0001    XXZ       1.3355    XYZ      -0.0004
       YYZ       1.3347    XZZ      -0.0037    YZZ      -0.0005
       ZZZ      -0.4278
    Hexadecapole Moments (Debye-Ang^3)
      XXXX     -88.2522   XXXY       0.0004   XXYY     -29.4178
      XYYY       0.0001   YYYY     -88.2505   XXXZ       0.8809
      XXYZ      -0.0005   XYYZ      -0.8965   YYYZ      -0.0016
      XXZZ     -43.6147   XYZZ       0.0002   YYZZ     -43.6123
      XZZZ      -0.0100   YZZZ      -0.0017   ZZZZ    -167.6288
 -----------------------------------------------------------------
 Total job time:  15.45s(wall), 14.99s(cpu) 
 Mon Jun  3 17:03:56 2013

        *************************************************************
        *                                                           *
        *  Thank you very much for using Q-Chem.  Have a nice day.  *
        *                                                           *
        *************************************************************


0 sent ACK to 0 
now end server 0 ... 
 
**********************************************************************
Job 2 of 3 
**********************************************************************
 
Process 0 of 1 is on cl198.stfx.acenet.ca - thread support 1
initial socket setup ...start
initial socket setup ...done 
now start server 0 ... 

cmd = /usr/bin/ssh clhead /usr/local/qchem/bin/get_hostid 1877589781 > /scratch/tmp/6027624.1.medium.q/qchem2105/lic.dat
                  Welcome to Q-Chem
     A Quantum Leap Into The Future Of Chemistry

 Y. Shao, L. Fusti-Molnar, Y. Jung, J. Kussmann, C. Ochsenfeld,
 S. T. Brown, A. T. B. Gilbert, L. V. Slipchenko,S. V. Levchenko,
 D. P. O'Neill, R. A. DiStasio Jr., R. C. Lochan, T. Wang,
 G. J. O. Beran, N. A. Besley, J. M. Herbert, C. Y. Lin,
 T. Van Voorhis, S. H. Chien, A. Sodt, R. P. Steele, 
 V. A. Rassolov, P. E. Maslen, P. P. Korambath, R. D. Adamson,
 B. Austin, J. Baker, E. F. C. Byrd, H. Dachsel, R. J. Doerksen,
 A. Dreuw, B. D. Dunietz, A. D. Dutoi, T. R. Furlani,
 S. R. Gwaltney, A. Heyden, S. Hirata, C.-P. Hsu, G. Kedziora,
 R. Z. Khaliullin, P. Klunzinger, A. M. Lee, M. S. Lee, W. Liang,
 I. Lotan, N. Nair, B. Peters, E. I. Proynov, P. A. Pieniazek, 
 Y. M. Rhee, J. Ritchie, E. Rosta, C. D. Sherrill, 
 A. C. Simmonett, J. E. Subotnik, H. L. Woodcock III,
 W. Zhang, A. T. Bell, A. K. Chakraborty, D. M. Chipman,
 F. J. Keil, A. Warshel, W. J. Hehre, H. F. Schaefer III,
 J. Kong, A. I. Krylov, P. M. W. Gill, M. Head-Gordon,
 Q-Chem, Version 3.1, Q-Chem, Inc., Pittsburgh, PA (2007).

 Additional authors for Version 3.1: 
 Z. Gan, Y. Zhao, N. E. Schultz, D. Truhlar, E. Epifanovsky and M. Oana.

 Additional authors for Version 3.2: 
 R. Baer, B. R. Brooks, D. Casanova, J.-D. Chai, C.-L. Cheng, 
 C. Cramer, D. Crittenden, A. Ghysels, G. Hawkins, E. G. Hohenstein, 
 C. Kelley, W. Kurlancheek, D. Liotard, E. Livshits, P. Manohar, 
 A. Marenich, D. Neuhauser, R. Olson, M. A. Rohrdanz, K. S. Thanthiriwatte, 
 A. J. W. Thom, V. Vanovschi, C. F. Williams, Q. Wu and Z.-Q. You. 


 Intel X86 Linux Version

 Q-chem begins on Mon Jun  3 17:03:59 2013  

 Parallel job on  1  processors
Processing $rem in /usr/local/qchem/config/preferences.

theFileMan(): MAXOPENFILES=974 MAX_SUB_FILE_NUM=16
Maximum size of a physical file is 2.0 GB, maximum size of a tmp-file is 32.0 GB


--------------------------------------------------------------
User input:
--------------------------------------------------------------

$molecule
0,2
Si
X,1,1.
H,1,R,2,BETA
H,1,R,2,BETA,3,120.,0
H,1,R,2,BETA,3,-120.,0

 R=1.48898721
 BETA=108.02552928

$end

$comment
neutral
$end

$xc_functional
   X HF 1.0
   X BNL 1.0
   C LYP 1.0
$end

$rem
SYMMETRY_DECOMPOSITION	0
exchange 		general
BASIS                   g3large
omega			70
separate_jk		true
mem_static              760
max_scf_cycles          200
scf_final_print         1
sym_ignore              true
$end

--------------------------------------------------------------
 Writing REM_CC_EA            4
 ----------------------------------------------------
       Standard Nuclear Orientation (Angstroms)
    I     Atom         X            Y            Z
 ----------------------------------------------------
    1      Si      0.000000     0.000000     0.000000
    2      H       1.415906     0.000000    -0.460753
    3      H      -0.707953    -1.226210    -0.460753
    4      H      -0.707953     1.226210    -0.460753
 ----------------------------------------------------
 Nuclear Repulsion Energy =    15.5738830141 hartrees
 There are        9 alpha and        8 beta electrons
 Requested basis set is G3large
 There are 37 shells and 96 basis functions

Total QAlloc Memory Limit   2000 MB
Mega-Array Size       743 MB
MEM_STATIC part       760 MB

                       Distance Matrix (Angstroms)
             Si(  1)   H (  2)   H (  3)
   H (  2)  1.488987
   H (  3)  1.488987  2.452421
   H (  4)  1.488987  2.452421  2.452421
 
 A cutoff of  1.0D-08 yielded    703 shell pairs
 There are   4798 function pairs (  6229 Cartesian)
Evaluating contribution to one-electron hamiltonian from nuclear
 Smallest overlap matrix eigenvalue = 1.72E-03
 Multipole matrices computed through 2nd order

  Scale SEOQF with 1.000000e-01/1.000000e-01/1.000000e-01

 Standard Electronic Orientation quadrupole field applied
 Nucleus-field energy     =     0.0000000003 hartrees
 Guess from superposition of atomic densities
 Warning:  Energy on first SCF cycle will be non-variational
 An unrestricted hybrid HF-DFT SCF calculation will be
 performed using Pulay DIIS extrapolation
 Exchange:     1.0000 Hartree-Fock + 1.0000 BNL
 Correlation:  1.0000 LYP
 Using SG-1 standard quadrature grid
 SCF converges when DIIS error is below 1.0E-05
 ---------------------------------------
  Cycle       Energy         DIIS Error
 ---------------------------------------
    1    -289.3570087832      2.79E-02
    2    -289.4654938266      2.32E-03
    3    -289.4736055192      9.83E-04
    4    -289.4752439540      2.21E-04
    5    -289.4753084360      2.27E-05
    6    -289.4753109401      6.18E-06 Convergence criterion met
 ---------------------------------------
 One-Electron    Energy =  -433.4854184424
 Total Coulomb   Energy =   148.5665702059
 Alpha Exchange  Energy =    -0.3531940483
 Beta  Exchange  Energy =    -0.3144302586
 DFT   Exchange  Energy =   -18.8456956152
 DFT Correlation Energy =    -0.6170257959
 Nuclear Repu.   Energy =    15.5738830143
 Nuclear Attr.   Energy =  -722.5704815924
 Kinetic         Energy =   289.0850631500
 <S^2> = 0.7512
 SCF time:  CPU 13.29 s  wall 13.54 s
 Final Alpha MO Eigenvalues
            1           2           3           4           5           6
    1 -65.1139485  -5.0402304  -3.4841039  -3.4788833  -3.4788576  -0.5161569
            7           8           9          10          11          12
    1  -0.3450645  -0.3450493  -0.2185179   0.0172941   0.0340733   0.0340792
           13          14
    1   0.0606748   0.0606759
 Final Beta MO Eigenvalues
            1           2           3           4           5           6
    1 -65.1105554  -5.0364519  -3.4761121  -3.4760851  -3.4758317  -0.5009943
            7           8           9          10          11          12
    1  -0.3373285  -0.3373169  -0.0996568   0.0202339   0.0414264   0.0414324
           13
    1   0.0616850
 Analysis of SCF Wavefunction
 
 --------------------------------------------------------------
                    Orbital Energies (a.u.)
 --------------------------------------------------------------
 
 Alpha MOs
 -- Occupied --
-65.114  -5.040  -3.484  -3.479  -3.479  -0.516  -0.345  -0.345
 -0.219
 -- Virtual --
  0.017   0.034   0.034   0.061   0.061   0.064   0.074   0.126
  0.126   0.131   0.139   0.139   0.231   0.272   0.272   0.290
  0.338   0.338   0.380   0.443   0.463   0.463   0.467   0.467
  0.482   0.522   0.676   0.676   0.678   0.678   0.692   0.792
  0.792   0.814   1.028   1.060   1.069   1.069   1.113   1.113
  1.199   1.259   1.259   1.305   1.474   1.474   2.056   2.061
  2.061   2.073   2.135   2.135   2.254   2.756   2.756   2.882
  3.437   3.438   3.531   3.716   3.718   3.963   3.968   3.968
  4.034   4.034   4.035   4.285   4.401   4.402   5.799  11.158
 11.246  11.246  17.365  17.406  17.486  17.638  17.739  22.058
 22.064  22.069  22.075  22.089  22.091  22.113 141.070
 
 Beta MOs
 -- Occupied --
-65.111  -5.036  -3.476  -3.476  -3.476  -0.501  -0.337  -0.337
 -- Virtual --
 -0.100   0.020   0.041   0.041   0.062   0.062   0.070   0.083
  0.129   0.129   0.136   0.157   0.157   0.249   0.277   0.277
  0.308   0.344   0.344   0.387   0.448   0.478   0.478   0.486
  0.486   0.501   0.533   0.691   0.691   0.695   0.695   0.713
  0.801   0.801   0.835   1.034   1.072   1.081   1.081   1.119
  1.119   1.224   1.270   1.271   1.316   1.483   1.483   2.083
  2.086   2.092   2.092   2.161   2.161   2.268   2.764   2.764
  2.889   3.447   3.448   3.548   3.723   3.725   3.970   3.974
  3.974   4.039   4.039   4.040   4.293   4.409   4.410   5.807
 11.171  11.249  11.249  17.374  17.410  17.492  17.643  17.743
 22.062  22.066  22.072  22.078  22.092  22.094  22.115 141.074
 --------------------------------------------------------------
 
          Ground-State Mulliken Net Atomic Charges

     Atom                 Charge (a.u.)    Spin (a.u.)
  --------------------------------------------------------
      1 Si                   -0.031397       0.941744
      2 H                     0.010539       0.019330
      3 H                     0.010438       0.019512
      4 H                     0.010421       0.019414
  --------------------------------------------------------
  Sum of atomic charges =     0.000000
  Sum of spin   charges =     1.000000

 -----------------------------------------------------------------
                    Cartesian Multipole Moments
 -----------------------------------------------------------------
    Charge (ESU x 10^10)
                 0.0000
    Dipole Moment (Debye)
         X       0.0000      Y      -0.0003      Z       0.0169
       Tot       0.0169
    Quadrupole Moments (Debye-Ang)
        XX     -16.1604     XY       0.0001     YY     -16.1605
        XZ       0.0004     YZ       0.0002     ZZ     -16.9591
    Octapole Moments (Debye-Ang^2)
       XXX      -0.2591    XXY      -0.0002    XYY       0.2587
       YYY      -0.0006    XXZ       1.4488    XYZ      -0.0002
       YYZ       1.4487    XZZ       0.0000    YZZ      -0.0005
       ZZZ       3.3522
    Hexadecapole Moments (Debye-Ang^3)
      XXXX     -45.8064   XXXY       0.0003   XXYY     -15.2689
      XYYY       0.0004   YYYY     -45.8068   XXXZ      -0.3983
      XXYZ       0.0002   XYYZ       0.3990   YYYZ       0.0005
      XXZZ     -14.0674   XYZZ       0.0001   YYZZ     -14.0673
      XZZZ       0.0010   YZZZ       0.0003   ZZZZ     -37.5989
 -----------------------------------------------------------------
 Total job time:  13.65s(wall), 13.39s(cpu) 
 Mon Jun  3 17:04:12 2013

        *************************************************************
        *                                                           *
        *  Thank you very much for using Q-Chem.  Have a nice day.  *
        *                                                           *
        *************************************************************


0 sent ACK to 0 
now end server 0 ... 
 
**********************************************************************
Job 3 of 3 
**********************************************************************
 
Process 0 of 1 is on cl198.stfx.acenet.ca - thread support 1
initial socket setup ...start
initial socket setup ...done 
now start server 0 ... 

cmd = /usr/bin/ssh clhead /usr/local/qchem/bin/get_hostid 1013647945 > /scratch/tmp/6027624.1.medium.q/qchem2105/lic.dat
                  Welcome to Q-Chem
     A Quantum Leap Into The Future Of Chemistry

 Y. Shao, L. Fusti-Molnar, Y. Jung, J. Kussmann, C. Ochsenfeld,
 S. T. Brown, A. T. B. Gilbert, L. V. Slipchenko,S. V. Levchenko,
 D. P. O'Neill, R. A. DiStasio Jr., R. C. Lochan, T. Wang,
 G. J. O. Beran, N. A. Besley, J. M. Herbert, C. Y. Lin,
 T. Van Voorhis, S. H. Chien, A. Sodt, R. P. Steele, 
 V. A. Rassolov, P. E. Maslen, P. P. Korambath, R. D. Adamson,
 B. Austin, J. Baker, E. F. C. Byrd, H. Dachsel, R. J. Doerksen,
 A. Dreuw, B. D. Dunietz, A. D. Dutoi, T. R. Furlani,
 S. R. Gwaltney, A. Heyden, S. Hirata, C.-P. Hsu, G. Kedziora,
 R. Z. Khaliullin, P. Klunzinger, A. M. Lee, M. S. Lee, W. Liang,
 I. Lotan, N. Nair, B. Peters, E. I. Proynov, P. A. Pieniazek, 
 Y. M. Rhee, J. Ritchie, E. Rosta, C. D. Sherrill, 
 A. C. Simmonett, J. E. Subotnik, H. L. Woodcock III,
 W. Zhang, A. T. Bell, A. K. Chakraborty, D. M. Chipman,
 F. J. Keil, A. Warshel, W. J. Hehre, H. F. Schaefer III,
 J. Kong, A. I. Krylov, P. M. W. Gill, M. Head-Gordon,
 Q-Chem, Version 3.1, Q-Chem, Inc., Pittsburgh, PA (2007).

 Additional authors for Version 3.1: 
 Z. Gan, Y. Zhao, N. E. Schultz, D. Truhlar, E. Epifanovsky and M. Oana.

 Additional authors for Version 3.2: 
 R. Baer, B. R. Brooks, D. Casanova, J.-D. Chai, C.-L. Cheng, 
 C. Cramer, D. Crittenden, A. Ghysels, G. Hawkins, E. G. Hohenstein, 
 C. Kelley, W. Kurlancheek, D. Liotard, E. Livshits, P. Manohar, 
 A. Marenich, D. Neuhauser, R. Olson, M. A. Rohrdanz, K. S. Thanthiriwatte, 
 A. J. W. Thom, V. Vanovschi, C. F. Williams, Q. Wu and Z.-Q. You. 


 Intel X86 Linux Version

 Q-chem begins on Mon Jun  3 17:04:15 2013  

 Parallel job on  1  processors
Processing $rem in /usr/local/qchem/config/preferences.

theFileMan(): MAXOPENFILES=974 MAX_SUB_FILE_NUM=16
Maximum size of a physical file is 2.0 GB, maximum size of a tmp-file is 32.0 GB


--------------------------------------------------------------
User input:
--------------------------------------------------------------

$molecule
1,1
Si
X,1,1.
H,1,R,2,BETA
H,1,R,2,BETA,3,120.,0
H,1,R,2,BETA,3,-120.,0

 R=1.48898721
 BETA=108.02552928

$end

$comment
positive
$end

$xc_functional
   X HF 1.0
   X BNL 1.0
   C LYP 1.0
$end

$rem
SYMMETRY_DECOMPOSITION	0
exchange 		general
BASIS                   g3large
omega			70
separate_jk		true
mem_static              760
max_scf_cycles          200
scf_final_print         1
sym_ignore              true
$end

--------------------------------------------------------------
 Writing REM_CC_EA            4
 ----------------------------------------------------
       Standard Nuclear Orientation (Angstroms)
    I     Atom         X            Y            Z
 ----------------------------------------------------
    1      Si      0.000000     0.000000     0.000000
    2      H       1.415906     0.000000    -0.460753
    3      H      -0.707953    -1.226210    -0.460753
    4      H      -0.707953     1.226210    -0.460753
 ----------------------------------------------------
 Nuclear Repulsion Energy =    15.5738830141 hartrees
 There are        8 alpha and        8 beta electrons
 Requested basis set is G3large
 There are 37 shells and 96 basis functions

Total QAlloc Memory Limit   2000 MB
Mega-Array Size       743 MB
MEM_STATIC part       760 MB

                       Distance Matrix (Angstroms)
             Si(  1)   H (  2)   H (  3)
   H (  2)  1.488987
   H (  3)  1.488987  2.452421
   H (  4)  1.488987  2.452421  2.452421
 
 A cutoff of  1.0D-08 yielded    703 shell pairs
 There are   4798 function pairs (  6229 Cartesian)
Evaluating contribution to one-electron hamiltonian from nuclear
 Smallest overlap matrix eigenvalue = 1.72E-03
 Multipole matrices computed through 2nd order

  Scale SEOQF with 1.000000e-01/1.000000e-01/1.000000e-01

 Standard Electronic Orientation quadrupole field applied
 Nucleus-field energy     =     0.0000000003 hartrees
 Guess from superposition of atomic densities
 Warning:  Energy on first SCF cycle will be non-variational
 A restricted hybrid HF-DFT SCF calculation will be
 performed using Pulay DIIS extrapolation
 Exchange:     1.0000 Hartree-Fock + 1.0000 BNL
 Correlation:  1.0000 LYP
 Using SG-1 standard quadrature grid
 SCF converges when DIIS error is below 1.0E-05
 Warning!  Inaccurate integrated density:
   Number of electrons =    16
   Numerical integral  =    16.999930810780
   Relative error      =     6.2495675674 %
 ---------------------------------------
  Cycle       Energy         DIIS Error
 ---------------------------------------
    1    -289.3570087832      2.79E-02
    2    -289.1349469902      4.14E-03
    3    -289.1485831948      3.48E-03
    4    -289.1614531091      2.29E-04
    5    -289.1615159522      7.91E-05
    6    -289.1615235505      1.88E-05
    7    -289.1615236126      3.74E-06 Convergence criterion met
 ---------------------------------------
 One-Electron    Energy =  -428.2507461904
 Total Coulomb   Energy =   143.3961672613
 Alpha Exchange  Energy =    -0.3145083155
 Beta  Exchange  Energy =    -0.3145083155
 DFT   Exchange  Energy =   -18.6531112704
 DFT Correlation Energy =    -0.5986997964
 Nuclear Repu.   Energy =    15.5738830143
 Nuclear Attr.   Energy =  -717.0363682038
 Kinetic         Energy =   288.7856220134
 SCF time:  CPU 13.00 s  wall 13.34 s
 Final Alpha MO Eigenvalues
            1           2           3           4           5           6
    1 -65.4483990  -5.3694739  -3.8181470  -3.8054566  -3.8054301  -0.7920541
            7           8           9          10          11          12
    1  -0.6083921  -0.6083879  -0.4088015  -0.1944948  -0.1944846  -0.1815555
           13
    1  -0.1256535
 Analysis of SCF Wavefunction
 
 --------------------------------------------------------------
                    Orbital Energies (a.u.)
 --------------------------------------------------------------
 
 Alpha MOs
 -- Occupied --
-65.448  -5.369  -3.818  -3.805  -3.805  -0.792  -0.608  -0.608
 -- Virtual --
 -0.409  -0.194  -0.194  -0.182  -0.126  -0.096  -0.096  -0.090
 -0.090  -0.081  -0.021  -0.020  -0.020   0.035   0.084   0.084
  0.100   0.146   0.146   0.168   0.214   0.237   0.237   0.254
  0.254   0.257   0.310   0.417   0.417   0.450   0.457   0.457
  0.551   0.552   0.578   0.798   0.821   0.832   0.832   0.875
  0.875   0.936   0.997   0.997   1.065   1.227   1.228   1.768
  1.774   1.774   1.788   1.852   1.852   1.977   2.501   2.501
  2.623   3.123   3.125   3.218   3.430   3.432   3.706   3.711
  3.711   3.776   3.777   3.777   4.021   4.125   4.126   5.487
 10.832  10.922  10.923  17.035  17.079  17.158  17.310  17.413
 21.726  21.733  21.736  21.749  21.760  21.761  21.787 140.738
 --------------------------------------------------------------
 
          Ground-State Mulliken Net Atomic Charges

     Atom                 Charge (a.u.)
  ----------------------------------------
      1 Si                    0.570768
      2 H                     0.143100
      3 H                     0.143063
      4 H                     0.143069
  ----------------------------------------
  Sum of atomic charges =     1.000000

 -----------------------------------------------------------------
                    Cartesian Multipole Moments
 -----------------------------------------------------------------
    Charge (ESU x 10^10)
                 4.8032
    Dipole Moment (Debye)
         X       0.0000      Y       0.0000      Z       0.4612
       Tot       0.4612
    Quadrupole Moments (Debye-Ang)
        XX     -11.0140     XY       0.0001     YY     -11.0140
        XZ       0.0001     YZ       0.0002     ZZ      -9.3384
    Octapole Moments (Debye-Ang^2)
       XXX       1.3870    XXY       0.0000    XYY      -1.3872
       YYY      -0.0001    XXZ       0.3482    XYZ       0.0000
       YYZ       0.3483    XZZ       0.0000    YZZ       0.0000
       ZZZ       4.6066
    Hexadecapole Moments (Debye-Ang^3)
      XXXX     -28.0898   XXXY       0.0002   XXYY      -9.3635
      XYYY       0.0002   YYYY     -28.0903   XXXZ      -1.3867
      XXYZ       0.0001   XYYZ       1.3869   YYYZ       0.0003
      XXZZ      -6.8872   XYZZ       0.0000   YYZZ      -6.8873
      XZZZ       0.0002   YZZZ       0.0003   ZZZZ     -12.9141
 -----------------------------------------------------------------
 Total job time:  13.44s(wall), 13.09s(cpu) 
 Mon Jun  3 17:04:28 2013

        *************************************************************
        *                                                           *
        *  Thank you very much for using Q-Chem.  Have a nice day.  *
        *                                                           *
        *************************************************************


0 sent ACK to 0 
now end server 0 ... 
