Process 0 of 1 is on cl248.stfx.acenet.ca - thread support 1
initial socket setup ...start
initial socket setup ...done 
now start server 0 ... 

cmd = /usr/bin/ssh clhead /usr/local/qchem/bin/get_hostid 1636427301 > /scratch/tmp/6063765.1.long.q/qchem19614/lic.dat
                  Welcome to Q-Chem
     A Quantum Leap Into The Future Of Chemistry

 Y. Shao, L. Fusti-Molnar, Y. Jung, J. Kussmann, C. Ochsenfeld,
 S. T. Brown, A. T. B. Gilbert, L. V. Slipchenko,S. V. Levchenko,
 D. P. O'Neill, R. A. DiStasio Jr., R. C. Lochan, T. Wang,
 G. J. O. Beran, N. A. Besley, J. M. Herbert, C. Y. Lin,
 T. Van Voorhis, S. H. Chien, A. Sodt, R. P. Steele, 
 V. A. Rassolov, P. E. Maslen, P. P. Korambath, R. D. Adamson,
 B. Austin, J. Baker, E. F. C. Byrd, H. Dachsel, R. J. Doerksen,
 A. Dreuw, B. D. Dunietz, A. D. Dutoi, T. R. Furlani,
 S. R. Gwaltney, A. Heyden, S. Hirata, C.-P. Hsu, G. Kedziora,
 R. Z. Khaliullin, P. Klunzinger, A. M. Lee, M. S. Lee, W. Liang,
 I. Lotan, N. Nair, B. Peters, E. I. Proynov, P. A. Pieniazek, 
 Y. M. Rhee, J. Ritchie, E. Rosta, C. D. Sherrill, 
 A. C. Simmonett, J. E. Subotnik, H. L. Woodcock III,
 W. Zhang, A. T. Bell, A. K. Chakraborty, D. M. Chipman,
 F. J. Keil, A. Warshel, W. J. Hehre, H. F. Schaefer III,
 J. Kong, A. I. Krylov, P. M. W. Gill, M. Head-Gordon,
 Q-Chem, Version 3.1, Q-Chem, Inc., Pittsburgh, PA (2007).

 Additional authors for Version 3.1: 
 Z. Gan, Y. Zhao, N. E. Schultz, D. Truhlar, E. Epifanovsky and M. Oana.

 Additional authors for Version 3.2: 
 R. Baer, B. R. Brooks, D. Casanova, J.-D. Chai, C.-L. Cheng, 
 C. Cramer, D. Crittenden, A. Ghysels, G. Hawkins, E. G. Hohenstein, 
 C. Kelley, W. Kurlancheek, D. Liotard, E. Livshits, P. Manohar, 
 A. Marenich, D. Neuhauser, R. Olson, M. A. Rohrdanz, K. S. Thanthiriwatte, 
 A. J. W. Thom, V. Vanovschi, C. F. Williams, Q. Wu and Z.-Q. You. 


 Intel X86 Linux Version

 Q-chem begins on Sun Jul  7 08:41:34 2013  

 Parallel job on  1  processors
Processing $rem in /usr/local/qchem/config/preferences.

theFileMan(): MAXOPENFILES=974 MAX_SUB_FILE_NUM=16
Maximum size of a physical file is 2.0 GB, maximum size of a tmp-file is 32.0 GB


--------------------------------------------------------------
User input:
--------------------------------------------------------------

$molecule
-1,1
C          0.00034        0.00000       -0.00234
C          0.00795        0.00000        1.30335
H          0.93102        0.00000       -0.58577
H         -0.92815        0.00000       -0.57958
H          0.72652        0.00000        2.11724
$end

$comment
negative
$end

$xc_functional
C PBE   1.00
X wPBE  1.00
$end

$rem
SYMMETRY_DECOMPOSITION	0
exchange 		general
LRC_DFT                 true
BASIS                   g3large
omega			600
mem_static              760
max_scf_cycles          200
scf_final_print         1
sym_ignore              true
$end

--------------------------------------------------------------
 Writing REM_CC_EA            5
 ----------------------------------------------------
       Standard Nuclear Orientation (Angstroms)
    I     Atom         X            Y            Z
 ----------------------------------------------------
    1      C       0.000340     0.000000    -0.002340
    2      C       0.007950     0.000000     1.303350
    3      H       0.931020     0.000000    -0.585770
    4      H      -0.928150     0.000000    -0.579580
    5      H       0.726520     0.000000     2.117240
 ----------------------------------------------------
 Nuclear Repulsion Energy =    28.3933182935 hartrees
 There are        8 alpha and        8 beta electrons
 Requested basis set is G3large
 There are 38 shells and 114 basis functions

Total QAlloc Memory Limit   2000 MB
Mega-Array Size       743 MB
MEM_STATIC part       760 MB

                       Distance Matrix (Angstroms)
             C (  1)   C (  2)   H (  3)   H (  4)
   C (  2)  1.305712
   H (  3)  1.098433  2.102578
   H (  4)  1.093298  2.102786  1.859180
   H (  5)  2.240526  1.085707  2.710735  3.163980
 
 A cutoff of  1.0D-08 yielded    732 shell pairs
 There are   6640 function pairs (  8147 Cartesian)
Evaluating contribution to one-electron hamiltonian from nuclear
 Smallest overlap matrix eigenvalue = 1.16E-04
 Multipole matrices computed through 2nd order

  Scale SEOQF with 1.000000e-01/1.000000e-01/1.000000e-01

 Standard Electronic Orientation quadrupole field applied
 Nucleus-field energy     =    -0.0000000016 hartrees
 Guess from superposition of atomic densities
 Warning:  Energy on first SCF cycle will be non-variational
 Long-range K will be added via erf
 Coulomb attenuation parameter = 0.6 bohr**(-1)
 A restricted Kohn-Sham SCF calculation will be
 performed using Pulay DIIS extrapolation
 Exchange:  wPBE + LR-HF      Correlation:  PBE
 Using SG-1 standard quadrature grid
 SCF converges when DIIS error is below 1.0E-05
 Requested basis set is G3large
 There are 38 shells and 114 basis functions
 A cutoff of  1.0D-08 yielded    732 shell pairs
 There are   6640 function pairs (  8147 Cartesian)
 Warning!  Inaccurate integrated density:
   Number of electrons =    16
   Numerical integral  =    14.999948730966
   Relative error      =    -6.2503204315 %
 ---------------------------------------
  Cycle       Energy         DIIS Error
 ---------------------------------------
    1     -78.1874120497      3.73E-02
    2     -77.7435574773      6.93E-03
    3     -77.8173981629      4.69E-03
    4     -77.8558603425      6.35E-04
    5     -77.8592199551      3.86E-04
    6     -77.8603498354      2.16E-04
    7     -77.8610950361      9.40E-05
    8     -77.8612782513      2.23E-05
    9     -77.8612868141      7.02E-06 Convergence criterion met
 ---------------------------------------
 One-Electron    Energy =  -163.7779318866
 Total Coulomb   Energy =    69.5661134713
 Alpha Exchange  Energy =    -2.0694793801
 Beta  Exchange  Energy =    -2.0694793801
 DFT   Exchange  Energy =    -7.4144344064
 DFT Correlation Energy =    -0.4893935241
 Nuclear Repu.   Energy =    28.3933182919
 Nuclear Attr.   Energy =  -241.3609228146
 Kinetic         Energy =    77.5829909280
 SCF time:  CPU 23.00 s  wall 23.42 s
 Final Alpha MO Eigenvalues
            1           2           3           4           5           6
    1  -9.9645591  -9.9260418  -0.7079332  -0.4867384  -0.3599657  -0.3243270
            7           8           9          10          11          12
    1  -0.1567216  -0.0402792   0.1782081   0.1838418   0.1888764   0.2717729
           13
    1   0.2828261
 Analysis of SCF Wavefunction
 
 --------------------------------------------------------------
                    Orbital Energies (a.u.)
 --------------------------------------------------------------
 
 Alpha MOs
 -- Occupied --
 -9.965  -9.926  -0.708  -0.487  -0.360  -0.324  -0.157  -0.040
 -- Virtual --
  0.178   0.184   0.189   0.272   0.283   0.287   0.303   0.343
  0.350   0.366   0.379   0.417   0.434   0.457   0.549   0.669
  0.771   0.790   0.836   0.867   0.878   0.895   0.956   0.959
  0.966   0.986   1.022   1.027   1.119   1.119   1.154   1.265
  1.309   1.336   1.421   1.477   1.542   1.578   1.698   1.722
  1.769   1.798   1.858   1.881   1.913   2.093   2.829   2.878
  3.047   3.073   3.092   3.109   3.172   3.193   3.232   3.290
  3.301   3.375   3.477   3.496   3.542   3.560   3.605   3.643
  3.646   3.724   3.734   3.794   3.832   3.918   4.027   4.124
  4.126   4.183   4.334   4.529   4.546   4.595   4.731   4.839
  4.883   5.031   5.223   5.545   5.676   5.818   5.968   6.567
 24.116  25.093  27.591  27.789  27.947  28.485  28.637  28.767
 41.226  41.292  41.326  41.492  41.494  41.535  41.610  41.639
 41.696  41.718
 --------------------------------------------------------------
 
          Ground-State Mulliken Net Atomic Charges

     Atom                 Charge (a.u.)
  ----------------------------------------
      1 C                    -0.511843
      2 C                    -0.513827
      3 H                    -0.071672
      4 H                     0.057180
      5 H                     0.040163
  ----------------------------------------
  Sum of atomic charges =    -1.000000

 -----------------------------------------------------------------
                    Cartesian Multipole Moments
 -----------------------------------------------------------------
    Charge (ESU x 10^10)
                -4.8032
    Dipole Moment (Debye)
         X       1.7101      Y       0.0008      Z      -5.1724
       Tot       5.4477
    Quadrupole Moments (Debye-Ang)
        XX     -20.0303     XY      -0.0024     YY     -19.1589
        XZ       4.7330     YZ       0.0023     ZZ     -26.5886
    Octapole Moments (Debye-Ang^2)
       XXX       1.8726    XXY       0.0009    XYY       1.0039
       YYY       0.0036    XXZ     -17.3172    XYZ      -0.0037
       YYZ     -12.9895    XZZ       9.3485    YZZ       0.0055
       ZZZ     -50.8162
    Hexadecapole Moments (Debye-Ang^3)
      XXXX     -53.9726   XXXY      -0.0092   XXYY     -14.9019
      XYYY      -0.0093   YYYY     -34.0058   XXXZ       7.8270
      XXYZ       0.0028   XYYZ       2.9693   YYYZ       0.0097
      XXZZ     -45.4866   XYZZ      -0.0099   YYZZ     -33.0887
      XZZZ      25.2576   YZZZ       0.0177   ZZZZ    -182.5091
 -----------------------------------------------------------------
 Total job time:  23.55s(wall), 23.12s(cpu) 
 Sun Jul  7 08:41:58 2013

        *************************************************************
        *                                                           *
        *  Thank you very much for using Q-Chem.  Have a nice day.  *
        *                                                           *
        *************************************************************


0 sent ACK to 0 
now end server 0 ... 
 
**********************************************************************
Job 2 of 3 
**********************************************************************
 
Process 0 of 1 is on cl248.stfx.acenet.ca - thread support 1
initial socket setup ...start
initial socket setup ...done 
now start server 0 ... 

cmd = /usr/bin/ssh clhead /usr/local/qchem/bin/get_hostid 2012429111 > /scratch/tmp/6063765.1.long.q/qchem19614/lic.dat
                  Welcome to Q-Chem
     A Quantum Leap Into The Future Of Chemistry

 Y. Shao, L. Fusti-Molnar, Y. Jung, J. Kussmann, C. Ochsenfeld,
 S. T. Brown, A. T. B. Gilbert, L. V. Slipchenko,S. V. Levchenko,
 D. P. O'Neill, R. A. DiStasio Jr., R. C. Lochan, T. Wang,
 G. J. O. Beran, N. A. Besley, J. M. Herbert, C. Y. Lin,
 T. Van Voorhis, S. H. Chien, A. Sodt, R. P. Steele, 
 V. A. Rassolov, P. E. Maslen, P. P. Korambath, R. D. Adamson,
 B. Austin, J. Baker, E. F. C. Byrd, H. Dachsel, R. J. Doerksen,
 A. Dreuw, B. D. Dunietz, A. D. Dutoi, T. R. Furlani,
 S. R. Gwaltney, A. Heyden, S. Hirata, C.-P. Hsu, G. Kedziora,
 R. Z. Khaliullin, P. Klunzinger, A. M. Lee, M. S. Lee, W. Liang,
 I. Lotan, N. Nair, B. Peters, E. I. Proynov, P. A. Pieniazek, 
 Y. M. Rhee, J. Ritchie, E. Rosta, C. D. Sherrill, 
 A. C. Simmonett, J. E. Subotnik, H. L. Woodcock III,
 W. Zhang, A. T. Bell, A. K. Chakraborty, D. M. Chipman,
 F. J. Keil, A. Warshel, W. J. Hehre, H. F. Schaefer III,
 J. Kong, A. I. Krylov, P. M. W. Gill, M. Head-Gordon,
 Q-Chem, Version 3.1, Q-Chem, Inc., Pittsburgh, PA (2007).

 Additional authors for Version 3.1: 
 Z. Gan, Y. Zhao, N. E. Schultz, D. Truhlar, E. Epifanovsky and M. Oana.

 Additional authors for Version 3.2: 
 R. Baer, B. R. Brooks, D. Casanova, J.-D. Chai, C.-L. Cheng, 
 C. Cramer, D. Crittenden, A. Ghysels, G. Hawkins, E. G. Hohenstein, 
 C. Kelley, W. Kurlancheek, D. Liotard, E. Livshits, P. Manohar, 
 A. Marenich, D. Neuhauser, R. Olson, M. A. Rohrdanz, K. S. Thanthiriwatte, 
 A. J. W. Thom, V. Vanovschi, C. F. Williams, Q. Wu and Z.-Q. You. 


 Intel X86 Linux Version

 Q-chem begins on Sun Jul  7 08:42:00 2013  

 Parallel job on  1  processors
Processing $rem in /usr/local/qchem/config/preferences.

theFileMan(): MAXOPENFILES=974 MAX_SUB_FILE_NUM=16
Maximum size of a physical file is 2.0 GB, maximum size of a tmp-file is 32.0 GB


--------------------------------------------------------------
User input:
--------------------------------------------------------------

$molecule
0,2
C          0.00034        0.00000       -0.00234
C          0.00795        0.00000        1.30335
H          0.93102        0.00000       -0.58577
H         -0.92815        0.00000       -0.57958
H          0.72652        0.00000        2.11724
$end

$comment
neutral
$end

$xc_functional
C PBE   1.00
X wPBE  1.00
$end


$rem
SYMMETRY_DECOMPOSITION	0
LRC_DFT                 true
exchange 		general
BASIS                   g3large
omega			600
mem_static              760
max_scf_cycles          200
scf_final_print         1
sym_ignore              true
$end

--------------------------------------------------------------
 Writing REM_CC_EA            5
 ----------------------------------------------------
       Standard Nuclear Orientation (Angstroms)
    I     Atom         X            Y            Z
 ----------------------------------------------------
    1      C       0.000340     0.000000    -0.002340
    2      C       0.007950     0.000000     1.303350
    3      H       0.931020     0.000000    -0.585770
    4      H      -0.928150     0.000000    -0.579580
    5      H       0.726520     0.000000     2.117240
 ----------------------------------------------------
 Nuclear Repulsion Energy =    28.3933182935 hartrees
 There are        8 alpha and        7 beta electrons
 Requested basis set is G3large
 There are 38 shells and 114 basis functions

Total QAlloc Memory Limit   2000 MB
Mega-Array Size       743 MB
MEM_STATIC part       760 MB

                       Distance Matrix (Angstroms)
             C (  1)   C (  2)   H (  3)   H (  4)
   C (  2)  1.305712
   H (  3)  1.098433  2.102578
   H (  4)  1.093298  2.102786  1.859180
   H (  5)  2.240526  1.085707  2.710735  3.163980
 
 A cutoff of  1.0D-08 yielded    732 shell pairs
 There are   6640 function pairs (  8147 Cartesian)
Evaluating contribution to one-electron hamiltonian from nuclear
 Smallest overlap matrix eigenvalue = 1.16E-04
 Multipole matrices computed through 2nd order

  Scale SEOQF with 1.000000e-01/1.000000e-01/1.000000e-01

 Standard Electronic Orientation quadrupole field applied
 Nucleus-field energy     =    -0.0000000016 hartrees
 Guess from superposition of atomic densities
 Warning:  Energy on first SCF cycle will be non-variational
 Long-range K will be added via erf
 Coulomb attenuation parameter = 0.6 bohr**(-1)
 An unrestricted Kohn-Sham SCF calculation will be
 performed using Pulay DIIS extrapolation
 Exchange:  wPBE + LR-HF      Correlation:  PBE
 Using SG-1 standard quadrature grid
 SCF converges when DIIS error is below 1.0E-05
 Requested basis set is G3large
 There are 38 shells and 114 basis functions
 A cutoff of  1.0D-08 yielded    732 shell pairs
 There are   6640 function pairs (  8147 Cartesian)
 ---------------------------------------
  Cycle       Energy         DIIS Error
 ---------------------------------------
    1     -78.1874120497      3.73E-02
    2     -77.8166242593      3.06E-03
    3     -77.8504124969      1.18E-03
    4     -77.8587852761      5.62E-04
    5     -77.8631944423      2.68E-04
    6     -77.8648955511      1.57E-04
    7     -77.8656972747      5.30E-05
    8     -77.8659834816      2.39E-05
    9     -77.8661444785      1.32E-05
   10     -77.8662584487      6.88E-06 Convergence criterion met
 ---------------------------------------
 One-Electron    Energy =  -159.7301076146
 Total Coulomb   Energy =    65.3015644392
 Alpha Exchange  Energy =    -2.1194818979
 Beta  Exchange  Energy =    -1.8653032489
 DFT   Exchange  Energy =    -7.3902304856
 DFT Correlation Energy =    -0.4560179328
 Nuclear Repu.   Energy =    28.3933182919
 Nuclear Attr.   Energy =  -237.1812836134
 Kinetic         Energy =    77.4511759987
 <S^2> = 0.7747
 SCF time:  CPU 30.26 s  wall 30.77 s
 Final Alpha MO Eigenvalues
            1           2           3           4           5           6
    1 -10.2427787 -10.2193959  -0.9894262  -0.7645420  -0.6310491  -0.5954595
            7           8           9          10          11          12
    1  -0.4282158  -0.3914729   0.0456914   0.0579642   0.0652277   0.0833974
           13
    1   0.1226147
 Final Beta MO Eigenvalues
            1           2           3           4           5           6
    1 -10.2271422 -10.2219054  -0.9660367  -0.7324343  -0.6097939  -0.5723602
            7           8           9          10          11          12
    1  -0.4185787   0.0378606   0.0493224   0.0586770   0.0666472   0.0921491
 Analysis of SCF Wavefunction
 
 --------------------------------------------------------------
                    Orbital Energies (a.u.)
 --------------------------------------------------------------
 
 Alpha MOs
 -- Occupied --
-10.243 -10.219  -0.989  -0.765  -0.631  -0.595  -0.428  -0.391
 -- Virtual --
  0.046   0.058   0.065   0.083   0.123   0.131   0.140   0.181
  0.185   0.192   0.206   0.215   0.244   0.257   0.360   0.450
  0.540   0.556   0.614   0.626   0.641   0.658   0.709   0.722
  0.733   0.752   0.776   0.783   0.855   0.869   0.898   1.040
  1.062   1.107   1.182   1.227   1.293   1.329   1.451   1.472
  1.513   1.561   1.609   1.634   1.672   1.822   2.568   2.623
  2.768   2.810   2.814   2.836   2.887   2.908   2.931   3.004
  3.025   3.083   3.212   3.215   3.280   3.284   3.321   3.332
  3.369   3.445   3.453   3.492   3.544   3.635   3.749   3.839
  3.852   3.907   4.066   4.269   4.285   4.340   4.454   4.572
  4.608   4.749   4.943   5.267   5.396   5.542   5.714   6.281
 23.827  24.813  27.307  27.507  27.617  28.230  28.380  28.455
 40.942  40.969  41.070  41.197  41.214  41.253  41.314  41.355
 41.413  41.434
 
 Beta MOs
 -- Occupied --
-10.227 -10.222  -0.966  -0.732  -0.610  -0.572  -0.419
 -- Virtual --
  0.038   0.049   0.059   0.067   0.092   0.123   0.138   0.154
  0.183   0.190   0.199   0.206   0.219   0.248   0.269   0.372
  0.460   0.556   0.575   0.619   0.634   0.646   0.680   0.728
  0.737   0.751   0.764   0.784   0.801   0.882   0.886   0.923
  1.046   1.072   1.111   1.186   1.246   1.309   1.337   1.462
  1.481   1.535   1.567   1.617   1.644   1.678   1.843   2.576
  2.633   2.793   2.819   2.827   2.845   2.911   2.925   2.968
  3.025   3.035   3.118   3.220   3.229   3.286   3.302   3.346
  3.380   3.386   3.469   3.474   3.530   3.571   3.661   3.765
  3.857   3.863   3.923   4.081   4.282   4.295   4.346   4.469
  4.581   4.624   4.766   4.953   5.286   5.409   5.558   5.722
  6.298  23.836  24.818  27.313  27.510  27.653  28.228  28.379
 28.466  40.949  40.997  41.066  41.215  41.220  41.254  41.329
 41.357  41.420  41.439
 --------------------------------------------------------------
 
          Ground-State Mulliken Net Atomic Charges

     Atom                 Charge (a.u.)    Spin (a.u.)
  --------------------------------------------------------
      1 C                    -0.232702      -0.228261
      2 C                    -0.064059       1.088344
      3 H                     0.082199       0.079936
      4 H                     0.099657       0.043827
      5 H                     0.114905       0.016154
  --------------------------------------------------------
  Sum of atomic charges =     0.000000
  Sum of spin   charges =     1.000000

 -----------------------------------------------------------------
                    Cartesian Multipole Moments
 -----------------------------------------------------------------
    Charge (ESU x 10^10)
                 0.0000
    Dipole Moment (Debye)
         X       0.6329      Y       0.0000      Z      -0.2716
       Tot       0.6888
    Quadrupole Moments (Debye-Ang)
        XX     -12.1069     XY       0.0004     YY     -14.7864
        XZ       1.5952     YZ      -0.0003     ZZ     -11.2758
    Octapole Moments (Debye-Ang^2)
       XXX      -0.9341    XXY       0.0001    XYY      -0.4723
       YYY       0.0002    XXZ      -8.4510    XYZ       0.0001
       YYZ      -8.8680    XZZ       3.1778    YZZ      -0.0004
       ZZZ     -19.3500
    Hexadecapole Moments (Debye-Ang^3)
      XXXX     -22.4864   XXXY       0.0006   XXYY      -7.2570
      XYYY       0.0005   YYYY     -17.9777   XXXZ      -1.5099
      XXYZ       0.0000   XYYZ      -0.8938   YYYZ      -0.0002
      XXZZ     -17.4958   XYZZ       0.0011   YYZZ     -19.4681
      XZZZ       5.7416   YZZZ      -0.0015   ZZZZ     -81.4568
 -----------------------------------------------------------------
 Total job time:  30.89s(wall), 30.37s(cpu) 
 Sun Jul  7 08:42:31 2013

        *************************************************************
        *                                                           *
        *  Thank you very much for using Q-Chem.  Have a nice day.  *
        *                                                           *
        *************************************************************


0 sent ACK to 0 
now end server 0 ... 
 
**********************************************************************
Job 3 of 3 
**********************************************************************
 
Process 0 of 1 is on cl248.stfx.acenet.ca - thread support 1
initial socket setup ...start
initial socket setup ...done 
now start server 0 ... 

cmd = /usr/bin/ssh clhead /usr/local/qchem/bin/get_hostid 1342602247 > /scratch/tmp/6063765.1.long.q/qchem19614/lic.dat
                  Welcome to Q-Chem
     A Quantum Leap Into The Future Of Chemistry

 Y. Shao, L. Fusti-Molnar, Y. Jung, J. Kussmann, C. Ochsenfeld,
 S. T. Brown, A. T. B. Gilbert, L. V. Slipchenko,S. V. Levchenko,
 D. P. O'Neill, R. A. DiStasio Jr., R. C. Lochan, T. Wang,
 G. J. O. Beran, N. A. Besley, J. M. Herbert, C. Y. Lin,
 T. Van Voorhis, S. H. Chien, A. Sodt, R. P. Steele, 
 V. A. Rassolov, P. E. Maslen, P. P. Korambath, R. D. Adamson,
 B. Austin, J. Baker, E. F. C. Byrd, H. Dachsel, R. J. Doerksen,
 A. Dreuw, B. D. Dunietz, A. D. Dutoi, T. R. Furlani,
 S. R. Gwaltney, A. Heyden, S. Hirata, C.-P. Hsu, G. Kedziora,
 R. Z. Khaliullin, P. Klunzinger, A. M. Lee, M. S. Lee, W. Liang,
 I. Lotan, N. Nair, B. Peters, E. I. Proynov, P. A. Pieniazek, 
 Y. M. Rhee, J. Ritchie, E. Rosta, C. D. Sherrill, 
 A. C. Simmonett, J. E. Subotnik, H. L. Woodcock III,
 W. Zhang, A. T. Bell, A. K. Chakraborty, D. M. Chipman,
 F. J. Keil, A. Warshel, W. J. Hehre, H. F. Schaefer III,
 J. Kong, A. I. Krylov, P. M. W. Gill, M. Head-Gordon,
 Q-Chem, Version 3.1, Q-Chem, Inc., Pittsburgh, PA (2007).

 Additional authors for Version 3.1: 
 Z. Gan, Y. Zhao, N. E. Schultz, D. Truhlar, E. Epifanovsky and M. Oana.

 Additional authors for Version 3.2: 
 R. Baer, B. R. Brooks, D. Casanova, J.-D. Chai, C.-L. Cheng, 
 C. Cramer, D. Crittenden, A. Ghysels, G. Hawkins, E. G. Hohenstein, 
 C. Kelley, W. Kurlancheek, D. Liotard, E. Livshits, P. Manohar, 
 A. Marenich, D. Neuhauser, R. Olson, M. A. Rohrdanz, K. S. Thanthiriwatte, 
 A. J. W. Thom, V. Vanovschi, C. F. Williams, Q. Wu and Z.-Q. You. 


 Intel X86 Linux Version

 Q-chem begins on Sun Jul  7 08:42:34 2013  

 Parallel job on  1  processors
Processing $rem in /usr/local/qchem/config/preferences.

theFileMan(): MAXOPENFILES=974 MAX_SUB_FILE_NUM=16
Maximum size of a physical file is 2.0 GB, maximum size of a tmp-file is 32.0 GB


--------------------------------------------------------------
User input:
--------------------------------------------------------------

$molecule
1,1
C          0.00034        0.00000       -0.00234
C          0.00795        0.00000        1.30335
H          0.93102        0.00000       -0.58577
H         -0.92815        0.00000       -0.57958
H          0.72652        0.00000        2.11724
$end

$comment
positive
$end

$xc_functional
C PBE   1.00
X wPBE  1.00
$end

$rem
SYMMETRY_DECOMPOSITION	0
LRC_DFT                 true
exchange 		general
BASIS                   g3large
omega			600
mem_static              760
max_scf_cycles          200
scf_final_print         1
sym_ignore              true
$end

--------------------------------------------------------------
 Writing REM_CC_EA            5
 ----------------------------------------------------
       Standard Nuclear Orientation (Angstroms)
    I     Atom         X            Y            Z
 ----------------------------------------------------
    1      C       0.000340     0.000000    -0.002340
    2      C       0.007950     0.000000     1.303350
    3      H       0.931020     0.000000    -0.585770
    4      H      -0.928150     0.000000    -0.579580
    5      H       0.726520     0.000000     2.117240
 ----------------------------------------------------
 Nuclear Repulsion Energy =    28.3933182935 hartrees
 There are        7 alpha and        7 beta electrons
 Requested basis set is G3large
 There are 38 shells and 114 basis functions

Total QAlloc Memory Limit   2000 MB
Mega-Array Size       743 MB
MEM_STATIC part       760 MB

                       Distance Matrix (Angstroms)
             C (  1)   C (  2)   H (  3)   H (  4)
   C (  2)  1.305712
   H (  3)  1.098433  2.102578
   H (  4)  1.093298  2.102786  1.859180
   H (  5)  2.240526  1.085707  2.710735  3.163980
 
 A cutoff of  1.0D-08 yielded    732 shell pairs
 There are   6640 function pairs (  8147 Cartesian)
Evaluating contribution to one-electron hamiltonian from nuclear
 Smallest overlap matrix eigenvalue = 1.16E-04
 Multipole matrices computed through 2nd order

  Scale SEOQF with 1.000000e-01/1.000000e-01/1.000000e-01

 Standard Electronic Orientation quadrupole field applied
 Nucleus-field energy     =    -0.0000000016 hartrees
 Guess from superposition of atomic densities
 Warning:  Energy on first SCF cycle will be non-variational
 Long-range K will be added via erf
 Coulomb attenuation parameter = 0.6 bohr**(-1)
 A restricted Kohn-Sham SCF calculation will be
 performed using Pulay DIIS extrapolation
 Exchange:  wPBE + LR-HF      Correlation:  PBE
 Using SG-1 standard quadrature grid
 SCF converges when DIIS error is below 1.0E-05
 Requested basis set is G3large
 There are 38 shells and 114 basis functions
 A cutoff of  1.0D-08 yielded    732 shell pairs
 There are   6640 function pairs (  8147 Cartesian)
 Warning!  Inaccurate integrated density:
   Number of electrons =    14
   Numerical integral  =    14.999948730966
   Relative error      =     7.1424909355 %
 ---------------------------------------
  Cycle       Energy         DIIS Error
 ---------------------------------------
    1     -78.1874120497      3.73E-02
    2     -77.4354030887      4.48E-03
    3     -77.4807002620      2.60E-03
    4     -77.4926369077      8.63E-04
    5     -77.4959356781      3.89E-04
    6     -77.4973844164      2.70E-04
    7     -77.4991199752      1.66E-04
    8     -77.5000280021      6.36E-05
    9     -77.5001238498      1.97E-05
   10     -77.5001277130      5.86E-06 Convergence criterion met
 ---------------------------------------
 One-Electron    Energy =  -154.8598704937
 Total Coulomb   Energy =    60.4346041190
 Alpha Exchange  Energy =    -1.8797797647
 Beta  Exchange  Energy =    -1.8797797647
 DFT   Exchange  Energy =    -7.2813667907
 DFT Correlation Energy =    -0.4272533102
 Nuclear Repu.   Energy =    28.3933182919
 Nuclear Attr.   Energy =  -231.8864228304
 Kinetic         Energy =    77.0265523367
 SCF time:  CPU 25.93 s  wall 26.27 s
 Final Alpha MO Eigenvalues
            1           2           3           4           5           6
    1 -10.6348138 -10.5405637  -1.3040528  -1.0623837  -0.9340079  -0.8832971
            7           8           9          10          11          12
    1  -0.7440248  -0.3313957  -0.1841783  -0.1115213  -0.0910439  -0.0807876
 Analysis of SCF Wavefunction
 
 --------------------------------------------------------------
                    Orbital Energies (a.u.)
 --------------------------------------------------------------
 
 Alpha MOs
 -- Occupied --
-10.635 -10.541  -1.304  -1.062  -0.934  -0.883  -0.744
 -- Virtual --
 -0.331  -0.184  -0.112  -0.091  -0.081  -0.053  -0.035  -0.022
 -0.001   0.006   0.020   0.041   0.042   0.046   0.053   0.160
  0.209   0.303   0.320   0.350   0.370   0.384   0.413   0.462
  0.464   0.485   0.506   0.509   0.537   0.585   0.601   0.641
  0.780   0.804   0.853   0.915   0.962   1.029   1.057   1.180
  1.200   1.240   1.298   1.332   1.364   1.405   1.541   2.269
  2.335   2.462   2.491   2.511   2.515   2.574   2.590   2.615
  2.687   2.709   2.770   2.891   2.908   2.972   2.976   3.007
  3.009   3.060   3.130   3.146   3.175   3.231   3.325   3.435
  3.517   3.538   3.595   3.762   3.974   3.981   4.046   4.140
  4.265   4.297   4.432   4.618   4.952   5.073   5.228   5.418
  5.958  23.467  24.467  26.942  27.163  27.231  27.910  28.057
 28.071  40.577  40.586  40.746  40.811  40.846  40.927  40.931
 41.010  41.071  41.094
 --------------------------------------------------------------
 
          Ground-State Mulliken Net Atomic Charges

     Atom                 Charge (a.u.)
  ----------------------------------------
      1 C                     0.001516
      2 C                     0.358107
      3 H                     0.204635
      4 H                     0.189623
      5 H                     0.246120
  ----------------------------------------
  Sum of atomic charges =     1.000000

 -----------------------------------------------------------------
                    Cartesian Multipole Moments
 -----------------------------------------------------------------
    Charge (ESU x 10^10)
                 4.8032
    Dipole Moment (Debye)
         X       0.5070      Y       0.0002      Z       3.4052
       Tot       3.4427
    Quadrupole Moments (Debye-Ang)
        XX      -7.2456     XY      -0.0002     YY     -12.3171
        XZ       1.0703     YZ       0.0003     ZZ      -0.5846
    Octapole Moments (Debye-Ang^2)
       XXX      -0.5753    XXY       0.0001    XYY      -0.5541
       YYY       0.0002    XXZ      -5.1485    XYZ      -0.0004
       YYZ      -7.5560    XZZ       3.0082    YZZ       0.0006
       ZZZ      -1.3312
    Hexadecapole Moments (Debye-Ang^3)
      XXXX     -12.3470   XXXY      -0.0001   XXYY      -4.8736
      XYYY      -0.0001   YYYY     -12.3852   XXXZ      -1.3223
      XXYZ       0.0001   XYYZ      -1.1384   YYYZ       0.0003
      XXZZ      -6.8071   XYZZ      -0.0005   YYZZ     -15.0918
      XZZZ       5.8711   YZZZ       0.0010   ZZZZ     -34.3077
 -----------------------------------------------------------------
 Total job time:  26.38s(wall), 26.04s(cpu) 
 Sun Jul  7 08:43:00 2013

        *************************************************************
        *                                                           *
        *  Thank you very much for using Q-Chem.  Have a nice day.  *
        *                                                           *
        *************************************************************


0 sent ACK to 0 
now end server 0 ... 
