Process 0 of 1 is on cl209.stfx.acenet.ca - thread support 1
initial socket setup ...start
initial socket setup ...done 
now start server 0 ... 

cmd = /usr/bin/ssh clhead /usr/local/qchem/bin/get_hostid 390848900 > /scratch/tmp/6064132.1.medium.q/qchem22484/lic.dat
                  Welcome to Q-Chem
     A Quantum Leap Into The Future Of Chemistry

 Y. Shao, L. Fusti-Molnar, Y. Jung, J. Kussmann, C. Ochsenfeld,
 S. T. Brown, A. T. B. Gilbert, L. V. Slipchenko,S. V. Levchenko,
 D. P. O'Neill, R. A. DiStasio Jr., R. C. Lochan, T. Wang,
 G. J. O. Beran, N. A. Besley, J. M. Herbert, C. Y. Lin,
 T. Van Voorhis, S. H. Chien, A. Sodt, R. P. Steele, 
 V. A. Rassolov, P. E. Maslen, P. P. Korambath, R. D. Adamson,
 B. Austin, J. Baker, E. F. C. Byrd, H. Dachsel, R. J. Doerksen,
 A. Dreuw, B. D. Dunietz, A. D. Dutoi, T. R. Furlani,
 S. R. Gwaltney, A. Heyden, S. Hirata, C.-P. Hsu, G. Kedziora,
 R. Z. Khaliullin, P. Klunzinger, A. M. Lee, M. S. Lee, W. Liang,
 I. Lotan, N. Nair, B. Peters, E. I. Proynov, P. A. Pieniazek, 
 Y. M. Rhee, J. Ritchie, E. Rosta, C. D. Sherrill, 
 A. C. Simmonett, J. E. Subotnik, H. L. Woodcock III,
 W. Zhang, A. T. Bell, A. K. Chakraborty, D. M. Chipman,
 F. J. Keil, A. Warshel, W. J. Hehre, H. F. Schaefer III,
 J. Kong, A. I. Krylov, P. M. W. Gill, M. Head-Gordon,
 Q-Chem, Version 3.1, Q-Chem, Inc., Pittsburgh, PA (2007).

 Additional authors for Version 3.1: 
 Z. Gan, Y. Zhao, N. E. Schultz, D. Truhlar, E. Epifanovsky and M. Oana.

 Additional authors for Version 3.2: 
 R. Baer, B. R. Brooks, D. Casanova, J.-D. Chai, C.-L. Cheng, 
 C. Cramer, D. Crittenden, A. Ghysels, G. Hawkins, E. G. Hohenstein, 
 C. Kelley, W. Kurlancheek, D. Liotard, E. Livshits, P. Manohar, 
 A. Marenich, D. Neuhauser, R. Olson, M. A. Rohrdanz, K. S. Thanthiriwatte, 
 A. J. W. Thom, V. Vanovschi, C. F. Williams, Q. Wu and Z.-Q. You. 


 Intel X86 Linux Version

 Q-chem begins on Sun Jul  7 09:42:04 2013  

 Parallel job on  1  processors
Processing $rem in /usr/local/qchem/config/preferences.

theFileMan(): MAXOPENFILES=974 MAX_SUB_FILE_NUM=16
Maximum size of a physical file is 2.0 GB, maximum size of a tmp-file is 32.0 GB


--------------------------------------------------------------
User input:
--------------------------------------------------------------

$molecule
-1,1
N          0.00399        0.00000        0.00166
O          0.00042        0.00000        1.19663
O          0.86345        0.00000       -0.82843
$end

$comment
negative
$end

$xc_functional
C PBE   1.00
X wPBE  1.00
$end

$rem
SYMMETRY_DECOMPOSITION	0
exchange 		general
LRC_DFT                 true
BASIS                   g3large
omega			150
mem_static              760
max_scf_cycles          200
scf_final_print         1
sym_ignore              true
$end

--------------------------------------------------------------
 Writing REM_CC_EA            3
 ----------------------------------------------------
       Standard Nuclear Orientation (Angstroms)
    I     Atom         X            Y            Z
 ----------------------------------------------------
    1      N       0.003990     0.000000     0.001660
    2      O       0.000420     0.000000     1.196630
    3      O       0.863450     0.000000    -0.828430
 ----------------------------------------------------
 Nuclear Repulsion Energy =    64.9848850742 hartrees
 There are       12 alpha and       12 beta electrons
 Requested basis set is G3large
 There are 30 shells and 126 basis functions

Total QAlloc Memory Limit   2000 MB
Mega-Array Size       743 MB
MEM_STATIC part       760 MB

                       Distance Matrix (Angstroms)
             N (  1)   O (  2)
   O (  2)  1.194975
   O (  3)  1.194873  2.201293
 
 A cutoff of  1.0D-08 yielded    433 shell pairs
 There are   7808 function pairs ( 10265 Cartesian)
Evaluating contribution to one-electron hamiltonian from nuclear
 Smallest overlap matrix eigenvalue = 1.55E-03
 Multipole matrices computed through 2nd order

  Scale SEOQF with 1.000000e-01/1.000000e-01/1.000000e-01

 Standard Electronic Orientation quadrupole field applied
 Nucleus-field energy     =    -0.0000000016 hartrees
 Guess from superposition of atomic densities
 Warning:  Energy on first SCF cycle will be non-variational
 Long-range K will be added via erf
 Coulomb attenuation parameter = 0.15 bohr**(-1)
 A restricted Kohn-Sham SCF calculation will be
 performed using Pulay DIIS extrapolation
 Exchange:  wPBE + LR-HF      Correlation:  PBE
 Using SG-1 standard quadrature grid
 SCF converges when DIIS error is below 1.0E-05
 Requested basis set is G3large
 There are 30 shells and 126 basis functions
 A cutoff of  1.0D-08 yielded    433 shell pairs
 There are   7808 function pairs ( 10265 Cartesian)
 Warning!  Inaccurate integrated density:
   Number of electrons =    24
   Numerical integral  =    23.000032766208
   Relative error      =    -4.1665301408 %
 ---------------------------------------
  Cycle       Energy         DIIS Error
 ---------------------------------------
    1    -205.6192562922      4.61E-02
    2    -204.8653451269      1.02E-02
    3    -204.7435419286      1.49E-02
    4    -205.0208610143      1.45E-03
    5    -205.0232039737      5.89E-04
    6    -205.0237807925      2.74E-04
    7    -205.0238670146      1.91E-04
    8    -205.0239243140      3.43E-05
    9    -205.0239317838      7.73E-06 Convergence criterion met
 ---------------------------------------
 One-Electron    Energy =  -415.9362143999
 Total Coulomb   Energy =   169.9993687272
 Alpha Exchange  Energy =    -0.9948167568
 Beta  Exchange  Energy =    -0.9948167568
 DFT   Exchange  Energy =   -21.2742903952
 DFT Correlation Energy =    -0.8080472750
 Nuclear Repu.   Energy =    64.9848850726
 Nuclear Attr.   Energy =  -620.8755474795
 Kinetic         Energy =   204.9393330796
 SCF time:  CPU 22.75 s  wall 23.11 s
 Final Alpha MO Eigenvalues
            1           2           3           4           5           6
    1 -18.6133468 -18.6133083 -13.9567245  -0.9600557  -0.8187397  -0.3848539
            7           8           9          10          11          12
    1  -0.2980954  -0.2967085  -0.2767233  -0.1261936  -0.1032690   0.0146053
           13          14          15          16          17
    1   0.2530737   0.2705190   0.2878683   0.3195720   0.3198309
 Analysis of SCF Wavefunction
 
 --------------------------------------------------------------
                    Orbital Energies (a.u.)
 --------------------------------------------------------------
 
 Alpha MOs
 -- Occupied --
-18.613 -18.613 -13.957  -0.960  -0.819  -0.385  -0.298  -0.297
 -0.277  -0.126  -0.103   0.015
 -- Virtual --
  0.253   0.271   0.288   0.320   0.320   0.405   0.410   0.425
  0.444   0.460   0.479   0.552   0.594   0.611   0.771   0.988
  0.994   1.040   1.128   1.217   1.223   1.263   1.264   1.270
  1.324   1.336   1.349   1.370   1.682   1.739   1.752   1.783
  1.823   1.856   1.938   2.115   2.282   2.450   2.524   2.650
  2.674   2.836   3.723   3.738   3.846   3.890   3.900   3.951
  4.211   4.212   4.596   4.603   4.671   4.736   4.834   4.891
  4.952   5.140   5.145   5.169   5.214   5.223   5.265   5.268
  5.292   5.488   5.613   5.666   5.693   5.733   5.891   6.343
  6.628   6.915   6.925   6.946   6.969   7.082   7.190   7.262
  7.306   7.341   7.396   7.588   7.782   7.955   8.297  35.987
 37.427  37.610  38.468  40.476  40.567  40.634  40.766  40.868
 43.748  43.763  43.805  43.816  43.855  43.912  43.917  43.951
 44.038  44.097  45.762  45.771  45.782  45.917  46.407  46.747
 50.110  50.177
 --------------------------------------------------------------
 
          Ground-State Mulliken Net Atomic Charges

     Atom                 Charge (a.u.)
  ----------------------------------------
      1 N                    -1.260023
      2 O                     0.129807
      3 O                     0.130215
  ----------------------------------------
  Sum of atomic charges =    -1.000000

 -----------------------------------------------------------------
                    Cartesian Multipole Moments
 -----------------------------------------------------------------
    Charge (ESU x 10^10)
                -4.8032
    Dipole Moment (Debye)
         X      -1.5340      Y       0.0000      Z      -0.6542
       Tot       1.6677
    Quadrupole Moments (Debye-Ang)
        XX     -23.7985     XY       0.0001     YY     -19.2991
        XZ       0.7538     YZ       0.0000     ZZ     -25.2465
    Octapole Moments (Debye-Ang^2)
       XXX     -20.8388    XXY       0.0000    XYY      -5.5627
       YYY      -0.0001    XXZ      -1.0209    XYZ      -0.0001
       YYZ      -2.3703    XZZ      -7.9806    YZZ       0.0000
       ZZZ     -11.2623
    Hexadecapole Moments (Debye-Ang^3)
      XXXX     -68.5504   XXXY       0.0002   XXYY     -15.1161
      XYYY       0.0001   YYYY     -26.9788   XXXZ      12.4653
      XXYZ      -0.0001   XYYZ       3.5030   YYYZ      -0.0001
      XXZZ     -30.2251   XYZZ       0.0001   YYZZ     -21.8434
      XZZZ      10.7257   YZZZ      -0.0002   ZZZZ    -113.0857
 -----------------------------------------------------------------
 Total job time:  23.25s(wall), 22.87s(cpu) 
 Sun Jul  7 09:42:28 2013

        *************************************************************
        *                                                           *
        *  Thank you very much for using Q-Chem.  Have a nice day.  *
        *                                                           *
        *************************************************************


0 sent ACK to 0 
now end server 0 ... 
 
**********************************************************************
Job 2 of 3 
**********************************************************************
 
Process 0 of 1 is on cl209.stfx.acenet.ca - thread support 1
initial socket setup ...start
initial socket setup ...done 
now start server 0 ... 

cmd = /usr/bin/ssh clhead /usr/local/qchem/bin/get_hostid 766106242 > /scratch/tmp/6064132.1.medium.q/qchem22484/lic.dat
                  Welcome to Q-Chem
     A Quantum Leap Into The Future Of Chemistry

 Y. Shao, L. Fusti-Molnar, Y. Jung, J. Kussmann, C. Ochsenfeld,
 S. T. Brown, A. T. B. Gilbert, L. V. Slipchenko,S. V. Levchenko,
 D. P. O'Neill, R. A. DiStasio Jr., R. C. Lochan, T. Wang,
 G. J. O. Beran, N. A. Besley, J. M. Herbert, C. Y. Lin,
 T. Van Voorhis, S. H. Chien, A. Sodt, R. P. Steele, 
 V. A. Rassolov, P. E. Maslen, P. P. Korambath, R. D. Adamson,
 B. Austin, J. Baker, E. F. C. Byrd, H. Dachsel, R. J. Doerksen,
 A. Dreuw, B. D. Dunietz, A. D. Dutoi, T. R. Furlani,
 S. R. Gwaltney, A. Heyden, S. Hirata, C.-P. Hsu, G. Kedziora,
 R. Z. Khaliullin, P. Klunzinger, A. M. Lee, M. S. Lee, W. Liang,
 I. Lotan, N. Nair, B. Peters, E. I. Proynov, P. A. Pieniazek, 
 Y. M. Rhee, J. Ritchie, E. Rosta, C. D. Sherrill, 
 A. C. Simmonett, J. E. Subotnik, H. L. Woodcock III,
 W. Zhang, A. T. Bell, A. K. Chakraborty, D. M. Chipman,
 F. J. Keil, A. Warshel, W. J. Hehre, H. F. Schaefer III,
 J. Kong, A. I. Krylov, P. M. W. Gill, M. Head-Gordon,
 Q-Chem, Version 3.1, Q-Chem, Inc., Pittsburgh, PA (2007).

 Additional authors for Version 3.1: 
 Z. Gan, Y. Zhao, N. E. Schultz, D. Truhlar, E. Epifanovsky and M. Oana.

 Additional authors for Version 3.2: 
 R. Baer, B. R. Brooks, D. Casanova, J.-D. Chai, C.-L. Cheng, 
 C. Cramer, D. Crittenden, A. Ghysels, G. Hawkins, E. G. Hohenstein, 
 C. Kelley, W. Kurlancheek, D. Liotard, E. Livshits, P. Manohar, 
 A. Marenich, D. Neuhauser, R. Olson, M. A. Rohrdanz, K. S. Thanthiriwatte, 
 A. J. W. Thom, V. Vanovschi, C. F. Williams, Q. Wu and Z.-Q. You. 


 Intel X86 Linux Version

 Q-chem begins on Sun Jul  7 09:42:30 2013  

 Parallel job on  1  processors
Processing $rem in /usr/local/qchem/config/preferences.

theFileMan(): MAXOPENFILES=974 MAX_SUB_FILE_NUM=16
Maximum size of a physical file is 2.0 GB, maximum size of a tmp-file is 32.0 GB


--------------------------------------------------------------
User input:
--------------------------------------------------------------

$molecule
0,2
N          0.00399        0.00000        0.00166
O          0.00042        0.00000        1.19663
O          0.86345        0.00000       -0.82843
$end

$comment
neutral
$end

$xc_functional
C PBE   1.00
X wPBE  1.00
$end


$rem
SYMMETRY_DECOMPOSITION	0
LRC_DFT                 true
exchange 		general
BASIS                   g3large
omega			150
mem_static              760
max_scf_cycles          200
scf_final_print         1
sym_ignore              true
$end

--------------------------------------------------------------
 Writing REM_CC_EA            3
 ----------------------------------------------------
       Standard Nuclear Orientation (Angstroms)
    I     Atom         X            Y            Z
 ----------------------------------------------------
    1      N       0.003990     0.000000     0.001660
    2      O       0.000420     0.000000     1.196630
    3      O       0.863450     0.000000    -0.828430
 ----------------------------------------------------
 Nuclear Repulsion Energy =    64.9848850742 hartrees
 There are       12 alpha and       11 beta electrons
 Requested basis set is G3large
 There are 30 shells and 126 basis functions

Total QAlloc Memory Limit   2000 MB
Mega-Array Size       743 MB
MEM_STATIC part       760 MB

                       Distance Matrix (Angstroms)
             N (  1)   O (  2)
   O (  2)  1.194975
   O (  3)  1.194873  2.201293
 
 A cutoff of  1.0D-08 yielded    433 shell pairs
 There are   7808 function pairs ( 10265 Cartesian)
Evaluating contribution to one-electron hamiltonian from nuclear
 Smallest overlap matrix eigenvalue = 1.55E-03
 Multipole matrices computed through 2nd order

  Scale SEOQF with 1.000000e-01/1.000000e-01/1.000000e-01

 Standard Electronic Orientation quadrupole field applied
 Nucleus-field energy     =    -0.0000000016 hartrees
 Guess from superposition of atomic densities
 Warning:  Energy on first SCF cycle will be non-variational
 Long-range K will be added via erf
 Coulomb attenuation parameter = 0.15 bohr**(-1)
 An unrestricted Kohn-Sham SCF calculation will be
 performed using Pulay DIIS extrapolation
 Exchange:  wPBE + LR-HF      Correlation:  PBE
 Using SG-1 standard quadrature grid
 SCF converges when DIIS error is below 1.0E-05
 Requested basis set is G3large
 There are 30 shells and 126 basis functions
 A cutoff of  1.0D-08 yielded    433 shell pairs
 There are   7808 function pairs ( 10265 Cartesian)
 ---------------------------------------
  Cycle       Energy         DIIS Error
 ---------------------------------------
    1    -205.6192562922      4.61E-02
    2    -204.8445819897      9.60E-03
    3    -204.5691707015      1.77E-02
    4    -204.9798482477      7.43E-04
    5    -204.9802965903      3.70E-04
    6    -204.9802600274      4.10E-04
    7    -204.9805106591      3.08E-05
    8    -204.9805168742      1.38E-05
    9    -204.9805177469      6.22E-06 Convergence criterion met
 ---------------------------------------
 One-Electron    Energy =  -408.7661599169
 Total Coulomb   Energy =   162.5711410356
 Alpha Exchange  Energy =    -0.9982929051
 Beta  Exchange  Energy =    -0.9135379884
 DFT   Exchange  Energy =   -21.0799903780
 DFT Correlation Energy =    -0.7785626667
 Nuclear Repu.   Energy =    64.9848850726
 Nuclear Attr.   Energy =  -613.3483081393
 Kinetic         Energy =   204.5821482223
 <S^2> = 0.7519
 SCF time:  CPU 26.51 s  wall 26.90 s
 Final Alpha MO Eigenvalues
            1           2           3           4           5           6
    1 -18.9429126 -18.9426865 -14.3005633  -1.2826619  -1.1426696  -0.6968919
            7           8           9          10          11          12
    1  -0.6076748  -0.6049787  -0.6033528  -0.4256789  -0.4157750  -0.3204565
           13          14          15          16          17
    1  -0.0554102   0.0763748   0.1180191   0.1286812   0.1317646
 Final Beta MO Eigenvalues
            1           2           3           4           5           6
    1 -18.9351655 -18.9350091 -14.2917553  -1.2686395  -1.1267706  -0.6733874
            7           8           9          10          11          12
    1  -0.5979574  -0.5869962  -0.5726360  -0.4189903  -0.3897704  -0.1120391
           13          14          15          16
    1  -0.0408976   0.0828931   0.1204503   0.1349635
 Analysis of SCF Wavefunction
 
 --------------------------------------------------------------
                    Orbital Energies (a.u.)
 --------------------------------------------------------------
 
 Alpha MOs
 -- Occupied --
-18.943 -18.943 -14.301  -1.283  -1.143  -0.697  -0.608  -0.605
 -0.603  -0.426  -0.416  -0.320
 -- Virtual --
 -0.055   0.076   0.118   0.129   0.132   0.203   0.221   0.236
  0.245   0.268   0.286   0.298   0.354   0.401   0.455   0.712
  0.727   0.774   0.856   0.913   0.960   0.990   1.010   1.010
  1.060   1.066   1.078   1.083   1.386   1.449   1.484   1.514
  1.515   1.554   1.640   1.810   1.995   2.140   2.230   2.364
  2.385   2.530   3.394   3.411   3.525   3.561   3.579   3.639
  3.892   3.896   4.266   4.283   4.351   4.417   4.497   4.547
  4.612   4.827   4.837   4.855   4.903   4.919   4.950   4.953
  4.968   5.177   5.291   5.359   5.377   5.418   5.574   6.010
  6.314   6.595   6.602   6.618   6.645   6.761   6.864   6.937
  7.002   7.027   7.086   7.268   7.473   7.638   7.963  35.645
 37.087  37.258  38.128  40.127  40.219  40.297  40.422  40.525
 43.417  43.432  43.476  43.482  43.520  43.588  43.589  43.616
 43.707  43.766  45.428  45.446  45.457  45.582  46.076  46.419
 49.782  49.849
 
 Beta MOs
 -- Occupied --
-18.935 -18.935 -14.292  -1.269  -1.127  -0.673  -0.598  -0.587
 -0.573  -0.419  -0.390
 -- Virtual --
 -0.112  -0.041   0.083   0.120   0.135   0.137   0.209   0.225
  0.237   0.252   0.271   0.294   0.301   0.358   0.406   0.477
  0.735   0.736   0.780   0.873   0.931   0.969   1.009   1.014
  1.020   1.071   1.077   1.088   1.091   1.398   1.457   1.493
  1.524   1.535   1.574   1.650   1.825   2.000   2.165   2.242
  2.377   2.395   2.555   3.424   3.439   3.540   3.586   3.602
  3.648   3.904   3.911   4.291   4.294   4.363   4.428   4.534
  4.588   4.648   4.844   4.850   4.870   4.921   4.929   4.971
  4.975   4.996   5.196   5.312   5.368   5.396   5.435   5.588
  6.041   6.322   6.617   6.628   6.650   6.673   6.774   6.897
  6.951   7.007   7.041   7.099   7.296   7.488   7.656   7.991
 35.655  37.094  37.281  38.134  40.144  40.236  40.298  40.433
 40.535  43.431  43.445  43.487  43.500  43.539  43.590  43.599
 43.636  43.720  43.779  45.445  45.450  45.461  45.601  46.088
 46.428  49.790  49.857
 --------------------------------------------------------------
 
          Ground-State Mulliken Net Atomic Charges

     Atom                 Charge (a.u.)    Spin (a.u.)
  --------------------------------------------------------
      1 N                    -0.022294       0.472726
      2 O                     0.011032       0.262857
      3 O                     0.011262       0.264417
  --------------------------------------------------------
  Sum of atomic charges =     0.000000
  Sum of spin   charges =     1.000000

 -----------------------------------------------------------------
                    Cartesian Multipole Moments
 -----------------------------------------------------------------
    Charge (ESU x 10^10)
                 0.0000
    Dipole Moment (Debye)
         X      -0.2612      Y       0.0000      Z      -0.1121
       Tot       0.2843
    Quadrupole Moments (Debye-Ang)
        XX     -16.3208     XY       0.0001     YY     -14.9931
        XZ       0.6713     YZ      -0.0001     ZZ     -17.6108
    Octapole Moments (Debye-Ang^2)
       XXX     -13.9881    XXY       0.0001    XYY      -4.3877
       YYY       0.0000    XXZ      -1.6798    XYZ      -0.0001
       YYZ      -1.8700    XZZ      -4.8284    YZZ      -0.0001
       ZZZ      -6.3437
    Hexadecapole Moments (Debye-Ang^3)
      XXXX     -37.5048   XXXY       0.0003   XXYY      -8.0945
      XYYY       0.0001   YYYY     -11.8849   XXXZ      11.4383
      XXYZ      -0.0001   XYYZ       3.7877   YYYZ      -0.0001
      XXZZ     -19.9047   XYZZ       0.0000   YYZZ     -15.3686
      XZZZ      11.6610   YZZZ      -0.0002   ZZZZ     -81.8707
 -----------------------------------------------------------------
 Total job time:  27.03s(wall), 26.64s(cpu) 
 Sun Jul  7 09:42:57 2013

        *************************************************************
        *                                                           *
        *  Thank you very much for using Q-Chem.  Have a nice day.  *
        *                                                           *
        *************************************************************


0 sent ACK to 0 
now end server 0 ... 
 
**********************************************************************
Job 3 of 3 
**********************************************************************
 
Process 0 of 1 is on cl209.stfx.acenet.ca - thread support 1
initial socket setup ...start
initial socket setup ...done 
now start server 0 ... 

cmd = /usr/bin/ssh clhead /usr/local/qchem/bin/get_hostid 1616792842 > /scratch/tmp/6064132.1.medium.q/qchem22484/lic.dat
                  Welcome to Q-Chem
     A Quantum Leap Into The Future Of Chemistry

 Y. Shao, L. Fusti-Molnar, Y. Jung, J. Kussmann, C. Ochsenfeld,
 S. T. Brown, A. T. B. Gilbert, L. V. Slipchenko,S. V. Levchenko,
 D. P. O'Neill, R. A. DiStasio Jr., R. C. Lochan, T. Wang,
 G. J. O. Beran, N. A. Besley, J. M. Herbert, C. Y. Lin,
 T. Van Voorhis, S. H. Chien, A. Sodt, R. P. Steele, 
 V. A. Rassolov, P. E. Maslen, P. P. Korambath, R. D. Adamson,
 B. Austin, J. Baker, E. F. C. Byrd, H. Dachsel, R. J. Doerksen,
 A. Dreuw, B. D. Dunietz, A. D. Dutoi, T. R. Furlani,
 S. R. Gwaltney, A. Heyden, S. Hirata, C.-P. Hsu, G. Kedziora,
 R. Z. Khaliullin, P. Klunzinger, A. M. Lee, M. S. Lee, W. Liang,
 I. Lotan, N. Nair, B. Peters, E. I. Proynov, P. A. Pieniazek, 
 Y. M. Rhee, J. Ritchie, E. Rosta, C. D. Sherrill, 
 A. C. Simmonett, J. E. Subotnik, H. L. Woodcock III,
 W. Zhang, A. T. Bell, A. K. Chakraborty, D. M. Chipman,
 F. J. Keil, A. Warshel, W. J. Hehre, H. F. Schaefer III,
 J. Kong, A. I. Krylov, P. M. W. Gill, M. Head-Gordon,
 Q-Chem, Version 3.1, Q-Chem, Inc., Pittsburgh, PA (2007).

 Additional authors for Version 3.1: 
 Z. Gan, Y. Zhao, N. E. Schultz, D. Truhlar, E. Epifanovsky and M. Oana.

 Additional authors for Version 3.2: 
 R. Baer, B. R. Brooks, D. Casanova, J.-D. Chai, C.-L. Cheng, 
 C. Cramer, D. Crittenden, A. Ghysels, G. Hawkins, E. G. Hohenstein, 
 C. Kelley, W. Kurlancheek, D. Liotard, E. Livshits, P. Manohar, 
 A. Marenich, D. Neuhauser, R. Olson, M. A. Rohrdanz, K. S. Thanthiriwatte, 
 A. J. W. Thom, V. Vanovschi, C. F. Williams, Q. Wu and Z.-Q. You. 


 Intel X86 Linux Version

 Q-chem begins on Sun Jul  7 09:43:00 2013  

 Parallel job on  1  processors
Processing $rem in /usr/local/qchem/config/preferences.

theFileMan(): MAXOPENFILES=974 MAX_SUB_FILE_NUM=16
Maximum size of a physical file is 2.0 GB, maximum size of a tmp-file is 32.0 GB


--------------------------------------------------------------
User input:
--------------------------------------------------------------

$molecule
1,1
N          0.00399        0.00000        0.00166
O          0.00042        0.00000        1.19663
O          0.86345        0.00000       -0.82843
$end

$comment
positive
$end

$xc_functional
C PBE   1.00
X wPBE  1.00
$end

$rem
SYMMETRY_DECOMPOSITION	0
LRC_DFT                 true
exchange 		general
BASIS                   g3large
omega			150
mem_static              760
max_scf_cycles          200
scf_final_print         1
sym_ignore              true
$end

--------------------------------------------------------------
 Writing REM_CC_EA            3
 ----------------------------------------------------
       Standard Nuclear Orientation (Angstroms)
    I     Atom         X            Y            Z
 ----------------------------------------------------
    1      N       0.003990     0.000000     0.001660
    2      O       0.000420     0.000000     1.196630
    3      O       0.863450     0.000000    -0.828430
 ----------------------------------------------------
 Nuclear Repulsion Energy =    64.9848850742 hartrees
 There are       11 alpha and       11 beta electrons
 Requested basis set is G3large
 There are 30 shells and 126 basis functions

Total QAlloc Memory Limit   2000 MB
Mega-Array Size       743 MB
MEM_STATIC part       760 MB

                       Distance Matrix (Angstroms)
             N (  1)   O (  2)
   O (  2)  1.194975
   O (  3)  1.194873  2.201293
 
 A cutoff of  1.0D-08 yielded    433 shell pairs
 There are   7808 function pairs ( 10265 Cartesian)
Evaluating contribution to one-electron hamiltonian from nuclear
 Smallest overlap matrix eigenvalue = 1.55E-03
 Multipole matrices computed through 2nd order

  Scale SEOQF with 1.000000e-01/1.000000e-01/1.000000e-01

 Standard Electronic Orientation quadrupole field applied
 Nucleus-field energy     =    -0.0000000016 hartrees
 Guess from superposition of atomic densities
 Warning:  Energy on first SCF cycle will be non-variational
 Long-range K will be added via erf
 Coulomb attenuation parameter = 0.15 bohr**(-1)
 A restricted Kohn-Sham SCF calculation will be
 performed using Pulay DIIS extrapolation
 Exchange:  wPBE + LR-HF      Correlation:  PBE
 Using SG-1 standard quadrature grid
 SCF converges when DIIS error is below 1.0E-05
 Requested basis set is G3large
 There are 30 shells and 126 basis functions
 A cutoff of  1.0D-08 yielded    433 shell pairs
 There are   7808 function pairs ( 10265 Cartesian)
 Warning!  Inaccurate integrated density:
   Number of electrons =    22
   Numerical integral  =    23.000032766208
   Relative error      =     4.5456034828 %
 ---------------------------------------
  Cycle       Energy         DIIS Error
 ---------------------------------------
    1    -205.6192562922      4.61E-02
    2    -204.3207448005      1.22E-02
    3    -203.7913479646      2.47E-02
    4    -204.5612821608      1.93E-03
    5    -204.5647012202      9.53E-04
    6    -204.5635922336      1.28E-03
    7    -204.5658704872      7.23E-05
    8    -204.5658817020      1.52E-05
    9    -204.5658819955      4.94E-06 Convergence criterion met
 ---------------------------------------
 One-Electron    Energy =  -400.1617098962
 Total Coulomb   Energy =   153.9322439164
 Alpha Exchange  Energy =    -0.9143247305
 Beta  Exchange  Energy =    -0.9143247305
 DFT   Exchange  Energy =   -20.7479797580
 DFT Correlation Energy =    -0.7446718693
 Nuclear Repu.   Energy =    64.9848850726
 Nuclear Attr.   Energy =  -604.0273032419
 Kinetic         Energy =   203.8655933458
 SCF time:  CPU 22.22 s  wall 22.62 s
 Final Alpha MO Eigenvalues
            1           2           3           4           5           6
    1 -19.3485058 -19.3484425 -14.7088998  -1.6532583  -1.5152023  -1.0473582
            7           8           9          10          11          12
    1  -0.9635244  -0.9593240  -0.9551421  -0.7782421  -0.7656013  -0.5125794
           13          14          15          16
    1  -0.4100651  -0.1493490  -0.0916768  -0.0723051
 Analysis of SCF Wavefunction
 
 --------------------------------------------------------------
                    Orbital Energies (a.u.)
 --------------------------------------------------------------
 
 Alpha MOs
 -- Occupied --
-19.349 -19.348 -14.709  -1.653  -1.515  -1.047  -0.964  -0.959
 -0.955  -0.778  -0.766
 -- Virtual --
 -0.513  -0.410  -0.149  -0.092  -0.072  -0.071  -0.070   0.017
  0.022   0.034   0.059   0.069   0.097   0.104   0.128   0.191
  0.431   0.443   0.488   0.559   0.587   0.673   0.701   0.714
  0.737   0.738   0.780   0.795   0.804   1.059   1.121   1.180
  1.188   1.220   1.227   1.304   1.476   1.668   1.811   1.905
  2.047   2.060   2.202   3.046   3.064   3.166   3.208   3.224
  3.283   3.534   3.537   3.903   3.915   3.983   4.054   4.134
  4.186   4.250   4.470   4.481   4.494   4.552   4.569   4.599
  4.601   4.611   4.825   4.932   5.005   5.022   5.061   5.213
  5.644   5.948   6.229   6.236   6.252   6.280   6.393   6.501
  6.562   6.642   6.665   6.727   6.910   7.118   7.274   7.591
 35.241  36.682  36.856  37.723  39.723  39.815  39.889  40.016
 40.118  43.017  43.032  43.076  43.083  43.120  43.186  43.189
 43.217  43.306  43.365  45.028  45.043  45.054  45.182  45.675
 46.018  49.380  49.447
 --------------------------------------------------------------
 
          Ground-State Mulliken Net Atomic Charges

     Atom                 Charge (a.u.)
  ----------------------------------------
      1 N                     0.271985
      2 O                     0.364040
      3 O                     0.363975
  ----------------------------------------
  Sum of atomic charges =     1.000000

 -----------------------------------------------------------------
                    Cartesian Multipole Moments
 -----------------------------------------------------------------
    Charge (ESU x 10^10)
                 4.8032
    Dipole Moment (Debye)
         X       1.0109      Y       0.0000      Z       0.4306
       Tot       1.0988
    Quadrupole Moments (Debye-Ang)
        XX     -11.7251     XY       0.0000     YY     -12.9699
        XZ      -0.3992     YZ       0.0000     ZZ     -10.9577
    Octapole Moments (Debye-Ang^2)
       XXX      -9.8863    XXY       0.0001    XYY      -3.8178
       YYY       0.0000    XXZ      -2.6079    XYZ      -0.0001
       YYZ      -1.6272    XZZ      -2.6529    YZZ      -0.0001
       ZZZ      -2.7361
    Hexadecapole Moments (Debye-Ang^3)
      XXXX     -25.8955   XXXY       0.0001   XXYY      -6.0618
      XYYY       0.0000   YYYY      -8.4983   XXXZ       8.5623
      XXYZ      -0.0001   XYYZ       3.3328   YYYZ       0.0000
      XXZZ     -14.5838   XYZZ      -0.0001   YYZZ     -12.4617
      XZZZ       9.9183   YZZZ      -0.0001   ZZZZ     -61.3820
 -----------------------------------------------------------------
 Total job time:  22.75s(wall), 22.34s(cpu) 
 Sun Jul  7 09:43:23 2013

        *************************************************************
        *                                                           *
        *  Thank you very much for using Q-Chem.  Have a nice day.  *
        *                                                           *
        *************************************************************


0 sent ACK to 0 
now end server 0 ... 
