Process 0 of 1 is on cl192.stfx.acenet.ca - thread support 1
initial socket setup ...start
initial socket setup ...done 
now start server 0 ... 

cmd = /usr/bin/ssh clhead /usr/local/qchem/bin/get_hostid 314709484 > /scratch/tmp/4503949.1.medium.q/qchem9299/lic.dat
                  Welcome to Q-Chem
     A Quantum Leap Into The Future Of Chemistry

 Y. Shao, L. Fusti-Molnar, Y. Jung, J. Kussmann, C. Ochsenfeld,
 S. T. Brown, A. T. B. Gilbert, L. V. Slipchenko,S. V. Levchenko,
 D. P. O'Neill, R. A. DiStasio Jr., R. C. Lochan, T. Wang,
 G. J. O. Beran, N. A. Besley, J. M. Herbert, C. Y. Lin,
 T. Van Voorhis, S. H. Chien, A. Sodt, R. P. Steele, 
 V. A. Rassolov, P. E. Maslen, P. P. Korambath, R. D. Adamson,
 B. Austin, J. Baker, E. F. C. Byrd, H. Dachsel, R. J. Doerksen,
 A. Dreuw, B. D. Dunietz, A. D. Dutoi, T. R. Furlani,
 S. R. Gwaltney, A. Heyden, S. Hirata, C.-P. Hsu, G. Kedziora,
 R. Z. Khaliullin, P. Klunzinger, A. M. Lee, M. S. Lee, W. Liang,
 I. Lotan, N. Nair, B. Peters, E. I. Proynov, P. A. Pieniazek, 
 Y. M. Rhee, J. Ritchie, E. Rosta, C. D. Sherrill, 
 A. C. Simmonett, J. E. Subotnik, H. L. Woodcock III,
 W. Zhang, A. T. Bell, A. K. Chakraborty, D. M. Chipman,
 F. J. Keil, A. Warshel, W. J. Hehre, H. F. Schaefer III,
 J. Kong, A. I. Krylov, P. M. W. Gill, M. Head-Gordon,
 Q-Chem, Version 3.1, Q-Chem, Inc., Pittsburgh, PA (2007).

 Additional authors for Version 3.1: 
 Z. Gan, Y. Zhao, N. E. Schultz, D. Truhlar, E. Epifanovsky and M. Oana.

 Additional authors for Version 3.2: 
 R. Baer, B. R. Brooks, D. Casanova, J.-D. Chai, C.-L. Cheng, 
 C. Cramer, D. Crittenden, A. Ghysels, G. Hawkins, E. G. Hohenstein, 
 C. Kelley, W. Kurlancheek, D. Liotard, E. Livshits, P. Manohar, 
 A. Marenich, D. Neuhauser, R. Olson, M. A. Rohrdanz, K. S. Thanthiriwatte, 
 A. J. W. Thom, V. Vanovschi, C. F. Williams, Q. Wu and Z.-Q. You. 


 Intel X86 Linux Version

 Q-chem begins on Sun Apr 17 21:09:16 2011  

 Parallel job on  1  processors
Processing $rem in /usr/local/qchem/config/preferences.

theFileMan(): MAXOPENFILES=974 MAX_SUB_FILE_NUM=16
Maximum size of a physical file is 2.0 GB, maximum size of a tmp-file is 32.0 GB


--------------------------------------------------------------
User input:
--------------------------------------------------------------

$molecule
0,1
C
X,1,1.
Cl,1,CCl,2,HClX
Cl,1,CCl,2,HClX,3,180.,0
H,1,CH,2,HCX,3,90.,0
H,1,CH,2,HCX,3,-90.,0

CCl=1.79088554
CH=1.08757434
HClX=56.65320917
HCX=124.25124469

$end

$comment
neutral
$end

$xc_functional
   X HF 1.0
   X BNL 1.0
   C LYP 1.0
$end

$rem
SYMMETRY_DECOMPOSITION	0
exchange 		general
BASIS                   g3large
omega			430 
JOBTYPE                 opt
separate_jk		true
mem_static              760
max_scf_cycles          200
scf_final_print         1
sym_ignore              true
$end


--------------------------------------------------------------
 Writing REM_CC_EA            5
 ----------------------------------------------------
       Standard Nuclear Orientation (Angstroms)
    I     Atom         X            Y            Z
 ----------------------------------------------------
    1      C       0.000000     0.000000     0.000000
    2      Cl      1.496032     0.000000     0.984459
    3      Cl     -1.496032     0.000000     0.984459
    4      H       0.000000    -0.898965    -0.612112
    5      H       0.000000     0.898965    -0.612112
 ----------------------------------------------------
 Nuclear Repulsion Energy =   132.7368262598 hartrees
 There are       21 alpha and       21 beta electrons
 Requested basis set is G3large
 There are 60 shells and 194 basis functions

Total QAlloc Memory Limit   2000 MB
Mega-Array Size       743 MB
MEM_STATIC part       760 MB
 A cutoff of  1.0D-11 yielded   1695 shell pairs
 There are  17822 function pairs ( 24116 Cartesian)
Evaluating contribution to one-electron hamiltonian from nuclear
 Smallest overlap matrix eigenvalue = 1.89E-04
 Multipole matrices computed through 2nd order

  Scale SEOQF with 1.000000e-01/1.000000e-01/1.000000e-01

 Standard Electronic Orientation quadrupole field applied
 Nucleus-field energy     =    -0.0000000008 hartrees
 Guess from superposition of atomic densities
 Warning:  Energy on first SCF cycle will be non-variational
 A restricted hybrid HF-DFT SCF calculation will be
 performed using Pulay DIIS extrapolation
 Exchange:     1.0000 Hartree-Fock + 1.0000 BNL
 Correlation:  1.0000 LYP
 Using SG-1 standard quadrature grid
 SCF converges when DIIS error is below 1.0E-08
 ---------------------------------------
  Cycle       Energy         DIIS Error
 ---------------------------------------
    1    -955.8849827624      2.63E-02
    2    -955.4816140547      2.97E-03
    3    -955.4984136034      2.91E-03
    4    -955.5305005069      2.77E-04
    5    -955.5312746452      1.00E-04
    6    -955.5313948870      3.11E-05
    7    -955.5314075519      8.16E-06
    8    -955.5314086054      3.16E-06
    9    -955.5314087161      1.08E-06
   10    -955.5314087345      2.45E-07
   11    -955.5314087355      7.18E-08
   12    -955.5314087352      2.34E-08
   13    -955.5314087371      4.61E-09 Convergence criterion met
 ---------------------------------------
 One-Electron    Energy = -1586.6984626974
 Total Coulomb   Energy =   556.7199846842
 Alpha Exchange  Energy =    -4.6064268152
 Beta  Exchange  Energy =    -4.6064268152
 DFT   Exchange  Energy =   -47.4046964612
 DFT Correlation Energy =    -1.6722068911
 Nuclear Repu.   Energy =   132.7368262590
 Nuclear Attr.   Energy = -2540.4029692836
 Kinetic         Energy =   953.7045065862
 SCF time:  CPU 173.28 s  wall 175.89 s
 Final Alpha MO Eigenvalues
            1           2           3           4           5           6
    1-100.5199352-100.5199344 -10.1214577  -9.3734490  -9.3734469  -7.2268161
            7           8           9          10          11          12
    1  -7.2268117  -7.2153374  -7.2153336  -7.2151706  -7.2151675  -1.0602224
           13          14          15          16          17          18
    1  -0.9804030  -0.8103775  -0.6326714  -0.5909905  -0.5695818  -0.4565868
           19          20          21          22          23          24
    1  -0.4549019  -0.4353613  -0.4292010   0.0288324   0.0555125   0.0579666
           25          26
    1   0.0686836   0.1017974
 Analysis of SCF Wavefunction
 
 --------------------------------------------------------------
                    Orbital Energies (a.u.)
 --------------------------------------------------------------
 
 Alpha MOs
 -- Occupied --
*******-100.520 -10.121  -9.373  -9.373  -7.227  -7.227  -7.215
 -7.215  -7.215  -7.215  -1.060  -0.980  -0.810  -0.633  -0.591
 -0.570  -0.457  -0.455  -0.435  -0.429
 -- Virtual --
  0.029   0.056   0.058   0.069   0.102   0.120   0.121   0.136
  0.139   0.142   0.144   0.173   0.179   0.184   0.199   0.218
  0.230   0.311   0.341   0.353   0.371   0.394   0.395   0.432
  0.442   0.460   0.502   0.505   0.510   0.543   0.564   0.570
  0.587   0.624   0.646   0.673   0.688   0.754   0.777   0.805
  0.829   0.980   1.030   1.034   1.037   1.037   1.132   1.138
  1.150   1.173   1.194   1.199   1.204   1.206   1.232   1.236
  1.240   1.247   1.263   1.266   1.347   1.401   1.433   1.453
  1.486   1.488   1.488   1.534   1.557   1.559   1.616   1.670
  1.730   1.740   1.753   1.819   1.837   2.263   2.281   2.323
  2.335   2.351   2.480   2.668   2.718   3.063   3.094   3.107
  3.236   3.318   3.360   3.446   3.481   3.504   3.609   3.638
  3.689   3.813   3.964   3.970   4.238   4.239   4.390   4.421
  4.451   4.463   4.486   4.487   4.497   4.509   4.514   4.535
  4.569   4.630   4.645   4.650   4.707   4.749   5.105   5.111
  5.131   5.133   5.237   5.242   5.288   5.331   5.363   5.756
  5.775   5.797   9.824   9.876  20.586  20.590  20.609  20.618
 20.805  20.850  24.121  27.142  27.144  27.171  27.207  27.234
 27.244  27.247  27.289  27.292  27.316  27.989  28.015  28.125
 36.882  36.884  36.886  36.888  36.889  36.891  36.894  36.894
 36.897  36.898  36.905  36.906  36.910  36.913  40.819  40.876
 41.163  41.170  41.234 216.277 216.357
 --------------------------------------------------------------
 
          Ground-State Mulliken Net Atomic Charges

     Atom                 Charge (a.u.)
  ----------------------------------------
      1 C                     0.180547
      2 Cl                   -0.215866
      3 Cl                   -0.215866
      4 H                     0.125593
      5 H                     0.125593
  ----------------------------------------
  Sum of atomic charges =     0.000000

 -----------------------------------------------------------------
                    Cartesian Multipole Moments
 -----------------------------------------------------------------
    Charge (ESU x 10^10)
                 0.0000
    Dipole Moment (Debye)
         X       0.0000      Y       0.0000      Z      -1.7494
       Tot       1.7494
    Quadrupole Moments (Debye-Ang)
        XX     -34.4231     XY       0.0000     YY     -31.8062
        XZ       0.0000     YZ       0.0000     ZZ     -32.7946
    Octapole Moments (Debye-Ang^2)
       XXX       0.0000    XXY       0.0000    XYY       0.0000
       YYY       0.0000    XXZ     -21.6387    XYZ       0.0000
       YYZ     -26.4706    XZZ       0.0000    YZZ       0.0000
       ZZZ     -74.0912
    Hexadecapole Moments (Debye-Ang^3)
      XXXX    -369.2503   XXXY       0.0000   XXYY     -73.8820
      XYYY       0.0000   YYYY     -43.3758   XXXZ       0.0000
      XXYZ       0.0000   XYYZ       0.0000   YYYZ       0.0000
      XXZZ     -87.0540   XYZZ       0.0000   YYZZ     -39.5874
      XZZZ       0.0000   YZZZ       0.0000   ZZZZ    -189.6249
 -----------------------------------------------------------------
 Calculating analytic gradient of the SCF energy
 Gradient of AOints
            1           2           3           4           5
    1  -0.0000004 -18.2418243  18.2418246   0.0000002  -0.0000001
    2   0.0000016  -0.0000012  -0.0000002   3.5301241  -3.5301243
    3   5.8642646  -6.3601572  -6.3601577   3.4280252   3.4280250
 Gradient of XC Energy
            1           2           3           4           5
    1   0.0000000   0.1472807  -0.1472807  -0.0000000   0.0000000
    2  -0.0000000   0.0000000   0.0000000  -0.1268363   0.1268363
    3   0.0133205   0.0914013   0.0914013  -0.0980615  -0.0980615
 Gradient of SCF Energy
            1           2           3           4           5
    1  -0.0000000   0.0194931  -0.0194931   0.0000000   0.0000000
    2  -0.0000000   0.0000000   0.0000000   0.0013811  -0.0013811
    3  -0.0212573   0.0103842   0.0103842   0.0002445   0.0002445
 Max gradient component =       2.126E-02
 RMS gradient           =       9.769E-03
 Gradient time:  CPU 79.00 s  wall 79.37 s
 Geometry Optimization Parameters
   NAtoms,    NIC,     NZ,  NCons,   NDum,   NFix, NCnnct, MaxDiis
        5      20       6       0       0       0       0       0


** GEOMETRY OPTIMIZATION IN DELOCALIZED INTERNAL COORDINATES **
   Searching for a Minimum

   Optimization Cycle:   1

                       Coordinates (Angstroms)
     ATOM              X           Y           Z
    1  C           0.000000    0.000000    0.000000
    2  Cl          1.496032    0.000000    0.984459
    3  Cl         -1.496032    0.000000    0.984459
    4  H           0.000000   -0.898965   -0.612112
    5  H           0.000000    0.898965   -0.612112
   Point Group: c1    Number of degrees of freedom:   9


   Energy is   -955.531408737


 Attempting to Generate Delocalized Internal Coordinates

  8 Hessian modes will be used to form the next step
  Hessian Eigenvalues:
     0.160000    0.160000    0.160000    0.160000    0.235062    0.268480
     0.350945    0.350945

 Minimum Search - Taking Simple RFO Step
 Searching for Lamda that Minimizes Along All modes
 Value Taken    Lamda =  -0.00374646
 Step Taken.  Stepsize is  0.117752

                             Maximum     Tolerance    Cnvgd?
         Gradient           0.020986      0.000300      NO
         Displacement       0.078169      0.001200      NO
         Energy change     *********      0.000001      NO


 New Cartesian Coordinates Obtained by Inverse Iteration

 Displacement from previous Coordinates is:  0.129593
 Writing REM_CC_EA            5
 ----------------------------------------------------
       Standard Nuclear Orientation (Angstroms)
    I     Atom         X            Y            Z
 ----------------------------------------------------
    1      C       0.000000     0.000000     0.000651
    2      Cl      1.448210     0.000000     0.979766
    3      Cl     -1.448210     0.000000     0.979766
    4      H       0.000000    -0.903786    -0.607744
    5      H       0.000000     0.903786    -0.607744
 ----------------------------------------------------
 Nuclear Repulsion Energy =   136.1105511275 hartrees
 There are       21 alpha and       21 beta electrons
 Applying Cartesian multipole field
    Component          Value
    ---------          -----
     (2,0,0)        1.00000E-11
     (0,2,0)        2.00000E-11
     (0,0,2)       -3.00000E-11
 Nucleus-field energy     =    -0.0000000009 hartrees
 Requested basis set is G3large
 There are 60 shells and 194 basis functions
 A cutoff of  1.0D-11 yielded   1707 shell pairs
 There are  17922 function pairs ( 24266 Cartesian)
Evaluating contribution to one-electron hamiltonian from nuclear
 Smallest overlap matrix eigenvalue = 1.69E-04
 Multipole matrices computed through 2nd order
 Guess MOs from SCF MO coefficient file
Reading MOs from coefficient file
Reading MOs from coefficient file
 A restricted hybrid HF-DFT SCF calculation will be
 performed using Pulay DIIS extrapolation
 Exchange:     1.0000 Hartree-Fock + 1.0000 BNL
 Correlation:  1.0000 LYP
 Using SG-1 standard quadrature grid
 SCF converges when DIIS error is below 1.0E-08
 ---------------------------------------
  Cycle       Energy         DIIS Error
 ---------------------------------------
    1    -955.5819998830      1.25E-03
    2    -955.5331725863      1.93E-04
    3    -955.5332745217      1.48E-04
    4    -955.5333463499      2.10E-05
    5    -955.5333495700      9.79E-06
    6    -955.5333504621      3.05E-06
    7    -955.5333505663      8.04E-07
    8    -955.5333505727      2.44E-07
    9    -955.5333505748      3.33E-08
   10    -955.5333505720      8.68E-09 Convergence criterion met
 ---------------------------------------
 One-Electron    Energy = -1593.4286399640
 Total Coulomb   Energy =   560.1109019444
 Alpha Exchange  Energy =    -4.6093342649
 Beta  Exchange  Energy =    -4.6093342649
 DFT   Exchange  Energy =   -47.4327286630
 DFT Correlation Energy =    -1.6747664862
 Nuclear Repu.   Energy =   136.1105511266
 Nuclear Attr.   Energy = -2547.2735910871
 Kinetic         Energy =   953.8449511230
 SCF time:  CPU 138.42 s  wall 140.82 s
 Final Alpha MO Eigenvalues
            1           2           3           4           5           6
    1-100.5175833-100.5175829 -10.1147627  -9.3720272  -9.3720247  -7.2251614
            7           8           9          10          11          12
    1  -7.2251573  -7.2138273  -7.2138236  -7.2137162  -7.2137131  -1.0733282
           13          14          15          16          17          18
    1  -0.9836257  -0.8056219  -0.6378148  -0.5989163  -0.5754871  -0.4563451
           19          20          21          22          23          24
    1  -0.4558843  -0.4319851  -0.4260474   0.0297708   0.0549912   0.0643855
           25          26
    1   0.0713060   0.1048061
 Analysis of SCF Wavefunction
 
 --------------------------------------------------------------
                    Orbital Energies (a.u.)
 --------------------------------------------------------------
 
 Alpha MOs
 -- Occupied --
*******-100.518 -10.115  -9.372  -9.372  -7.225  -7.225  -7.214
 -7.214  -7.214  -7.214  -1.073  -0.984  -0.806  -0.638  -0.599
 -0.575  -0.456  -0.456  -0.432  -0.426
 -- Virtual --
  0.030   0.055   0.064   0.071   0.105   0.120   0.122   0.136
  0.140   0.146   0.148   0.174   0.184   0.184   0.206   0.218
  0.230   0.309   0.342   0.355   0.367   0.395   0.397   0.436
  0.449   0.462   0.496   0.505   0.512   0.548   0.566   0.574
  0.589   0.623   0.658   0.688   0.689   0.763   0.778   0.812
  0.838   0.983   1.021   1.041   1.044   1.045   1.128   1.135
  1.148   1.165   1.199   1.199   1.208   1.209   1.241   1.243
  1.245   1.247   1.269   1.273   1.365   1.423   1.453   1.457
  1.483   1.489   1.527   1.553   1.562   1.566   1.625   1.672
  1.736   1.756   1.771   1.853   1.859   2.262   2.293   2.330
  2.340   2.368   2.508   2.693   2.719   3.081   3.111   3.117
  3.249   3.324   3.371   3.444   3.491   3.513   3.636   3.643
  3.686   3.825   3.960   3.967   4.235   4.240   4.404   4.423
  4.454   4.465   4.486   4.488   4.495   4.501   4.528   4.549
  4.567   4.648   4.659   4.667   4.736   4.766   5.109   5.112
  5.137   5.139   5.271   5.279   5.327   5.356   5.366   5.760
  5.845   5.858   9.866   9.896  20.590  20.599  20.615  20.623
 20.817  20.861  24.144  27.146  27.148  27.187  27.217  27.236
 27.250  27.251  27.300  27.307  27.330  28.045  28.087  28.138
 36.883  36.884  36.887  36.890  36.890  36.892  36.896  36.898
 36.898  36.900  36.909  36.910  36.916  36.920  40.826  40.885
 41.170  41.180  41.239 216.320 216.376
 --------------------------------------------------------------
 
          Ground-State Mulliken Net Atomic Charges

     Atom                 Charge (a.u.)
  ----------------------------------------
      1 C                     0.173044
      2 Cl                   -0.206505
      3 Cl                   -0.206505
      4 H                     0.119983
      5 H                     0.119983
  ----------------------------------------
  Sum of atomic charges =     0.000000

 -----------------------------------------------------------------
                    Cartesian Multipole Moments
 -----------------------------------------------------------------
    Charge (ESU x 10^10)
                 0.0000
    Dipole Moment (Debye)
         X       0.0000      Y       0.0000      Z      -1.6966
       Tot       1.6966
    Quadrupole Moments (Debye-Ang)
        XX     -34.3306     XY       0.0000     YY     -31.6914
        XZ       0.0000     YZ       0.0000     ZZ     -32.7253
    Octapole Moments (Debye-Ang^2)
       XXX       0.0000    XXY       0.0000    XYY       0.0000
       YYY       0.0000    XXZ     -21.6038    XYZ       0.0000
       YYZ     -26.2775    XZZ       0.0000    YZZ       0.0000
       ZZZ     -73.4324
    Hexadecapole Moments (Debye-Ang^3)
      XXXX    -349.2713   XXXY       0.0000   XXYY     -70.0613
      XYYY       0.0000   YYYY     -43.2180   XXXZ       0.0000
      XXYZ       0.0000   XYYZ       0.0000   YYYZ       0.0000
      XXZZ     -83.2143   XYZZ       0.0000   YYZZ     -39.3377
      XZZZ       0.0000   YZZZ       0.0000   ZZZZ    -187.6379
 -----------------------------------------------------------------
 Calculating analytic gradient of the SCF energy
 Gradient of AOints
            1           2           3           4           5
    1   0.0000000 -18.7705576  18.7705575  -0.0000002   0.0000002
    2  -0.0000022   0.0000011   0.0000006   3.6179497  -3.6179493
    3   6.5286627  -6.6499526  -6.6499526   3.3856207   3.3856217
 Gradient of XC Energy
            1           2           3           4           5
    1   0.0000000   0.1506292  -0.1506292   0.0000000  -0.0000000
    2   0.0000000  -0.0000000  -0.0000000  -0.1280001   0.1280000
    3  -0.0021167   0.0972416   0.0972416  -0.0961833  -0.0961833
 Gradient of SCF Energy
            1           2           3           4           5
    1   0.0000000   0.0001044  -0.0001044   0.0000000  -0.0000000
    2   0.0000000  -0.0000000  -0.0000000  -0.0006674   0.0006674
    3  -0.0062356   0.0011325   0.0011325   0.0019853   0.0019853
 Max gradient component =       6.236E-03
 RMS gradient           =       1.830E-03
 Gradient time:  CPU 80.33 s  wall 80.65 s
 Geometry Optimization Parameters
   NAtoms,    NIC,     NZ,  NCons,   NDum,   NFix, NCnnct, MaxDiis
        5      20       6       0       0       0       0       0

 Cartesian Hessian Update
 Hessian Updated using BFGS Update


** GEOMETRY OPTIMIZATION IN DELOCALIZED INTERNAL COORDINATES **
   Searching for a Minimum

   Optimization Cycle:   2

                       Coordinates (Angstroms)
     ATOM              X           Y           Z
    1  C           0.000000    0.000000    0.000651
    2  Cl          1.448210    0.000000    0.979766
    3  Cl         -1.448210    0.000000    0.979766
    4  H           0.000000   -0.903786   -0.607744
    5  H           0.000000    0.903786   -0.607744
   Point Group: c1    Number of degrees of freedom:   9


   Energy is   -955.533350572

 Hessian Updated using BFGS Update

  5 Hessian modes will be used to form the next step
  Hessian Eigenvalues:
     0.156641    0.160000    0.228120    0.286308    0.350889

 Minimum Search - Taking Simple RFO Step
 Searching for Lamda that Minimizes Along All modes
 Value Taken    Lamda =  -0.00014234
 Step Taken.  Stepsize is  0.028068

                             Maximum     Tolerance    Cnvgd?
         Gradient           0.003805      0.000300      NO
         Displacement       0.021047      0.001200      NO
         Energy change     -0.001942      0.000001      NO


 New Cartesian Coordinates Obtained by Inverse Iteration

 Displacement from previous Coordinates is:  0.026573
 Writing REM_CC_EA            5
 ----------------------------------------------------
       Standard Nuclear Orientation (Angstroms)
    I     Atom         X            Y            Z
 ----------------------------------------------------
    1      C       0.000000     0.000000     0.009269
    2      Cl      1.451650     0.000000     0.977797
    3      Cl     -1.451650     0.000000     0.977797
    4      H       0.000000    -0.897418    -0.610084
    5      H       0.000000     0.897418    -0.610084
 ----------------------------------------------------
 Nuclear Repulsion Energy =   136.0909494485 hartrees
 There are       21 alpha and       21 beta electrons
 Applying Cartesian multipole field
    Component          Value
    ---------          -----
     (2,0,0)        1.00000E-11
     (0,2,0)        2.00000E-11
     (0,0,2)       -3.00000E-11
 Nucleus-field energy     =    -0.0000000009 hartrees
 Requested basis set is G3large
 There are 60 shells and 194 basis functions
 A cutoff of  1.0D-11 yielded   1707 shell pairs
 There are  17922 function pairs ( 24266 Cartesian)
Evaluating contribution to one-electron hamiltonian from nuclear
 Smallest overlap matrix eigenvalue = 1.69E-04
 Multipole matrices computed through 2nd order
 Guess MOs from SCF MO coefficient file
Reading MOs from coefficient file
Reading MOs from coefficient file
 A restricted hybrid HF-DFT SCF calculation will be
 performed using Pulay DIIS extrapolation
 Exchange:     1.0000 Hartree-Fock + 1.0000 BNL
 Correlation:  1.0000 LYP
 Using SG-1 standard quadrature grid
 SCF converges when DIIS error is below 1.0E-08
 ---------------------------------------
  Cycle       Energy         DIIS Error
 ---------------------------------------
    1    -955.5353704004      1.97E-04
    2    -955.5334271024      3.50E-05
    3    -955.5334323416      2.60E-05
    4    -955.5334351284      5.38E-06
    5    -955.5334353958      2.26E-06
    6    -955.5334354544      7.37E-07
    7    -955.5334354585      1.78E-07
    8    -955.5334354580      3.47E-08
    9    -955.5334354601      7.35E-09 Convergence criterion met
 ---------------------------------------
 One-Electron    Energy = -1593.3806432914
 Total Coulomb   Energy =   560.0838102613
 Alpha Exchange  Energy =    -4.6094536876
 Beta  Exchange  Energy =    -4.6094536876
 DFT   Exchange  Energy =   -47.4337938946
 DFT Correlation Energy =    -1.6748506078
 Nuclear Repu.   Energy =   136.0909494476
 Nuclear Attr.   Energy = -2547.2292004285
 Kinetic         Energy =   953.8485571372
 SCF time:  CPU 122.46 s  wall 123.86 s
 Final Alpha MO Eigenvalues
            1           2           3           4           5           6
    1-100.5178570-100.5178565 -10.1141579  -9.3723221  -9.3723194  -7.2254485
            7           8           9          10          11          12
    1  -7.2254443  -7.2141298  -7.2141259  -7.2140013  -7.2139982  -1.0737762
           13          14          15          16          17          18
    1  -0.9845724  -0.8054817  -0.6360465  -0.6000054  -0.5764515  -0.4567694
           19          20          21          22          23          24
    1  -0.4556413  -0.4329707  -0.4251895   0.0297766   0.0552302   0.0645060
           25          26
    1   0.0715731   0.1048299
 Analysis of SCF Wavefunction
 
 --------------------------------------------------------------
                    Orbital Energies (a.u.)
 --------------------------------------------------------------
 
 Alpha MOs
 -- Occupied --
*******-100.518 -10.114  -9.372  -9.372  -7.225  -7.225  -7.214
 -7.214  -7.214  -7.214  -1.074  -0.985  -0.805  -0.636  -0.600
 -0.576  -0.457  -0.456  -0.433  -0.425
 -- Virtual --
  0.030   0.055   0.065   0.072   0.105   0.120   0.122   0.136
  0.140   0.146   0.149   0.173   0.184   0.184   0.206   0.216
  0.230   0.311   0.342   0.355   0.367   0.396   0.396   0.436
  0.448   0.461   0.496   0.505   0.512   0.548   0.566   0.573
  0.589   0.622   0.658   0.688   0.691   0.760   0.779   0.813
  0.839   0.982   1.020   1.042   1.043   1.043   1.130   1.140
  1.146   1.170   1.198   1.199   1.207   1.208   1.241   1.241
  1.245   1.247   1.269   1.274   1.365   1.425   1.452   1.458
  1.484   1.489   1.524   1.553   1.564   1.569   1.627   1.674
  1.735   1.753   1.771   1.855   1.856   2.263   2.291   2.331
  2.343   2.369   2.507   2.689   2.718   3.082   3.114   3.119
  3.246   3.319   3.371   3.446   3.491   3.514   3.639   3.647
  3.687   3.826   3.959   3.960   4.238   4.248   4.403   4.422
  4.454   4.465   4.483   4.485   4.495   4.502   4.528   4.547
  4.569   4.642   4.663   4.666   4.739   4.765   5.109   5.112
  5.136   5.138   5.271   5.278   5.329   5.356   5.362   5.767
  5.849   5.863   9.865   9.896  20.589  20.598  20.615  20.625
 20.817  20.861  24.143  27.146  27.148  27.188  27.217  27.236
 27.250  27.252  27.300  27.307  27.333  28.049  28.095  28.134
 36.883  36.884  36.887  36.890  36.890  36.892  36.896  36.897
 36.898  36.899  36.908  36.910  36.915  36.920  40.827  40.883
 41.170  41.181  41.241 216.319 216.375
 --------------------------------------------------------------
 
          Ground-State Mulliken Net Atomic Charges

     Atom                 Charge (a.u.)
  ----------------------------------------
      1 C                     0.171490
      2 Cl                   -0.205494
      3 Cl                   -0.205494
      4 H                     0.119750
      5 H                     0.119750
  ----------------------------------------
  Sum of atomic charges =     0.000000

 -----------------------------------------------------------------
                    Cartesian Multipole Moments
 -----------------------------------------------------------------
    Charge (ESU x 10^10)
                 0.0000
    Dipole Moment (Debye)
         X       0.0000      Y       0.0000      Z      -1.6876
       Tot       1.6876
    Quadrupole Moments (Debye-Ang)
        XX     -34.2779     XY       0.0000     YY     -31.7278
        XZ       0.0000     YZ       0.0000     ZZ     -32.7177
    Octapole Moments (Debye-Ang^2)
       XXX       0.0000    XXY       0.0000    XYY       0.0000
       YYY       0.0000    XXZ     -21.5774    XYZ       0.0000
       YYZ     -26.2403    XZZ       0.0000    YZZ       0.0000
       ZZZ     -73.4688
    Hexadecapole Moments (Debye-Ang^3)
      XXXX    -350.1142   XXXY       0.0000   XXYY     -70.2811
      XYYY       0.0000   YYYY     -43.2277   XXXZ       0.0000
      XXYZ       0.0000   XYYZ       0.0000   YYYZ       0.0000
      XXZZ     -83.4378   XYZZ       0.0000   YYZZ     -39.2273
      XZZZ       0.0000   YZZZ       0.0000   ZZZZ    -187.2068
 -----------------------------------------------------------------
 Calculating analytic gradient of the SCF energy
 Gradient of AOints
            1           2           3           4           5
    1  -0.0000001 -18.8347350  18.8347350  -0.0000000   0.0000001
    2   0.0000002   0.0000000  -0.0000001   3.5440369  -3.5440370
    3   6.2481769  -6.5844162  -6.5844161   3.4603277   3.4603277
 Gradient of XC Energy
            1           2           3           4           5
    1   0.0000000   0.1524002  -0.1524002   0.0000000  -0.0000000
    2  -0.0000000   0.0000000   0.0000000  -0.1260678   0.1260678
    3   0.0040298   0.0962730   0.0962730  -0.0982879  -0.0982879
 Gradient of SCF Energy
            1           2           3           4           5
    1   0.0000000  -0.0000085   0.0000085   0.0000000  -0.0000000
    2  -0.0000000  -0.0000000   0.0000000  -0.0001146   0.0001146
    3  -0.0011851   0.0000208   0.0000208   0.0005718   0.0005717
 Max gradient component =       1.185E-03
 RMS gradient           =       3.729E-04
 Gradient time:  CPU 80.58 s  wall 80.82 s
 Geometry Optimization Parameters
   NAtoms,    NIC,     NZ,  NCons,   NDum,   NFix, NCnnct, MaxDiis
        5      20       6       0       0       0       0       0

 Cartesian Hessian Update
 Hessian Updated using BFGS Update


** GEOMETRY OPTIMIZATION IN DELOCALIZED INTERNAL COORDINATES **
   Searching for a Minimum

   Optimization Cycle:   3

                       Coordinates (Angstroms)
     ATOM              X           Y           Z
    1  C           0.000000    0.000000    0.009269
    2  Cl          1.451650    0.000000    0.977797
    3  Cl         -1.451650    0.000000    0.977797
    4  H           0.000000   -0.897418   -0.610084
    5  H           0.000000    0.897418   -0.610084
   Point Group: c1    Number of degrees of freedom:   9


   Energy is   -955.533435460

 Hessian Updated using BFGS Update

  4 Hessian modes will be used to form the next step
  Hessian Eigenvalues:
     0.123885    0.237677    0.282248    0.349047

 Minimum Search - Taking Simple RFO Step
 Searching for Lamda that Minimizes Along All modes
 Value Taken    Lamda =  -0.00000858
 Step Taken.  Stepsize is  0.008160

                             Maximum     Tolerance    Cnvgd?
         Gradient           0.000748      0.000300      NO
         Displacement       0.005933      0.001200      NO
         Energy change     -0.000085      0.000001      NO


 New Cartesian Coordinates Obtained by Inverse Iteration

 Displacement from previous Coordinates is:  0.007937
 Writing REM_CC_EA            5
 ----------------------------------------------------
       Standard Nuclear Orientation (Angstroms)
    I     Atom         X            Y            Z
 ----------------------------------------------------
    1      C       0.000000     0.000000     0.011121
    2      Cl      1.451845     0.000000     0.978564
    3      Cl     -1.451845     0.000000     0.978564
    4      H       0.000000    -0.895518    -0.611777
    5      H       0.000000     0.895518    -0.611777
 ----------------------------------------------------
 Nuclear Repulsion Energy =   136.0905782320 hartrees
 There are       21 alpha and       21 beta electrons
 Applying Cartesian multipole field
    Component          Value
    ---------          -----
     (2,0,0)        1.00000E-11
     (0,2,0)        2.00000E-11
     (0,0,2)       -3.00000E-11
 Nucleus-field energy     =    -0.0000000009 hartrees
 Requested basis set is G3large
 There are 60 shells and 194 basis functions
 A cutoff of  1.0D-11 yielded   1707 shell pairs
 There are  17922 function pairs ( 24266 Cartesian)
Evaluating contribution to one-electron hamiltonian from nuclear
 Smallest overlap matrix eigenvalue = 1.69E-04
 Multipole matrices computed through 2nd order
 Guess MOs from SCF MO coefficient file
Reading MOs from coefficient file
Reading MOs from coefficient file
 A restricted hybrid HF-DFT SCF calculation will be
 performed using Pulay DIIS extrapolation
 Exchange:     1.0000 Hartree-Fock + 1.0000 BNL
 Correlation:  1.0000 LYP
 Using SG-1 standard quadrature grid
 SCF converges when DIIS error is below 1.0E-08
 ---------------------------------------
  Cycle       Energy         DIIS Error
 ---------------------------------------
    1    -955.5334940327      3.99E-05
    2    -955.5334394040      8.14E-06
    3    -955.5334395709      7.13E-06
    4    -955.5334397666      6.71E-07
    5    -955.5334397703      2.69E-07
    6    -955.5334397681      9.69E-08
    7    -955.5334397656      2.18E-08
    8    -955.5334397645      6.09E-09 Convergence criterion met
 ---------------------------------------
 One-Electron    Energy = -1593.3787938787
 Total Coulomb   Energy =   560.0822529530
 Alpha Exchange  Energy =    -4.6094512747
 Beta  Exchange  Energy =    -4.6094512747
 DFT   Exchange  Energy =   -47.4337233233
 DFT Correlation Energy =    -1.6748511972
 Nuclear Repu.   Energy =   136.0905782311
 Nuclear Attr.   Energy = -2547.2265943937
 Kinetic         Energy =   953.8478005150
 SCF time:  CPU 105.11 s  wall 106.30 s
 Final Alpha MO Eigenvalues
            1           2           3           4           5           6
    1-100.5179196-100.5179191 -10.1141040  -9.3723835  -9.3723807  -7.2255117
            7           8           9          10          11          12
    1  -7.2255075  -7.2141905  -7.2141866  -7.2140612  -7.2140580  -1.0738111
           13          14          15          16          17          18
    1  -0.9846825  -0.8055059  -0.6353945  -0.6003548  -0.5765585  -0.4568020
           19          20          21          22          23          24
    1  -0.4557184  -0.4330752  -0.4250170   0.0297515   0.0552893   0.0645311
           25          26
    1   0.0715923   0.1048478
 Analysis of SCF Wavefunction
 
 --------------------------------------------------------------
                    Orbital Energies (a.u.)
 --------------------------------------------------------------
 
 Alpha MOs
 -- Occupied --
*******-100.518 -10.114  -9.372  -9.372  -7.226  -7.226  -7.214
 -7.214  -7.214  -7.214  -1.074  -0.985  -0.806  -0.635  -0.600
 -0.577  -0.457  -0.456  -0.433  -0.425
 -- Virtual --
  0.030   0.055   0.065   0.072   0.105   0.120   0.122   0.136
  0.140   0.146   0.149   0.173   0.184   0.184   0.206   0.216
  0.230   0.311   0.342   0.355   0.367   0.396   0.396   0.436
  0.448   0.461   0.496   0.505   0.512   0.548   0.565   0.573
  0.589   0.622   0.658   0.688   0.692   0.759   0.779   0.813
  0.839   0.982   1.020   1.042   1.043   1.043   1.131   1.141
  1.145   1.171   1.198   1.200   1.207   1.208   1.240   1.240
  1.245   1.247   1.269   1.274   1.365   1.426   1.452   1.458
  1.484   1.489   1.523   1.553   1.565   1.570   1.627   1.675
  1.735   1.753   1.771   1.854   1.857   2.263   2.291   2.331
  2.343   2.369   2.507   2.687   2.718   3.082   3.115   3.120
  3.246   3.317   3.371   3.446   3.491   3.514   3.639   3.649
  3.687   3.826   3.955   3.960   4.238   4.250   4.402   4.422
  4.454   4.465   4.481   4.485   4.495   4.502   4.528   4.547
  4.570   4.640   4.664   4.666   4.739   4.764   5.109   5.112
  5.136   5.138   5.271   5.278   5.329   5.354   5.362   5.769
  5.850   5.863   9.865   9.896  20.589  20.598  20.615  20.625
 20.817  20.861  24.142  27.146  27.148  27.188  27.217  27.236
 27.250  27.252  27.300  27.307  27.333  28.050  28.095  28.132
 36.883  36.884  36.887  36.889  36.890  36.892  36.895  36.897
 36.898  36.899  36.908  36.910  36.915  36.920  40.827  40.883
 41.170  41.181  41.241 216.320 216.375
 --------------------------------------------------------------
 
          Ground-State Mulliken Net Atomic Charges

     Atom                 Charge (a.u.)
  ----------------------------------------
      1 C                     0.171613
      2 Cl                   -0.205399
      3 Cl                   -0.205399
      4 H                     0.119593
      5 H                     0.119593
  ----------------------------------------
  Sum of atomic charges =     0.000000

 -----------------------------------------------------------------
                    Cartesian Multipole Moments
 -----------------------------------------------------------------
    Charge (ESU x 10^10)
                 0.0000
    Dipole Moment (Debye)
         X       0.0000      Y       0.0000      Z      -1.6879
       Tot       1.6879
    Quadrupole Moments (Debye-Ang)
        XX     -34.2683     XY       0.0000     YY     -31.7405
        XZ       0.0000     YZ       0.0000     ZZ     -32.7103
    Octapole Moments (Debye-Ang^2)
       XXX       0.0000    XXY       0.0000    XYY       0.0000
       YYY       0.0000    XXZ     -21.5977    XYZ       0.0000
       YYZ     -26.2613    XZZ       0.0000    YZZ       0.0000
       ZZZ     -73.5554
    Hexadecapole Moments (Debye-Ang^3)
      XXXX    -350.1172   XXXY       0.0000   XXYY     -70.2863
      XYYY       0.0000   YYYY     -43.2357   XXXZ       0.0000
      XXYZ       0.0000   XYYZ       0.0000   YYYZ       0.0000
      XXZZ     -83.4822   XYZZ       0.0000   YYZZ     -39.2626
      XZZZ       0.0000   YZZZ       0.0000   ZZZZ    -187.4469
 -----------------------------------------------------------------
 Calculating analytic gradient of the SCF energy
 Gradient of AOints
            1           2           3           4           5
    1   0.0000001 -18.8466355  18.8466354  -0.0000000   0.0000001
    2   0.0000002  -0.0000001  -0.0000001   3.5196206  -3.5196206
    3   6.1911887  -6.5812747  -6.5812747   3.4856805   3.4856803
 Gradient of XC Energy
            1           2           3           4           5
    1  -0.0000000   0.1526596  -0.1526595   0.0000000  -0.0000000
    2  -0.0000000   0.0000000   0.0000000  -0.1254324   0.1254324
    3   0.0054674   0.0962348   0.0962348  -0.0989685  -0.0989685
 Gradient of SCF Energy
            1           2           3           4           5
    1   0.0000000   0.0000040  -0.0000040   0.0000000  -0.0000000
    2  -0.0000000   0.0000000   0.0000000   0.0000048  -0.0000048
    3   0.0000041  -0.0000117  -0.0000117   0.0000097   0.0000097
 Max gradient component =       1.169E-05
 RMS gradient           =       6.082E-06
 Gradient time:  CPU 80.24 s  wall 80.49 s
 Geometry Optimization Parameters
   NAtoms,    NIC,     NZ,  NCons,   NDum,   NFix, NCnnct, MaxDiis
        5      20       6       0       0       0       0       0

 Cartesian Hessian Update
 Hessian Updated using BFGS Update


** GEOMETRY OPTIMIZATION IN DELOCALIZED INTERNAL COORDINATES **
   Searching for a Minimum

   Optimization Cycle:   4

                       Coordinates (Angstroms)
     ATOM              X           Y           Z
    1  C           0.000000    0.000000    0.011121
    2  Cl          1.451845    0.000000    0.978564
    3  Cl         -1.451845    0.000000    0.978564
    4  H           0.000000   -0.895518   -0.611777
    5  H           0.000000    0.895518   -0.611777
   Point Group: c1    Number of degrees of freedom:   9


   Energy is   -955.533439765

 Hessian Updated using BFGS Update

  6 Hessian modes will be used to form the next step
  Hessian Eigenvalues:
     0.122844    0.160000    0.237960    0.283566    0.348186    0.350945

 Minimum Search - Taking Simple RFO Step
 Searching for Lamda that Minimizes Along All modes
 Value Taken    Lamda =   0.00000000
 Step Taken.  Stepsize is  0.000158

                             Maximum     Tolerance    Cnvgd?
         Gradient           0.000036      0.000300     YES
         Displacement       0.000146      0.001200     YES
         Energy change     -0.000004      0.000001      NO


                       Distance Matrix (Angstroms)
             C (  1)   Cl(  2)   Cl(  3)   H (  4)
   Cl(  2)  1.744649
   Cl(  3)  1.744649  2.903689
   H (  4)  1.090850  2.332165  2.332165
   H (  5)  1.090850  2.332165  2.332165  1.791036
 


 ******************************
 **  OPTIMIZATION CONVERGED  **
 ******************************
 Analysis of SCF Wavefunction
 
 --------------------------------------------------------------
                    Orbital Energies (a.u.)
 --------------------------------------------------------------
 
 Alpha MOs
 -- Occupied --
*******-100.518 -10.114  -9.372  -9.372  -7.226  -7.226  -7.214
 -7.214  -7.214  -7.214  -1.074  -0.985  -0.806  -0.635  -0.600
 -0.577  -0.457  -0.456  -0.433  -0.425
 -- Virtual --
  0.030   0.055   0.065   0.072   0.105   0.120   0.122   0.136
  0.140   0.146   0.149   0.173   0.184   0.184   0.206   0.216
  0.230   0.311   0.342   0.355   0.367   0.396   0.396   0.436
  0.448   0.461   0.496   0.505   0.512   0.548   0.565   0.573
  0.589   0.622   0.658   0.688   0.692   0.759   0.779   0.813
  0.839   0.982   1.020   1.042   1.043   1.043   1.131   1.141
  1.145   1.171   1.198   1.200   1.207   1.208   1.240   1.240
  1.245   1.247   1.269   1.274   1.365   1.426   1.452   1.458
  1.484   1.489   1.523   1.553   1.565   1.570   1.627   1.675
  1.735   1.753   1.771   1.854   1.857   2.263   2.291   2.331
  2.343   2.369   2.507   2.687   2.718   3.082   3.115   3.120
  3.246   3.317   3.371   3.446   3.491   3.514   3.639   3.649
  3.687   3.826   3.955   3.960   4.238   4.250   4.402   4.422
  4.454   4.465   4.481   4.485   4.495   4.502   4.528   4.547
  4.570   4.640   4.664   4.666   4.739   4.764   5.109   5.112
  5.136   5.138   5.271   5.278   5.329   5.354   5.362   5.769
  5.850   5.863   9.865   9.896  20.589  20.598  20.615  20.625
 20.817  20.861  24.142  27.146  27.148  27.188  27.217  27.236
 27.250  27.252  27.300  27.307  27.333  28.050  28.095  28.132
 36.883  36.884  36.887  36.889  36.890  36.892  36.895  36.897
 36.898  36.899  36.908  36.910  36.915  36.920  40.827  40.883
 41.170  41.181  41.241 216.320 216.375
 --------------------------------------------------------------
 
          Ground-State Mulliken Net Atomic Charges

     Atom                 Charge (a.u.)
  ----------------------------------------
      1 C                     0.171613
      2 Cl                   -0.205399
      3 Cl                   -0.205399
      4 H                     0.119593
      5 H                     0.119593
  ----------------------------------------
  Sum of atomic charges =     0.000000

 -----------------------------------------------------------------
                    Cartesian Multipole Moments
 -----------------------------------------------------------------
    Charge (ESU x 10^10)
                 0.0000
    Dipole Moment (Debye)
         X       0.0000      Y       0.0000      Z      -1.6879
       Tot       1.6879
    Quadrupole Moments (Debye-Ang)
        XX     -34.2683     XY       0.0000     YY     -31.7405
        XZ       0.0000     YZ       0.0000     ZZ     -32.7103
    Octapole Moments (Debye-Ang^2)
       XXX       0.0000    XXY       0.0000    XYY       0.0000
       YYY       0.0000    XXZ     -21.5977    XYZ       0.0000
       YYZ     -26.2613    XZZ       0.0000    YZZ       0.0000
       ZZZ     -73.5554
    Hexadecapole Moments (Debye-Ang^3)
      XXXX    -350.1172   XXXY       0.0000   XXYY     -70.2863
      XYYY       0.0000   YYYY     -43.2357   XXXZ       0.0000
      XXYZ       0.0000   XYYZ       0.0000   YYYZ       0.0000
      XXZZ     -83.4822   XYZZ       0.0000   YYZZ     -39.2626
      XZZZ       0.0000   YZZZ       0.0000   ZZZZ    -187.4469
 -----------------------------------------------------------------
 Total job time:  869.21s(wall), 860.30s(cpu) 
 Sun Apr 17 21:23:45 2011

        *************************************************************
        *                                                           *
        *  Thank you very much for using Q-Chem.  Have a nice day.  *
        *                                                           *
        *************************************************************


0 sent ACK to 0 
now end server 0 ... 
 
**********************************************************************
Job 2 of 2 
**********************************************************************
 
Process 0 of 1 is on cl192.stfx.acenet.ca - thread support 1
initial socket setup ...start
initial socket setup ...done 
now start server 0 ... 

cmd = /usr/bin/ssh clhead /usr/local/qchem/bin/get_hostid 329994676 > /scratch/tmp/4503949.1.medium.q/qchem9299/lic.dat
                  Welcome to Q-Chem
     A Quantum Leap Into The Future Of Chemistry

 Y. Shao, L. Fusti-Molnar, Y. Jung, J. Kussmann, C. Ochsenfeld,
 S. T. Brown, A. T. B. Gilbert, L. V. Slipchenko,S. V. Levchenko,
 D. P. O'Neill, R. A. DiStasio Jr., R. C. Lochan, T. Wang,
 G. J. O. Beran, N. A. Besley, J. M. Herbert, C. Y. Lin,
 T. Van Voorhis, S. H. Chien, A. Sodt, R. P. Steele, 
 V. A. Rassolov, P. E. Maslen, P. P. Korambath, R. D. Adamson,
 B. Austin, J. Baker, E. F. C. Byrd, H. Dachsel, R. J. Doerksen,
 A. Dreuw, B. D. Dunietz, A. D. Dutoi, T. R. Furlani,
 S. R. Gwaltney, A. Heyden, S. Hirata, C.-P. Hsu, G. Kedziora,
 R. Z. Khaliullin, P. Klunzinger, A. M. Lee, M. S. Lee, W. Liang,
 I. Lotan, N. Nair, B. Peters, E. I. Proynov, P. A. Pieniazek, 
 Y. M. Rhee, J. Ritchie, E. Rosta, C. D. Sherrill, 
 A. C. Simmonett, J. E. Subotnik, H. L. Woodcock III,
 W. Zhang, A. T. Bell, A. K. Chakraborty, D. M. Chipman,
 F. J. Keil, A. Warshel, W. J. Hehre, H. F. Schaefer III,
 J. Kong, A. I. Krylov, P. M. W. Gill, M. Head-Gordon,
 Q-Chem, Version 3.1, Q-Chem, Inc., Pittsburgh, PA (2007).

 Additional authors for Version 3.1: 
 Z. Gan, Y. Zhao, N. E. Schultz, D. Truhlar, E. Epifanovsky and M. Oana.

 Additional authors for Version 3.2: 
 R. Baer, B. R. Brooks, D. Casanova, J.-D. Chai, C.-L. Cheng, 
 C. Cramer, D. Crittenden, A. Ghysels, G. Hawkins, E. G. Hohenstein, 
 C. Kelley, W. Kurlancheek, D. Liotard, E. Livshits, P. Manohar, 
 A. Marenich, D. Neuhauser, R. Olson, M. A. Rohrdanz, K. S. Thanthiriwatte, 
 A. J. W. Thom, V. Vanovschi, C. F. Williams, Q. Wu and Z.-Q. You. 


 Intel X86 Linux Version

 Q-chem begins on Sun Apr 17 21:23:48 2011  

 Parallel job on  1  processors
Processing $rem in /usr/local/qchem/config/preferences.

theFileMan(): MAXOPENFILES=974 MAX_SUB_FILE_NUM=16
Maximum size of a physical file is 2.0 GB, maximum size of a tmp-file is 32.0 GB


--------------------------------------------------------------
User input:
--------------------------------------------------------------

$molecule 
READ 
$end 

$xc_functional
   X HF 1.0
   X BNL 1.0
   C LYP 1.0
$end

$rem
SYMMETRY_DECOMPOSITION	0
exchange 		general
BASIS                   g3large
omega			430 
JOBTYPE                 freq
IDERIV 0
SCF_GUESS READ
separate_jk		true
mem_static              760
max_scf_cycles          200
scf_final_print         1
sym_ignore              true
$end

--------------------------------------------------------------
 Writing REM_CC_EA            5
 ----------------------------------------------------
       Standard Nuclear Orientation (Angstroms)
    I     Atom         X            Y            Z
 ----------------------------------------------------
    1      C       0.000000     0.000000     0.011121
    2      Cl      1.451845     0.000000     0.978564
    3      Cl     -1.451845     0.000000     0.978564
    4      H       0.000000    -0.895518    -0.611777
    5      H       0.000000     0.895518    -0.611777
 ----------------------------------------------------
 Nuclear Repulsion Energy =   136.0905782320 hartrees
 There are       21 alpha and       21 beta electrons
 Requested basis set is G3large
 There are 60 shells and 194 basis functions

Total QAlloc Memory Limit   2000 MB
Mega-Array Size       759 MB
MEM_STATIC part       760 MB

                       Distance Matrix (Angstroms)
             C (  1)   Cl(  2)   Cl(  3)   H (  4)
   Cl(  2)  1.744649
   Cl(  3)  1.744649  2.903689
   H (  4)  1.090850  2.332165  2.332165
   H (  5)  1.090850  2.332165  2.332165  1.791036
 
 A cutoff of  1.0D-11 yielded   1707 shell pairs
 There are  17922 function pairs ( 24266 Cartesian)
Evaluating contribution to one-electron hamiltonian from nuclear
 Smallest overlap matrix eigenvalue = 1.69E-04
 Multipole matrices computed through 2nd order
 Guess MOs from SCF MO coefficient file
Reading MOs from coefficient file
Reading MOs from coefficient file
 A restricted hybrid HF-DFT SCF calculation will be
 performed using Pulay DIIS extrapolation
 Exchange:     1.0000 Hartree-Fock + 1.0000 BNL
 Correlation:  1.0000 LYP
 Using SG-1 standard quadrature grid
 SCF converges when DIIS error is below 1.0E-08
 ---------------------------------------
  Cycle       Energy         DIIS Error
 ---------------------------------------
    1    -955.5334397758      1.34E-09
    2    -955.5334397761      6.38E-10 Convergence criterion met
 ---------------------------------------
 One-Electron    Energy = -1593.3787949223
 Total Coulomb   Energy =   560.0822540702
 Alpha Exchange  Energy =    -4.6094512866
 Beta  Exchange  Energy =    -4.6094512866
 DFT   Exchange  Energy =   -47.4337233830
 DFT Correlation Energy =    -1.6748511997
 Nuclear Repu.   Energy =   136.0905782320
 Nuclear Attr.   Energy = -2547.2265957428
 Kinetic         Energy =   953.8478008205
 SCF time:  CPU 30.00 s  wall 30.34 s
 Final Alpha MO Eigenvalues
            1           2           3           4           5           6
    1-100.5179196-100.5179192 -10.1141041  -9.3723835  -9.3723807  -7.2255118
            7           8           9          10          11          12
    1  -7.2255076  -7.2141906  -7.2141866  -7.2140612  -7.2140580  -1.0738111
           13          14          15          16          17          18
    1  -0.9846825  -0.8055059  -0.6353945  -0.6003548  -0.5765586  -0.4568020
           19          20          21          22          23          24
    1  -0.4557184  -0.4330752  -0.4250170   0.0297515   0.0552893   0.0645311
           25          26
    1   0.0715923   0.1048478
 Analysis of SCF Wavefunction
 
 --------------------------------------------------------------
                    Orbital Energies (a.u.)
 --------------------------------------------------------------
 
 Alpha MOs
 -- Occupied --
*******-100.518 -10.114  -9.372  -9.372  -7.226  -7.226  -7.214
 -7.214  -7.214  -7.214  -1.074  -0.985  -0.806  -0.635  -0.600
 -0.577  -0.457  -0.456  -0.433  -0.425
 -- Virtual --
  0.030   0.055   0.065   0.072   0.105   0.120   0.122   0.136
  0.140   0.146   0.149   0.173   0.184   0.184   0.206   0.216
  0.230   0.311   0.342   0.355   0.367   0.396   0.396   0.436
  0.448   0.461   0.496   0.505   0.512   0.548   0.565   0.573
  0.589   0.622   0.658   0.688   0.692   0.759   0.779   0.813
  0.839   0.982   1.020   1.042   1.043   1.043   1.131   1.141
  1.145   1.171   1.198   1.200   1.207   1.208   1.240   1.240
  1.245   1.247   1.269   1.274   1.365   1.426   1.452   1.458
  1.484   1.489   1.523   1.553   1.565   1.570   1.627   1.675
  1.735   1.753   1.771   1.854   1.857   2.263   2.291   2.331
  2.343   2.369   2.507   2.687   2.718   3.082   3.115   3.120
  3.246   3.317   3.371   3.446   3.491   3.514   3.639   3.649
  3.687   3.826   3.955   3.960   4.238   4.250   4.402   4.422
  4.454   4.465   4.481   4.485   4.495   4.502   4.528   4.547
  4.570   4.640   4.664   4.666   4.739   4.764   5.109   5.112
  5.136   5.138   5.271   5.278   5.329   5.354   5.362   5.769
  5.850   5.863   9.865   9.896  20.589  20.598  20.615  20.625
 20.817  20.861  24.142  27.146  27.148  27.188  27.217  27.236
 27.250  27.252  27.300  27.307  27.333  28.050  28.095  28.132
 36.883  36.884  36.887  36.889  36.890  36.892  36.895  36.897
 36.898  36.899  36.908  36.910  36.915  36.920  40.827  40.883
 41.170  41.181  41.241 216.320 216.375
 --------------------------------------------------------------
 
          Ground-State Mulliken Net Atomic Charges

     Atom                 Charge (a.u.)
  ----------------------------------------
      1 C                     0.171612
      2 Cl                   -0.205399
      3 Cl                   -0.205399
      4 H                     0.119593
      5 H                     0.119593
  ----------------------------------------
  Sum of atomic charges =     0.000000

 -----------------------------------------------------------------
                    Cartesian Multipole Moments
 -----------------------------------------------------------------
    Charge (ESU x 10^10)
                 0.0000
    Dipole Moment (Debye)
         X       0.0000      Y       0.0000      Z      -1.6879
       Tot       1.6879
    Quadrupole Moments (Debye-Ang)
        XX     -34.2683     XY       0.0000     YY     -31.7405
        XZ       0.0000     YZ       0.0000     ZZ     -32.7103
    Octapole Moments (Debye-Ang^2)
       XXX       0.0000    XXY       0.0000    XYY       0.0000
       YYY       0.0000    XXZ     -21.5977    XYZ       0.0000
       YYZ     -26.2613    XZZ       0.0000    YZZ       0.0000
       ZZZ     -73.5554
    Hexadecapole Moments (Debye-Ang^3)
      XXXX    -350.1172   XXXY       0.0000   XXYY     -70.2863
      XYYY       0.0000   YYYY     -43.2357   XXXZ       0.0000
      XXYZ       0.0000   XYYZ       0.0000   YYYZ       0.0000
      XXZZ     -83.4822   XYZZ       0.0000   YYZZ     -39.2626
      XZZZ       0.0000   YZZZ       0.0000   ZZZZ    -187.4469
 -----------------------------------------------------------------
 No analytic derivatives required
 ######################################################
 ######################################################
 # Starting finite difference calculation for IDERIV  #
 Finite diff step size: 1.89e-03 a.u.
 Writing REM_CC_EA            5
 ----------------------------------------------------
       Standard Nuclear Orientation (Angstroms)
    I     Atom         X            Y            Z
 ----------------------------------------------------
    1      C       0.002000     0.000000     0.011121
    2      Cl      1.451845     0.000000     0.978564
    3      Cl     -1.451845     0.000000     0.978564
    4      H       0.000000    -0.895518    -0.611777
    5      H       0.000000     0.895518    -0.611777
 ----------------------------------------------------
 Nuclear Repulsion Energy =   136.0906122570 hartrees
 There are       21 alpha and       21 beta electrons

                       Distance Matrix (Angstroms)
             C (  1)   Cl(  2)   Cl(  3)   H (  4)
   Cl(  2)  1.742985
   Cl(  3)  1.746314  2.903689
   H (  4)  1.090852  2.332165  2.332165
   H (  5)  1.090852  2.332165  2.332165  1.791036
 
 Requested basis set is G3large
 There are 60 shells and 194 basis functions
 A cutoff of  1.0D-11 yielded   1707 shell pairs
 There are  17922 function pairs ( 24266 Cartesian)
Evaluating contribution to one-electron hamiltonian from nuclear
 Smallest overlap matrix eigenvalue = 1.69E-04
 Multipole matrices computed through 2nd order
 Guess MOs from SCF MO coefficient file
Reading MOs from coefficient file
Reading MOs from coefficient file
 A restricted hybrid HF-DFT SCF calculation will be
 performed using Pulay DIIS extrapolation
 Exchange:     1.0000 Hartree-Fock + 1.0000 BNL
 Correlation:  1.0000 LYP
 Using SG-1 standard quadrature grid
 SCF converges when DIIS error is below 1.0E-08
 ---------------------------------------
  Cycle       Energy         DIIS Error
 ---------------------------------------
    1    -955.5334368610      6.21E-05
    2    -955.5334370550      1.00E-05
    3    -955.5334374190      6.28E-06
    4    -955.5334375402      8.47E-07
    5    -955.5334375493      2.81E-07
    6    -955.5334375501      7.48E-08
    7    -955.5334375501      2.38E-08
    8    -955.5334375506      5.74E-09 Convergence criterion met
 ---------------------------------------
 One-Electron    Energy = -1593.3788575485
 Total Coulomb   Energy =   560.0822851329
 Alpha Exchange  Energy =    -4.6094510522
 Beta  Exchange  Energy =    -4.6094510522
 DFT   Exchange  Energy =   -47.4337240573
 DFT Correlation Energy =    -1.6748512303
 Nuclear Repu.   Energy =   136.0906122570
 Nuclear Attr.   Energy = -2547.2266662750
 Kinetic         Energy =   953.8478087265
 SCF time:  CPU 105.82 s  wall 107.00 s
 Final Alpha MO Eigenvalues
            1           2           3           4           5           6
    1-100.5180915-100.5177471 -10.1141043  -9.3725747  -9.3721894  -7.2256991
            7           8           9          10          11          12
    1  -7.2253201  -7.2143800  -7.2142479  -7.2139971  -7.2138713  -1.0738142
           13          14          15          16          17          18
    1  -0.9846805  -0.8055056  -0.6353947  -0.6003584  -0.5765570  -0.4568021
           19          20          21          22          23          24
    1  -0.4557172  -0.4330746  -0.4250163   0.0297514   0.0552893   0.0645299
           25          26
    1   0.0715920   0.1048463
 Analysis of SCF Wavefunction
 
 --------------------------------------------------------------
                    Orbital Energies (a.u.)
 --------------------------------------------------------------
 
 Alpha MOs
 -- Occupied --
*******-100.518 -10.114  -9.373  -9.372  -7.226  -7.225  -7.214
 -7.214  -7.214  -7.214  -1.074  -0.985  -0.806  -0.635  -0.600
 -0.577  -0.457  -0.456  -0.433  -0.425
 -- Virtual --
  0.030   0.055   0.065   0.072   0.105   0.120   0.122   0.136
  0.140   0.146   0.149   0.173   0.184   0.184   0.206   0.216
  0.230   0.311   0.342   0.355   0.367   0.396   0.396   0.436
  0.448   0.461   0.496   0.505   0.512   0.548   0.565   0.573
  0.589   0.622   0.658   0.688   0.692   0.759   0.779   0.813
  0.839   0.982   1.020   1.042   1.043   1.043   1.131   1.141
  1.145   1.171   1.198   1.200   1.207   1.208   1.240   1.241
  1.245   1.247   1.269   1.274   1.365   1.426   1.452   1.458
  1.484   1.489   1.523   1.553   1.565   1.570   1.627   1.675
  1.735   1.753   1.771   1.854   1.857   2.263   2.291   2.331
  2.343   2.369   2.507   2.687   2.718   3.082   3.115   3.120
  3.246   3.317   3.371   3.446   3.491   3.514   3.639   3.649
  3.687   3.826   3.955   3.960   4.238   4.250   4.402   4.422
  4.454   4.465   4.481   4.485   4.495   4.502   4.528   4.547
  4.570   4.640   4.664   4.666   4.739   4.764   5.109   5.112
  5.136   5.138   5.271   5.278   5.329   5.354   5.362   5.769
  5.850   5.863   9.865   9.896  20.589  20.598  20.615  20.625
 20.817  20.861  24.142  27.146  27.148  27.188  27.217  27.236
 27.250  27.252  27.300  27.307  27.333  28.050  28.096  28.132
 36.883  36.884  36.887  36.889  36.890  36.892  36.895  36.897
 36.898  36.899  36.908  36.910  36.915  36.920  40.827  40.883
 41.170  41.181  41.241 216.320 216.375
 --------------------------------------------------------------
 
          Ground-State Mulliken Net Atomic Charges

     Atom                 Charge (a.u.)
  ----------------------------------------
      1 C                     0.171607
      2 Cl                   -0.204459
      3 Cl                   -0.206336
      4 H                     0.119594
      5 H                     0.119594
  ----------------------------------------
  Sum of atomic charges =     0.000000

 -----------------------------------------------------------------
                    Cartesian Multipole Moments
 -----------------------------------------------------------------
    Charge (ESU x 10^10)
                 0.0000
    Dipole Moment (Debye)
         X       0.0113      Y       0.0000      Z      -1.6879
       Tot       1.6879
    Quadrupole Moments (Debye-Ang)
        XX     -34.2683     XY       0.0000     YY     -31.7405
        XZ       0.0119     YZ       0.0000     ZZ     -32.7103
    Octapole Moments (Debye-Ang^2)
       XXX       0.0094    XXY       0.0000    XYY      -0.0007
       YYY       0.0000    XXZ     -21.5977    XYZ       0.0000
       YYZ     -26.2613    XZZ       0.0136    YZZ       0.0000
       ZZZ     -73.5554
    Hexadecapole Moments (Debye-Ang^3)
      XXXX    -350.1175   XXXY       0.0000   XXYY     -70.2863
      XYYY       0.0000   YYYY     -43.2357   XXXZ       0.0392
      XXYZ       0.0000   XYYZ       0.0105   YYYZ       0.0000
      XXZZ     -83.4823   XYZZ       0.0000   YYZZ     -39.2626
      XZZZ       0.0533   YZZZ       0.0000   ZZZZ    -187.4468
 -----------------------------------------------------------------
 Writing REM_CC_EA            5
 ----------------------------------------------------
       Standard Nuclear Orientation (Angstroms)
    I     Atom         X            Y            Z
 ----------------------------------------------------
    1      C       0.000000     0.000000     0.011121
    2      Cl      1.451845     0.000000     0.978564
    3      Cl     -1.451845     0.000000     0.978564
    4      H       0.000000    -0.895518    -0.611777
    5      H       0.000000     0.895518    -0.611777
 ----------------------------------------------------
 Nuclear Repulsion Energy =   136.0905782320 hartrees
 There are       21 alpha and       21 beta electrons

                       Distance Matrix (Angstroms)
             C (  1)   Cl(  2)   Cl(  3)   H (  4)
   Cl(  2)  1.744649
   Cl(  3)  1.744649  2.903689
   H (  4)  1.090850  2.332165  2.332165
   H (  5)  1.090850  2.332165  2.332165  1.791036
 
 Requested basis set is G3large
 There are 60 shells and 194 basis functions
 A cutoff of  1.0D-11 yielded   1707 shell pairs
 There are  17922 function pairs ( 24266 Cartesian)
Evaluating contribution to one-electron hamiltonian from nuclear
 Smallest overlap matrix eigenvalue = 1.69E-04
 Multipole matrices computed through 2nd order
 Guess MOs from SCF MO coefficient file
Reading MOs from coefficient file
Reading MOs from coefficient file
 A restricted hybrid HF-DFT SCF calculation will be
 performed using Pulay DIIS extrapolation
 Exchange:     1.0000 Hartree-Fock + 1.0000 BNL
 Correlation:  1.0000 LYP
 Using SG-1 standard quadrature grid
 SCF converges when DIIS error is below 1.0E-08
 ---------------------------------------
  Cycle       Energy         DIIS Error
 ---------------------------------------
    1    -955.5334424694      6.21E-05
    2    -955.5334392845      1.00E-05
    3    -955.5334396518      6.28E-06
    4    -955.5334397698      8.47E-07
    5    -955.5334397749      2.81E-07
    6    -955.5334397720      7.48E-08
    7    -955.5334397759      2.38E-08
    8    -955.5334397757      5.66E-09 Convergence criterion met
 ---------------------------------------
 One-Electron    Energy = -1593.3787944981
 Total Coulomb   Energy =   560.0822536184
 Alpha Exchange  Energy =    -4.6094512853
 Beta  Exchange  Energy =    -4.6094512853
 DFT   Exchange  Energy =   -47.4337233589
 DFT Correlation Energy =    -1.6748511984
 Nuclear Repu.   Energy =   136.0905782320
 Nuclear Attr.   Energy = -2547.2265950442
 Kinetic         Energy =   953.8478005461
 SCF time:  CPU 105.83 s  wall 106.85 s
 Final Alpha MO Eigenvalues
            1           2           3           4           5           6
    1-100.5179196-100.5179192 -10.1141041  -9.3723835  -9.3723807  -7.2255118
            7           8           9          10          11          12
    1  -7.2255076  -7.2141906  -7.2141866  -7.2140612  -7.2140580  -1.0738111
           13          14          15          16          17          18
    1  -0.9846826  -0.8055059  -0.6353946  -0.6003548  -0.5765586  -0.4568020
           19          20          21          22          23          24
    1  -0.4557184  -0.4330752  -0.4250170   0.0297515   0.0552893   0.0645311
           25          26
    1   0.0715923   0.1048478
 Analysis of SCF Wavefunction
 
 --------------------------------------------------------------
                    Orbital Energies (a.u.)
 --------------------------------------------------------------
 
 Alpha MOs
 -- Occupied --
*******-100.518 -10.114  -9.372  -9.372  -7.226  -7.226  -7.214
 -7.214  -7.214  -7.214  -1.074  -0.985  -0.806  -0.635  -0.600
 -0.577  -0.457  -0.456  -0.433  -0.425
 -- Virtual --
  0.030   0.055   0.065   0.072   0.105   0.120   0.122   0.136
  0.140   0.146   0.149   0.173   0.184   0.184   0.206   0.216
  0.230   0.311   0.342   0.355   0.367   0.396   0.396   0.436
  0.448   0.461   0.496   0.505   0.512   0.548   0.565   0.573
  0.589   0.622   0.658   0.688   0.692   0.759   0.779   0.813
  0.839   0.982   1.020   1.042   1.043   1.043   1.131   1.141
  1.145   1.171   1.198   1.200   1.207   1.208   1.240   1.240
  1.245   1.247   1.269   1.274   1.365   1.426   1.452   1.458
  1.484   1.489   1.523   1.553   1.565   1.570   1.627   1.675
  1.735   1.753   1.771   1.854   1.857   2.263   2.291   2.331
  2.343   2.369   2.507   2.687   2.718   3.082   3.115   3.120
  3.246   3.317   3.371   3.446   3.491   3.514   3.639   3.649
  3.687   3.826   3.955   3.960   4.238   4.250   4.402   4.422
  4.454   4.465   4.481   4.485   4.495   4.502   4.528   4.547
  4.570   4.640   4.664   4.666   4.739   4.764   5.109   5.112
  5.136   5.138   5.271   5.278   5.329   5.354   5.362   5.769
  5.850   5.863   9.865   9.896  20.589  20.598  20.615  20.625
 20.817  20.861  24.142  27.146  27.148  27.188  27.217  27.236
 27.250  27.252  27.300  27.307  27.333  28.050  28.095  28.132
 36.883  36.884  36.887  36.889  36.890  36.892  36.895  36.897
 36.898  36.899  36.908  36.910  36.915  36.920  40.827  40.883
 41.170  41.181  41.241 216.320 216.375
 --------------------------------------------------------------
 
          Ground-State Mulliken Net Atomic Charges

     Atom                 Charge (a.u.)
  ----------------------------------------
      1 C                     0.171612
      2 Cl                   -0.205399
      3 Cl                   -0.205399
      4 H                     0.119593
      5 H                     0.119593
  ----------------------------------------
  Sum of atomic charges =     0.000000

 -----------------------------------------------------------------
                    Cartesian Multipole Moments
 -----------------------------------------------------------------
    Charge (ESU x 10^10)
                 0.0000
    Dipole Moment (Debye)
         X       0.0000      Y       0.0000      Z      -1.6879
       Tot       1.6879
    Quadrupole Moments (Debye-Ang)
        XX     -34.2683     XY       0.0000     YY     -31.7405
        XZ       0.0000     YZ       0.0000     ZZ     -32.7103
    Octapole Moments (Debye-Ang^2)
       XXX       0.0000    XXY       0.0000    XYY       0.0000
       YYY       0.0000    XXZ     -21.5977    XYZ       0.0000
       YYZ     -26.2613    XZZ       0.0000    YZZ       0.0000
       ZZZ     -73.5554
    Hexadecapole Moments (Debye-Ang^3)
      XXXX    -350.1172   XXXY       0.0000   XXYY     -70.2863
      XYYY       0.0000   YYYY     -43.2357   XXXZ       0.0000
      XXYZ       0.0000   XYYZ       0.0000   YYYZ       0.0000
      XXZZ     -83.4822   XYZZ       0.0000   YYZZ     -39.2626
      XZZZ       0.0000   YZZZ       0.0000   ZZZZ    -187.4469
 -----------------------------------------------------------------
 Writing REM_CC_EA            5
 ----------------------------------------------------
       Standard Nuclear Orientation (Angstroms)
    I     Atom         X            Y            Z
 ----------------------------------------------------
    1      C       0.001000     0.001000     0.011121
    2      Cl      1.451845     0.000000     0.978564
    3      Cl     -1.451845     0.000000     0.978564
    4      H       0.000000    -0.895518    -0.611777
    5      H       0.000000     0.895518    -0.611777
 ----------------------------------------------------
 Nuclear Repulsion Energy =   136.0905790733 hartrees
 There are       21 alpha and       21 beta electrons

                       Distance Matrix (Angstroms)
             C (  1)   Cl(  2)   Cl(  3)   H (  4)
   Cl(  2)  1.743817
   Cl(  3)  1.745481  2.903689
   H (  4)  1.091672  2.332165  2.332165
   H (  5)  1.090030  2.332165  2.332165  1.791036
 
 Requested basis set is G3large
 There are 60 shells and 194 basis functions
 A cutoff of  1.0D-11 yielded   1707 shell pairs
 There are  17922 function pairs ( 24266 Cartesian)
Evaluating contribution to one-electron hamiltonian from nuclear
 Smallest overlap matrix eigenvalue = 1.69E-04
 Multipole matrices computed through 2nd order
 Guess MOs from SCF MO coefficient file
Reading MOs from coefficient file
Reading MOs from coefficient file
 A restricted hybrid HF-DFT SCF calculation will be
 performed using Pulay DIIS extrapolation
 Exchange:     1.0000 Hartree-Fock + 1.0000 BNL
 Correlation:  1.0000 LYP
 Using SG-1 standard quadrature grid
 SCF converges when DIIS error is below 1.0E-08
 ---------------------------------------
  Cycle       Energy         DIIS Error
 ---------------------------------------
    1    -955.5334371623      3.98E-05
    2    -955.5334379604      6.31E-06
    3    -955.5334381311      3.48E-06
    4    -955.5334381716      6.40E-07
    5    -955.5334381746      2.20E-07
    6    -955.5334381753      6.55E-08
    7    -955.5334381755      2.46E-08
    8    -955.5334381756      5.35E-09 Convergence criterion met
 ---------------------------------------
 One-Electron    Energy = -1593.3787921343
 Total Coulomb   Energy =   560.0822520138
 Alpha Exchange  Energy =    -4.6094511901
 Beta  Exchange  Energy =    -4.6094511901
 DFT   Exchange  Energy =   -47.4337235505
 DFT Correlation Energy =    -1.6748511978
 Nuclear Repu.   Energy =   136.0905790733
 Nuclear Attr.   Energy = -2547.2265955370
 Kinetic         Energy =   953.8478034027
 SCF time:  CPU 105.82 s  wall 107.38 s
 Final Alpha MO Eigenvalues
            1           2           3           4           5           6
    1-100.5180055-100.5178334 -10.1141041  -9.3724785  -9.3722858  -7.2256045
            7           8           9          10          11          12
    1  -7.2254149  -7.2142844  -7.2141538  -7.2140929  -7.2139655  -1.0738118
           13          14          15          16          17          18
    1  -0.9846820  -0.8055062  -0.6353948  -0.6003554  -0.5765581  -0.4568020
           19          20          21          22          23          24
    1  -0.4557184  -0.4330751  -0.4250164   0.0297514   0.0552892   0.0645307
           25          26
    1   0.0715922   0.1048474
 Analysis of SCF Wavefunction
 
 --------------------------------------------------------------
                    Orbital Energies (a.u.)
 --------------------------------------------------------------
 
 Alpha MOs
 -- Occupied --
*******-100.518 -10.114  -9.372  -9.372  -7.226  -7.225  -7.214
 -7.214  -7.214  -7.214  -1.074  -0.985  -0.806  -0.635  -0.600
 -0.577  -0.457  -0.456  -0.433  -0.425
 -- Virtual --
  0.030   0.055   0.065   0.072   0.105   0.120   0.122   0.136
  0.140   0.146   0.149   0.173   0.184   0.184   0.206   0.216
  0.230   0.311   0.342   0.355   0.367   0.396   0.396   0.436
  0.448   0.461   0.496   0.505   0.512   0.548   0.565   0.573
  0.589   0.622   0.658   0.688   0.692   0.759   0.779   0.813
  0.839   0.982   1.020   1.042   1.043   1.043   1.131   1.141
  1.145   1.171   1.198   1.200   1.207   1.208   1.240   1.240
  1.245   1.247   1.269   1.274   1.365   1.426   1.452   1.458
  1.484   1.489   1.523   1.553   1.565   1.570   1.627   1.675
  1.735   1.753   1.771   1.854   1.857   2.263   2.291   2.331
  2.343   2.369   2.507   2.687   2.718   3.082   3.115   3.120
  3.246   3.317   3.371   3.446   3.491   3.514   3.639   3.649
  3.687   3.826   3.955   3.961   4.238   4.250   4.402   4.422
  4.454   4.465   4.481   4.485   4.495   4.502   4.528   4.547
  4.570   4.640   4.664   4.666   4.739   4.764   5.109   5.112
  5.136   5.138   5.271   5.278   5.329   5.354   5.362   5.769
  5.850   5.863   9.865   9.896  20.589  20.598  20.615  20.625
 20.817  20.861  24.142  27.146  27.148  27.188  27.217  27.236
 27.250  27.252  27.300  27.307  27.333  28.050  28.096  28.132
 36.883  36.884  36.887  36.889  36.890  36.892  36.895  36.897
 36.898  36.899  36.908  36.910  36.915  36.920  40.827  40.883
 41.170  41.181  41.241 216.320 216.375
 --------------------------------------------------------------
 
          Ground-State Mulliken Net Atomic Charges

     Atom                 Charge (a.u.)
  ----------------------------------------
      1 C                     0.171609
      2 Cl                   -0.204929
      3 Cl                   -0.205868
      4 H                     0.119429
      5 H                     0.119760
  ----------------------------------------
  Sum of atomic charges =     0.000000

 -----------------------------------------------------------------
                    Cartesian Multipole Moments
 -----------------------------------------------------------------
    Charge (ESU x 10^10)
                 0.0000
    Dipole Moment (Debye)
         X       0.0056      Y       0.0004      Z      -1.6879
       Tot       1.6879
    Quadrupole Moments (Debye-Ang)
        XX     -34.2683     XY       0.0000     YY     -31.7405
        XZ       0.0060     YZ      -0.0023     ZZ     -32.7103
    Octapole Moments (Debye-Ang^2)
       XXX       0.0047    XXY      -0.0113    XYY      -0.0004
       YYY      -0.0140    XXZ     -21.5977    XYZ       0.0000
       YYZ     -26.2613    XZZ       0.0068    YZZ      -0.0069
       ZZZ     -73.5554
    Hexadecapole Moments (Debye-Ang^3)
      XXXX    -350.1173   XXXY       0.0000   XXYY     -70.2863
      XYYY       0.0000   YYYY     -43.2357   XXXZ       0.0196
      XXYZ      -0.0131   XYYZ       0.0052   YYYZ      -0.0037
      XXZZ     -83.4822   XYZZ       0.0000   YYZZ     -39.2626
      XZZZ       0.0266   YZZZ      -0.0115   ZZZZ    -187.4469
 -----------------------------------------------------------------
 Writing REM_CC_EA            5
 ----------------------------------------------------
       Standard Nuclear Orientation (Angstroms)
    I     Atom         X            Y            Z
 ----------------------------------------------------
    1      C       0.001000    -0.001000     0.011121
    2      Cl      1.451845     0.000000     0.978564
    3      Cl     -1.451845     0.000000     0.978564
    4      H       0.000000    -0.895518    -0.611777
    5      H       0.000000     0.895518    -0.611777
 ----------------------------------------------------
 Nuclear Repulsion Energy =   136.0905790732 hartrees
 There are       21 alpha and       21 beta electrons

                       Distance Matrix (Angstroms)
             C (  1)   Cl(  2)   Cl(  3)   H (  4)
   Cl(  2)  1.743817
   Cl(  3)  1.745481  2.903689
   H (  4)  1.090030  2.332165  2.332165
   H (  5)  1.091672  2.332165  2.332165  1.791036
 
 Requested basis set is G3large
 There are 60 shells and 194 basis functions
 A cutoff of  1.0D-11 yielded   1707 shell pairs
 There are  17922 function pairs ( 24266 Cartesian)
Evaluating contribution to one-electron hamiltonian from nuclear
 Smallest overlap matrix eigenvalue = 1.69E-04
 Multipole matrices computed through 2nd order
 Guess MOs from SCF MO coefficient file
Reading MOs from coefficient file
Reading MOs from coefficient file
 A restricted hybrid HF-DFT SCF calculation will be
 performed using Pulay DIIS extrapolation
 Exchange:     1.0000 Hartree-Fock + 1.0000 BNL
 Correlation:  1.0000 LYP
 Using SG-1 standard quadrature grid
 SCF converges when DIIS error is below 1.0E-08
 ---------------------------------------
  Cycle       Energy         DIIS Error
 ---------------------------------------
    1    -955.5334409721      4.97E-05
    2    -955.5334378064      7.66E-06
    3    -955.5334381248      2.91E-06
    4    -955.5334381668      9.09E-07
    5    -955.5334381737      2.74E-07
    6    -955.5334381745      6.59E-08
    7    -955.5334381764      1.95E-08
    8    -955.5334381740      5.63E-09 Convergence criterion met
 ---------------------------------------
 One-Electron    Energy = -1593.3787927147
 Total Coulomb   Energy =   560.0822526072
 Alpha Exchange  Energy =    -4.6094511919
 Beta  Exchange  Energy =    -4.6094511919
 DFT   Exchange  Energy =   -47.4337235552
 DFT Correlation Energy =    -1.6748512007
 Nuclear Repu.   Energy =   136.0905790732
 Nuclear Attr.   Energy = -2547.2265955844
 Kinetic         Energy =   953.8478028697
 SCF time:  CPU 107.22 s  wall 108.95 s
 Final Alpha MO Eigenvalues
            1           2           3           4           5           6
    1-100.5180055-100.5178334 -10.1141041  -9.3724784  -9.3722858  -7.2256045
            7           8           9          10          11          12
    1  -7.2254150  -7.2142844  -7.2141538  -7.2140929  -7.2139655  -1.0738118
           13          14          15          16          17          18
    1  -0.9846820  -0.8055061  -0.6353948  -0.6003554  -0.5765581  -0.4568020
           19          20          21          22          23          24
    1  -0.4557183  -0.4330751  -0.4250164   0.0297515   0.0552892   0.0645307
           25          26
    1   0.0715922   0.1048474
 Analysis of SCF Wavefunction
 
 --------------------------------------------------------------
                    Orbital Energies (a.u.)
 --------------------------------------------------------------
 
 Alpha MOs
 -- Occupied --
*******-100.518 -10.114  -9.372  -9.372  -7.226  -7.225  -7.214
 -7.214  -7.214  -7.214  -1.074  -0.985  -0.806  -0.635  -0.600
 -0.577  -0.457  -0.456  -0.433  -0.425
 -- Virtual --
  0.030   0.055   0.065   0.072   0.105   0.120   0.122   0.136
  0.140   0.146   0.149   0.173   0.184   0.184   0.206   0.216
  0.230   0.311   0.342   0.355   0.367   0.396   0.396   0.436
  0.448   0.461   0.496   0.505   0.512   0.548   0.565   0.573
  0.589   0.622   0.658   0.688   0.692   0.759   0.779   0.813
  0.839   0.982   1.020   1.042   1.043   1.043   1.131   1.141
  1.145   1.171   1.198   1.200   1.207   1.208   1.240   1.240
  1.245   1.247   1.269   1.274   1.365   1.426   1.452   1.458
  1.484   1.489   1.523   1.553   1.565   1.570   1.627   1.675
  1.735   1.753   1.771   1.854   1.857   2.263   2.291   2.331
  2.343   2.369   2.507   2.687   2.718   3.082   3.115   3.120
  3.246   3.317   3.371   3.446   3.491   3.514   3.639   3.649
  3.687   3.826   3.955   3.961   4.238   4.250   4.402   4.422
  4.454   4.465   4.481   4.485   4.495   4.502   4.528   4.547
  4.570   4.640   4.664   4.666   4.739   4.764   5.109   5.112
  5.136   5.138   5.271   5.278   5.329   5.354   5.362   5.769
  5.850   5.863   9.865   9.896  20.589  20.598  20.615  20.625
 20.817  20.861  24.142  27.146  27.148  27.188  27.217  27.236
 27.250  27.252  27.300  27.307  27.333  28.050  28.096  28.132
 36.883  36.884  36.887  36.889  36.890  36.892  36.895  36.897
 36.898  36.899  36.908  36.910  36.915  36.920  40.827  40.883
 41.170  41.181  41.241 216.320 216.375
 --------------------------------------------------------------
 
          Ground-State Mulliken Net Atomic Charges

     Atom                 Charge (a.u.)
  ----------------------------------------
      1 C                     0.171609
      2 Cl                   -0.204930
      3 Cl                   -0.205868
      4 H                     0.119760
      5 H                     0.119428
  ----------------------------------------
  Sum of atomic charges =     0.000000

 -----------------------------------------------------------------
                    Cartesian Multipole Moments
 -----------------------------------------------------------------
    Charge (ESU x 10^10)
                 0.0000
    Dipole Moment (Debye)
         X       0.0056      Y      -0.0004      Z      -1.6879
       Tot       1.6879
    Quadrupole Moments (Debye-Ang)
        XX     -34.2683     XY       0.0000     YY     -31.7405
[...]
            7           8           9          10          11          12
    1  -7.2254946  -7.2141792  -7.2141753  -7.2140495  -7.2140464  -1.0738467
           13          14          15          16          17          18
    1  -0.9846821  -0.8055800  -0.6356366  -0.6003168  -0.5765645  -0.4568060
           19          20          21          22          23          24
    1  -0.4557017  -0.4330702  -0.4250651   0.0297638   0.0552863   0.0645332
           25          26
    1   0.0715959   0.1048489
 Analysis of SCF Wavefunction
 
 --------------------------------------------------------------
                    Orbital Energies (a.u.)
 --------------------------------------------------------------
 
 Alpha MOs
 -- Occupied --
*******-100.518 -10.114  -9.372  -9.372  -7.225  -7.225  -7.214
 -7.214  -7.214  -7.214  -1.074  -0.985  -0.806  -0.636  -0.600
 -0.577  -0.457  -0.456  -0.433  -0.425
 -- Virtual --
  0.030   0.055   0.065   0.072   0.105   0.120   0.122   0.136
  0.140   0.146   0.149   0.173   0.184   0.184   0.206   0.216
  0.230   0.311   0.342   0.355   0.367   0.396   0.396   0.436
  0.448   0.461   0.496   0.505   0.512   0.548   0.565   0.573
  0.589   0.622   0.658   0.688   0.692   0.760   0.779   0.813
  0.839   0.982   1.020   1.042   1.043   1.043   1.131   1.141
  1.145   1.171   1.198   1.200   1.207   1.208   1.240   1.241
  1.245   1.247   1.269   1.274   1.365   1.426   1.452   1.458
  1.484   1.489   1.523   1.553   1.565   1.570   1.627   1.675
  1.735   1.753   1.771   1.854   1.857   2.263   2.291   2.331
  2.343   2.369   2.507   2.687   2.718   3.083   3.115   3.120
  3.246   3.318   3.371   3.446   3.491   3.514   3.639   3.649
  3.687   3.826   3.957   3.961   4.238   4.251   4.402   4.422
  4.454   4.465   4.482   4.485   4.495   4.502   4.528   4.547
  4.570   4.641   4.664   4.666   4.739   4.764   5.109   5.112
  5.136   5.138   5.271   5.278   5.329   5.355   5.362   5.770
  5.850   5.863   9.865   9.896  20.589  20.598  20.615  20.625
 20.817  20.861  24.143  27.146  27.148  27.188  27.217  27.236
 27.250  27.252  27.300  27.307  27.333  28.050  28.096  28.133
 36.883  36.884  36.887  36.889  36.890  36.892  36.895  36.897
 36.898  36.899  36.908  36.910  36.915  36.920  40.828  40.883
 41.170  41.181  41.241 216.320 216.375
 --------------------------------------------------------------
 
          Ground-State Mulliken Net Atomic Charges

     Atom                 Charge (a.u.)
  ----------------------------------------
      1 C                     0.171283
      2 Cl                   -0.205365
      3 Cl                   -0.205365
      4 H                     0.119566
      5 H                     0.119881
  ----------------------------------------
  Sum of atomic charges =     0.000000

 -----------------------------------------------------------------
                    Cartesian Multipole Moments
 -----------------------------------------------------------------
    Charge (ESU x 10^10)
                 0.0000
    Dipole Moment (Debye)
         X       0.0000      Y       0.0002      Z      -1.6876
       Tot       1.6876
    Quadrupole Moments (Debye-Ang)
        XX     -34.2691     XY       0.0000     YY     -31.7380
        XZ       0.0000     YZ       0.0017     ZZ     -32.7126
    Octapole Moments (Debye-Ang^2)
       XXX       0.0000    XXY       0.0017    XYY       0.0000
       YYY       0.0028    XXZ     -21.6021    XYZ       0.0000
       YYZ     -26.2626    XZZ       0.0000    YZZ      -0.0013
       ZZZ     -73.5612
    Hexadecapole Moments (Debye-Ang^3)
      XXXX    -350.1242   XXXY       0.0000   XXYY     -70.2865
      XYYY       0.0000   YYYY     -43.2265   XXXZ       0.0000
      XXYZ       0.0000   XYYZ       0.0000   YYYZ      -0.0030
      XXZZ     -83.4839   XYZZ       0.0000   YYZZ     -39.2626
      XZZZ       0.0000   YZZZ      -0.0016   ZZZZ    -187.4405
 -----------------------------------------------------------------
 Writing REM_CC_EA            5
 ----------------------------------------------------
       Standard Nuclear Orientation (Angstroms)
    I     Atom         X            Y            Z
 ----------------------------------------------------
    1      C       0.000000     0.000000     0.011121
    2      Cl      1.451845     0.000000     0.978564
    3      Cl     -1.451845     0.000000     0.978564
    4      H       0.000000    -0.895518    -0.611777
    5      H       0.000000     0.895518    -0.613777
 ----------------------------------------------------
 Nuclear Repulsion Energy =   136.0830203296 hartrees
 There are       21 alpha and       21 beta electrons

                       Distance Matrix (Angstroms)
             C (  1)   Cl(  2)   Cl(  3)   H (  4)
   Cl(  2)  1.744649
   Cl(  3)  1.744649  2.903689
   H (  4)  1.090850  2.332165  2.332165
   H (  5)  1.091994  2.333529  2.333529  1.791037
 
 Requested basis set is G3large
 There are 60 shells and 194 basis functions
 A cutoff of  1.0D-11 yielded   1705 shell pairs
 There are  17916 function pairs ( 24260 Cartesian)
Evaluating contribution to one-electron hamiltonian from nuclear
 Smallest overlap matrix eigenvalue = 1.69E-04
 Multipole matrices computed through 2nd order
 Guess MOs from SCF MO coefficient file
Reading MOs from coefficient file
Reading MOs from coefficient file
 A restricted hybrid HF-DFT SCF calculation will be
 performed using Pulay DIIS extrapolation
 Exchange:     1.0000 Hartree-Fock + 1.0000 BNL
 Correlation:  1.0000 LYP
 Using SG-1 standard quadrature grid
 SCF converges when DIIS error is below 1.0E-08
 ---------------------------------------
  Cycle       Energy         DIIS Error
 ---------------------------------------
    1    -955.5330185790      3.88E-05
    2    -955.5334384285      7.91E-06
    3    -955.5334386120      6.58E-06
    4    -955.5334387772      7.99E-07
    5    -955.5334387821      2.40E-07
    6    -955.5334387803      1.12E-07
    7    -955.5334387787      2.52E-08
    8    -955.5334387767      8.11E-09 Convergence criterion met
 ---------------------------------------
 One-Electron    Energy = -1593.3641673037
 Total Coulomb   Energy =   560.0747579909
 Alpha Exchange  Energy =    -4.6094161316
 Beta  Exchange  Energy =    -4.6094161316
 DFT   Exchange  Energy =   -47.4333843519
 DFT Correlation Energy =    -1.6748331785
 Nuclear Repu.   Energy =   136.0830203296
 Nuclear Attr.   Energy = -2547.2102575644
 Kinetic         Energy =   953.8460902607
 SCF time:  CPU 105.21 s  wall 106.42 s
 Final Alpha MO Eigenvalues
            1           2           3           4           5           6
    1-100.5179337-100.5179332 -10.1141898  -9.3723953  -9.3723924  -7.2255247
            7           8           9          10          11          12
    1  -7.2255205  -7.2142019  -7.2141980  -7.2140729  -7.2140697  -1.0737757
           13          14          15          16          17          18
    1  -0.9846831  -0.8054316  -0.6351527  -0.6003925  -0.5765527  -0.4567980
           19          20          21          22          23          24
    1  -0.4557349  -0.4330802  -0.4249688   0.0297391   0.0552922   0.0645289
           25          26
    1   0.0715888   0.1048466
 Analysis of SCF Wavefunction
 
 --------------------------------------------------------------
                    Orbital Energies (a.u.)
 --------------------------------------------------------------
 
 Alpha MOs
 -- Occupied --
*******-100.518 -10.114  -9.372  -9.372  -7.226  -7.226  -7.214
 -7.214  -7.214  -7.214  -1.074  -0.985  -0.805  -0.635  -0.600
 -0.577  -0.457  -0.456  -0.433  -0.425
 -- Virtual --
  0.030   0.055   0.065   0.072   0.105   0.120   0.122   0.136
  0.140   0.146   0.149   0.173   0.184   0.184   0.206   0.216
  0.230   0.311   0.342   0.355   0.367   0.396   0.396   0.436
  0.448   0.461   0.496   0.505   0.512   0.548   0.565   0.573
  0.589   0.622   0.658   0.688   0.691   0.759   0.779   0.813
  0.839   0.982   1.020   1.042   1.043   1.043   1.131   1.142
  1.144   1.171   1.198   1.199   1.207   1.208   1.240   1.240
  1.245   1.247   1.269   1.274   1.364   1.426   1.451   1.458
  1.484   1.488   1.523   1.553   1.564   1.570   1.627   1.675
  1.735   1.753   1.771   1.854   1.857   2.263   2.291   2.331
  2.343   2.369   2.507   2.687   2.719   3.082   3.115   3.121
  3.245   3.317   3.370   3.446   3.491   3.514   3.639   3.650
  3.687   3.826   3.954   3.960   4.237   4.250   4.402   4.422
  4.454   4.465   4.480   4.485   4.495   4.501   4.528   4.547
  4.570   4.640   4.664   4.666   4.739   4.763   5.109   5.112
  5.136   5.138   5.271   5.277   5.329   5.353   5.362   5.767
  5.850   5.863   9.865   9.895  20.589  20.598  20.615  20.625
 20.817  20.861  24.140  27.146  27.148  27.188  27.217  27.236
 27.250  27.252  27.300  27.307  27.333  28.050  28.095  28.131
 36.883  36.884  36.887  36.889  36.890  36.892  36.895  36.897
 36.898  36.899  36.908  36.910  36.915  36.920  40.827  40.882
 41.170  41.181  41.240 216.320 216.375
 --------------------------------------------------------------
 
          Ground-State Mulliken Net Atomic Charges

     Atom                 Charge (a.u.)
  ----------------------------------------
      1 C                     0.171939
      2 Cl                   -0.205433
      3 Cl                   -0.205433
      4 H                     0.119620
      5 H                     0.119306
  ----------------------------------------
  Sum of atomic charges =     0.000000

 -----------------------------------------------------------------
                    Cartesian Multipole Moments
 -----------------------------------------------------------------
    Charge (ESU x 10^10)
                 0.0000
    Dipole Moment (Debye)
         X       0.0000      Y      -0.0002      Z      -1.6883
       Tot       1.6883
    Quadrupole Moments (Debye-Ang)
        XX     -34.2675     XY       0.0000     YY     -31.7430
        XZ       0.0000     YZ      -0.0017     ZZ     -32.7080
    Octapole Moments (Debye-Ang^2)
       XXX       0.0000    XXY      -0.0017    XYY       0.0000
       YYY      -0.0028    XXZ     -21.5933    XYZ       0.0000
       YYZ     -26.2600    XZZ       0.0000    YZZ       0.0013
       ZZZ     -73.5497
    Hexadecapole Moments (Debye-Ang^3)
      XXXX    -350.1101   XXXY       0.0000   XXYY     -70.2861
      XYYY       0.0000   YYYY     -43.2448   XXXZ       0.0000
      XXYZ       0.0000   XYYZ       0.0000   YYYZ       0.0030
      XXZZ     -83.4805   XYZZ       0.0000   YYZZ     -39.2626
      XZZZ       0.0000   YZZZ       0.0016   ZZZZ    -187.4532
 -----------------------------------------------------------------
 Writing REM_CC_EA            5
 ----------------------------------------------------
       Standard Nuclear Orientation (Angstroms)
    I     Atom         X            Y            Z
 ----------------------------------------------------
    1      C       0.000000     0.000000     0.011121
    2      Cl      1.451845     0.000000     0.978564
    3      Cl     -1.451845     0.000000     0.978564
    4      H       0.000000    -0.895518    -0.611777
    5      H       0.000000     0.895518    -0.611777
 ----------------------------------------------------
 Nuclear Repulsion Energy =   136.0905782320 hartrees
 There are       21 alpha and       21 beta electrons
FINAL TENSOR RESULT:
Order 2, Length 15
Order 1, Length 15
   0.3119301  -0.0000351  -0.0000151  -0.1209691   0.0000148  -0.0655023  -0.1209750  -0.0000092   0.0655084  -0.0352391   0.0000090  -0.0000012  -0.0351478  -0.0000101  -0.0000133
Order 1, Length 15
  -0.0000351   0.5833919  -0.0000502  -0.0000019  -0.0395585   0.0000286  -0.0000001  -0.0395931   0.0000450  -0.0000049  -0.2525468  -0.1332007  -0.0000060  -0.2525450   0.1332531
Order 1, Length 15
  -0.0000151  -0.0000502   0.4624907  -0.0829769  -0.0000089  -0.0937169   0.0822498  -0.0000090  -0.0937365  -0.0000430  -0.1343997  -0.1372442  -0.0000026   0.1343887  -0.1370696
Order 1, Length 15
  -0.1209691  -0.0000019  -0.0829769   0.1848252  -0.0014233   0.1034539  -0.0409409   0.0000018  -0.0026165  -0.0116263   0.0015530  -0.0093183  -0.0116897  -0.0015272  -0.0092949
Order 1, Length 15
   0.0000148  -0.0395585  -0.0000089  -0.0014233   0.0241447  -0.0000364   0.0000029   0.0036857   0.0000152  -0.0164709   0.0059242  -0.0106109   0.0164956   0.0059299   0.0105374
Order 1, Length 15
  -0.0655023   0.0000286  -0.0937169   0.1034539  -0.0000364   0.1009685   0.0019006  -0.0000100   0.0124590  -0.0202231   0.0039841  -0.0100234  -0.0202950  -0.0039492  -0.0100509
Order 1, Length 15
  -0.1209750  -0.0000001   0.0822498  -0.0409409   0.0000029   0.0019006   0.1856922   0.0014415  -0.1034518  -0.0116792  -0.0015089   0.0093155  -0.0116915   0.0015495   0.0093124
Order 1, Length 15
  -0.0000092  -0.0395931  -0.0000090   0.0000018   0.0036857  -0.0000100   0.0014415   0.0230263  -0.0000221   0.0164818   0.0059471  -0.0106108  -0.0164782   0.0059065   0.0105464
Order 1, Length 15
   0.0655084   0.0000450  -0.0937365  -0.0026165   0.0000152   0.0124590  -0.1034518  -0.0000221   0.1009904   0.0197827   0.0039547  -0.0100233   0.0202832  -0.0039625  -0.0100355
Order 1, Length 15
  -0.0352391  -0.0000049  -0.0000430  -0.0116263  -0.0164709  -0.0202231  -0.0116792   0.0164818   0.0197827   0.0552369   0.0000140  -0.0000027   0.0025061   0.0000032  -0.0000020
Order 1, Length 15
   0.0000090  -0.2525468  -0.1343997   0.0015530   0.0059242   0.0039841  -0.0015089   0.0059471   0.0039547   0.0000140   0.2561013   0.1402804  -0.0000068  -0.0162538  -0.0139714
Order 1, Length 15
  -0.0000012  -0.1332007  -0.1372442  -0.0093183  -0.0106109  -0.0100234   0.0093155  -0.0106108  -0.0100233  -0.0000027   0.1402804   0.1429430   0.0005441   0.0139442   0.0135592
Order 1, Length 15
  -0.0351478  -0.0000060  -0.0000026  -0.0116897   0.0164956  -0.0202950  -0.0116915  -0.0164782   0.0202832   0.0025061  -0.0000068   0.0005441   0.0549698  -0.0000103   0.0000099
Order 1, Length 15
  -0.0000101  -0.2525450   0.1343887  -0.0015272   0.0059299  -0.0039492   0.0015495   0.0059065  -0.0039625   0.0000032  -0.0162538   0.0139442  -0.0000103   0.2563293  -0.1402861
Order 1, Length 15
  -0.0000133   0.1332531  -0.1370696  -0.0092949   0.0105374  -0.0100509   0.0093124   0.0105464  -0.0100355  -0.0000020  -0.0139714   0.0135592   0.0000099  -0.1402861   0.1435238


 # Finishing finite difference calculation for IDERIV #
 ######################################################
 ######################################################
 Requested basis set is G3large
 There are 60 shells and 194 basis functions
 **********************************************************************
 **                                                                  **
 **                       VIBRATIONAL ANALYSIS                       **
 **                       --------------------                       **
 **                                                                  **
 **        VIBRATIONAL FREQUENCIES (CM**-1) AND NORMAL MODES         **
 **     FORCE CONSTANTS (mDYN/ANGSTROM) AND REDUCED MASSES (AMU)     **
 **                                                                  **
 **********************************************************************
 

 Mode:                 1                      2                      3
 Frequency:       297.61                 769.40                 840.17
 Force Cnst:      0.9858                 2.5355                 2.9584
 Red. Mass:      18.8911                 7.2697                 7.1134
 IR Active:          YES                    YES                    YES
 Raman Active:       YES                    YES                    YES
               X      Y      Z        X      Y      Z        X      Y      Z
 C          0.000  0.001  0.429   -0.003  0.004  0.613    0.640 -0.005  0.004
 Cl         0.476  0.000 -0.086   -0.129 -0.001 -0.120   -0.125  0.001 -0.090
 Cl        -0.475  0.000 -0.086    0.131  0.000 -0.121   -0.124  0.001  0.089
 H         -0.001  0.014  0.421   -0.002  0.064  0.540    0.520  0.009 -0.018
 H         -0.004 -0.016  0.414   -0.011 -0.076  0.510    0.521  0.007  0.022
 TransDip   0.000  0.000  0.000    0.000  0.000  0.000    0.000  0.000  0.000

 Mode:                 4                      5                      6
 Frequency:       904.95                1180.95                1291.50
 Force Cnst:      0.6615                 0.8370                 1.1199
 Red. Mass:       1.3709                 1.0186                 1.1396
 IR Active:          YES                    YES                    YES
 Raman Active:       YES                    YES                    YES
               X      Y      Z        X      Y      Z        X      Y      Z
 C          0.005  0.173 -0.003   -0.001  0.002  0.001   -0.106  0.001  0.001
 Cl         0.000 -0.022  0.000    0.000  0.012  0.000   -0.002  0.000 -0.010
 Cl        -0.001 -0.022  0.001    0.000 -0.013  0.000   -0.002  0.000  0.010
 H          0.006 -0.267  0.644   -0.699  0.001  0.001    0.712  0.003 -0.003
 H         -0.009 -0.263 -0.644    0.715 -0.005 -0.009    0.694 -0.006 -0.010
 TransDip   0.000  0.000  0.000    0.000  0.000  0.000    0.000  0.000  0.000

 Mode:                 7                      8                      9
 Frequency:      1453.93                3120.25                3191.12
 Force Cnst:      1.3406                 6.0636                 6.6889
 Red. Mass:       1.0764                 1.0571                 1.1149
 IR Active:          YES                    YES                    YES
 Raman Active:       YES                    YES                    YES
               X      Y      Z        X      Y      Z        X      Y      Z
 C         -0.001 -0.001 -0.078    0.000 -0.001 -0.067    0.000 -0.099  0.001
 Cl        -0.002  0.000 -0.003    0.000  0.000  0.000    0.000  0.000  0.000
 Cl         0.002  0.000 -0.003    0.000  0.000  0.000    0.000  0.000  0.000
 H          0.003 -0.424  0.560    0.000  0.594  0.393    0.000  0.576  0.393
 H          0.014  0.426  0.564    0.001 -0.583  0.386    0.001  0.586 -0.401
 TransDip   0.000  0.000  0.000    0.000  0.000  0.000    0.000  0.000  0.000

 STANDARD THERMODYNAMIC QUANTITIES AT   298.18 K  AND     1.00 ATM

   This Molecule has  0 Imaginary Frequencies
   Zero point vibrational energy:       18.656 kcal/mol

   Atom    1 Element C  Has Mass   12.00000
   Atom    2 Element Cl Has Mass   34.96885
   Atom    3 Element Cl Has Mass   34.96885
   Atom    4 Element H  Has Mass    1.00783
   Atom    5 Element H  Has Mass    1.00783
   Molecular Mass:    83.953360 amu
   Principal axes and moments of inertia in atomic units:
                             1           2           3
    Eigenvalues --       54.74971   532.21306   575.41778
          X               1.00000     0.00000     0.00000
          Y               0.00000     0.00000     1.00000
          Z               0.00000     1.00000     0.00000
   Rotational Symmetry Number is   1
   The Molecule is an Asymmetric Top
   Translational Enthalpy:        0.889 kcal/mol
   Rotational Enthalpy:           0.889 kcal/mol
   Vibrational Enthalpy:         19.074 kcal/mol
   gas constant (RT):             0.593 kcal/mol
   Translational Entropy:        39.197  cal/mol.K
   Rotational Entropy:           24.331  cal/mol.K
   Vibrational Entropy:           2.066  cal/mol.K

   Total Enthalpy:               21.445 kcal/mol
   Total Entropy:                65.594  cal/mol.K
 Total job time:  43900.22s(wall), 43247.72s(cpu) 
 Mon Apr 18 09:35:28 2011

        *************************************************************
        *                                                           *
        *  Thank you very much for using Q-Chem.  Have a nice day.  *
        *                                                           *
        *************************************************************


0 sent ACK to 0 
now end server 0 ... 
