Process 0 of 1 is on cl117.stfx.acenet.ca - thread support 1
initial socket setup ...start
initial socket setup ...done 
now start server 0 ... 

cmd = /usr/bin/ssh clhead /usr/local/qchem/bin/get_hostid 1371835536 > /scratch/tmp/6028536.1.short.q/qchem10452/lic.dat
                  Welcome to Q-Chem
     A Quantum Leap Into The Future Of Chemistry

 Y. Shao, L. Fusti-Molnar, Y. Jung, J. Kussmann, C. Ochsenfeld,
 S. T. Brown, A. T. B. Gilbert, L. V. Slipchenko,S. V. Levchenko,
 D. P. O'Neill, R. A. DiStasio Jr., R. C. Lochan, T. Wang,
 G. J. O. Beran, N. A. Besley, J. M. Herbert, C. Y. Lin,
 T. Van Voorhis, S. H. Chien, A. Sodt, R. P. Steele, 
 V. A. Rassolov, P. E. Maslen, P. P. Korambath, R. D. Adamson,
 B. Austin, J. Baker, E. F. C. Byrd, H. Dachsel, R. J. Doerksen,
 A. Dreuw, B. D. Dunietz, A. D. Dutoi, T. R. Furlani,
 S. R. Gwaltney, A. Heyden, S. Hirata, C.-P. Hsu, G. Kedziora,
 R. Z. Khaliullin, P. Klunzinger, A. M. Lee, M. S. Lee, W. Liang,
 I. Lotan, N. Nair, B. Peters, E. I. Proynov, P. A. Pieniazek, 
 Y. M. Rhee, J. Ritchie, E. Rosta, C. D. Sherrill, 
 A. C. Simmonett, J. E. Subotnik, H. L. Woodcock III,
 W. Zhang, A. T. Bell, A. K. Chakraborty, D. M. Chipman,
 F. J. Keil, A. Warshel, W. J. Hehre, H. F. Schaefer III,
 J. Kong, A. I. Krylov, P. M. W. Gill, M. Head-Gordon,
 Q-Chem, Version 3.1, Q-Chem, Inc., Pittsburgh, PA (2007).

 Additional authors for Version 3.1: 
 Z. Gan, Y. Zhao, N. E. Schultz, D. Truhlar, E. Epifanovsky and M. Oana.

 Additional authors for Version 3.2: 
 R. Baer, B. R. Brooks, D. Casanova, J.-D. Chai, C.-L. Cheng, 
 C. Cramer, D. Crittenden, A. Ghysels, G. Hawkins, E. G. Hohenstein, 
 C. Kelley, W. Kurlancheek, D. Liotard, E. Livshits, P. Manohar, 
 A. Marenich, D. Neuhauser, R. Olson, M. A. Rohrdanz, K. S. Thanthiriwatte, 
 A. J. W. Thom, V. Vanovschi, C. F. Williams, Q. Wu and Z.-Q. You. 


 Intel X86 Linux Version

 Q-chem begins on Tue Jun  4 15:37:51 2013  

 Parallel job on  1  processors
Processing $rem in /usr/local/qchem/config/preferences.

theFileMan(): MAXOPENFILES=974 MAX_SUB_FILE_NUM=16
Maximum size of a physical file is 2.0 GB, maximum size of a tmp-file is 32.0 GB


--------------------------------------------------------------
User input:
--------------------------------------------------------------

$molecule
-1,1
C         -0.01114       -0.00000        0.01552
C         -0.09766       -0.00000        1.34199
H          0.95965       -0.00000       -0.47008
H         -0.91403        0.00000       -0.58541
H          0.80086        0.00000        1.95088
$end

$comment
negative
$end

$xc_functional
C PBE   1.00
X wPBE  1.00
$end

$rem
SYMMETRY_DECOMPOSITION	0
exchange 		general
LRC_DFT                 true
BASIS                   g3large
omega			900
mem_static              760
max_scf_cycles          200
scf_final_print         1
sym_ignore              true
$end

--------------------------------------------------------------
 Writing REM_CC_EA            5
 ----------------------------------------------------
       Standard Nuclear Orientation (Angstroms)
    I     Atom         X            Y            Z
 ----------------------------------------------------
    1      C      -0.011140     0.000000     0.015520
    2      C      -0.097660     0.000000     1.341990
    3      H       0.959650     0.000000    -0.470080
    4      H      -0.914030     0.000000    -0.585410
    5      H       0.800860     0.000000     1.950880
 ----------------------------------------------------
 Nuclear Repulsion Energy =    28.3249355481 hartrees
 There are        8 alpha and        8 beta electrons
 Requested basis set is G3large
 There are 38 shells and 114 basis functions

Total QAlloc Memory Limit   2000 MB
Mega-Array Size       743 MB
MEM_STATIC part       760 MB

                       Distance Matrix (Angstroms)
             C (  1)   C (  2)   H (  3)   H (  4)
   C (  2)  1.329289
   H (  3)  1.085468  2.097976
   H (  4)  1.084586  2.093163  1.877226
   H (  5)  2.098800  1.085396  2.426162  3.061636
 
 A cutoff of  1.0D-08 yielded    733 shell pairs
 There are   6649 function pairs (  8156 Cartesian)
Evaluating contribution to one-electron hamiltonian from nuclear
 Smallest overlap matrix eigenvalue = 1.40E-04
 Multipole matrices computed through 2nd order

  Scale SEOQF with 1.000000e-01/1.000000e-01/1.000000e-01

 Standard Electronic Orientation quadrupole field applied
 Nucleus-field energy     =    -0.0000000015 hartrees
 Guess from superposition of atomic densities
 Warning:  Energy on first SCF cycle will be non-variational
 Long-range K will be added via erf
 Coulomb attenuation parameter = 0.9 bohr**(-1)
 A restricted Kohn-Sham SCF calculation will be
 performed using Pulay DIIS extrapolation
 Exchange:  wPBE + LR-HF      Correlation:  PBE
 Using SG-1 standard quadrature grid
 SCF converges when DIIS error is below 1.0E-05
 Requested basis set is G3large
 There are 38 shells and 114 basis functions
 A cutoff of  1.0D-08 yielded    733 shell pairs
 There are   6649 function pairs (  8156 Cartesian)
 Warning!  Inaccurate integrated density:
   Number of electrons =    16
   Numerical integral  =    14.999933654394
   Relative error      =    -6.2504146600 %
 ---------------------------------------
  Cycle       Energy         DIIS Error
 ---------------------------------------
    1     -78.1878249244      3.77E-02
    2     -77.7554670686      6.35E-03
    3     -77.8321700789      3.63E-03
    4     -77.8564850791      6.95E-04
    5     -77.8603953662      3.56E-04
    6     -77.8614217872      1.99E-04
    7     -77.8619238854      7.77E-05
    8     -77.8620154083      1.91E-05
    9     -77.8620195473      5.89E-06 Convergence criterion met
 ---------------------------------------
 One-Electron    Energy =  -163.7054913000
 Total Coulomb   Energy =    69.5639559896
 Alpha Exchange  Energy =    -2.6634163317
 Beta  Exchange  Energy =    -2.6634163317
 DFT   Exchange  Energy =    -6.2279438258
 DFT Correlation Energy =    -0.4906432943
 Nuclear Repu.   Energy =    28.3249355466
 Nuclear Attr.   Energy =  -241.2633111948
 Kinetic         Energy =    77.5578198948
 SCF time:  CPU 22.96 s  wall 25.28 s
 Final Alpha MO Eigenvalues
            1           2           3           4           5           6
    1 -10.1126157 -10.0819294  -0.7576154  -0.5148002  -0.3870654  -0.3174554
            7           8           9          10          11          12
    1  -0.1537125  -0.0738828   0.1777649   0.1859276   0.1932399   0.2744485
           13
    1   0.2808658
 Analysis of SCF Wavefunction
 
 --------------------------------------------------------------
                    Orbital Energies (a.u.)
 --------------------------------------------------------------
 
 Alpha MOs
 -- Occupied --
-10.113 -10.082  -0.758  -0.515  -0.387  -0.317  -0.154  -0.074
 -- Virtual --
  0.178   0.186   0.193   0.274   0.281   0.290   0.301   0.342
  0.351   0.366   0.390   0.427   0.435   0.470   0.533   0.677
  0.778   0.810   0.856   0.877   0.893   0.896   0.932   0.974
  0.988   1.011   1.044   1.056   1.132   1.147   1.193   1.263
  1.337   1.384   1.418   1.546   1.589   1.603   1.658   1.708
  1.786   1.825   1.863   1.909   1.941   2.064   2.873   2.952
  3.075   3.119   3.147   3.182   3.214   3.255   3.327   3.360
  3.363   3.466   3.530   3.559   3.617   3.629   3.686   3.739
  3.793   3.797   3.799   3.844   3.954   4.076   4.117   4.158
  4.187   4.232   4.465   4.595   4.602   4.705   4.821   4.844
  4.960   5.085   5.186   5.557   5.698   5.772   6.047   6.367
 24.317  25.180  27.723  27.913  28.173  28.637  28.701  28.793
 41.379  41.469  41.499  41.637  41.640  41.676  41.726  41.761
 41.836  41.849
 --------------------------------------------------------------
 
          Ground-State Mulliken Net Atomic Charges

     Atom                 Charge (a.u.)
  ----------------------------------------
      1 C                    -0.469793
      2 C                    -0.534961
      3 H                    -0.060191
      4 H                     0.050127
      5 H                     0.014818
  ----------------------------------------
  Sum of atomic charges =    -1.000000

 -----------------------------------------------------------------
                    Cartesian Multipole Moments
 -----------------------------------------------------------------
    Charge (ESU x 10^10)
                -4.8032
    Dipole Moment (Debye)
         X       2.0545      Y      -0.0001      Z      -5.5055
       Tot       5.8763
    Quadrupole Moments (Debye-Ang)
        XX     -19.0140     XY      -0.0007     YY     -19.1479
        XZ       4.8233     YZ       0.0003     ZZ     -27.0918
    Octapole Moments (Debye-Ang^2)
       XXX       4.6401    XXY      -0.0005    XYY       1.6649
       YYY      -0.0011    XXZ     -16.7645    XYZ      -0.0004
       YYZ     -13.0846    XZZ      10.0190    YZZ       0.0004
       ZZZ     -54.1281
    Hexadecapole Moments (Debye-Ang^3)
      XXXX     -47.8531   XXXY      -0.0026   XXYY     -13.9047
      XYYY      -0.0026   YYYY     -33.5659   XXXZ      10.0113
      XXYZ       0.0002   XYYZ       3.2166   YYYZ       0.0001
      XXZZ     -41.4104   XYZZ      -0.0013   YYZZ     -31.7571
      XZZZ      24.9362   YZZZ       0.0018   ZZZZ    -183.7699
 -----------------------------------------------------------------
 Total job time:  25.47s(wall), 23.07s(cpu) 
 Tue Jun  4 15:38:17 2013

        *************************************************************
        *                                                           *
        *  Thank you very much for using Q-Chem.  Have a nice day.  *
        *                                                           *
        *************************************************************


0 sent ACK to 0 
now end server 0 ... 
 
**********************************************************************
Job 2 of 3 
**********************************************************************
 
Process 0 of 1 is on cl117.stfx.acenet.ca - thread support 1
initial socket setup ...start
initial socket setup ...done 
now start server 0 ... 

cmd = /usr/bin/ssh clhead /usr/local/qchem/bin/get_hostid 375379426 > /scratch/tmp/6028536.1.short.q/qchem10452/lic.dat
                  Welcome to Q-Chem
     A Quantum Leap Into The Future Of Chemistry

 Y. Shao, L. Fusti-Molnar, Y. Jung, J. Kussmann, C. Ochsenfeld,
 S. T. Brown, A. T. B. Gilbert, L. V. Slipchenko,S. V. Levchenko,
 D. P. O'Neill, R. A. DiStasio Jr., R. C. Lochan, T. Wang,
 G. J. O. Beran, N. A. Besley, J. M. Herbert, C. Y. Lin,
 T. Van Voorhis, S. H. Chien, A. Sodt, R. P. Steele, 
 V. A. Rassolov, P. E. Maslen, P. P. Korambath, R. D. Adamson,
 B. Austin, J. Baker, E. F. C. Byrd, H. Dachsel, R. J. Doerksen,
 A. Dreuw, B. D. Dunietz, A. D. Dutoi, T. R. Furlani,
 S. R. Gwaltney, A. Heyden, S. Hirata, C.-P. Hsu, G. Kedziora,
 R. Z. Khaliullin, P. Klunzinger, A. M. Lee, M. S. Lee, W. Liang,
 I. Lotan, N. Nair, B. Peters, E. I. Proynov, P. A. Pieniazek, 
 Y. M. Rhee, J. Ritchie, E. Rosta, C. D. Sherrill, 
 A. C. Simmonett, J. E. Subotnik, H. L. Woodcock III,
 W. Zhang, A. T. Bell, A. K. Chakraborty, D. M. Chipman,
 F. J. Keil, A. Warshel, W. J. Hehre, H. F. Schaefer III,
 J. Kong, A. I. Krylov, P. M. W. Gill, M. Head-Gordon,
 Q-Chem, Version 3.1, Q-Chem, Inc., Pittsburgh, PA (2007).

 Additional authors for Version 3.1: 
 Z. Gan, Y. Zhao, N. E. Schultz, D. Truhlar, E. Epifanovsky and M. Oana.

 Additional authors for Version 3.2: 
 R. Baer, B. R. Brooks, D. Casanova, J.-D. Chai, C.-L. Cheng, 
 C. Cramer, D. Crittenden, A. Ghysels, G. Hawkins, E. G. Hohenstein, 
 C. Kelley, W. Kurlancheek, D. Liotard, E. Livshits, P. Manohar, 
 A. Marenich, D. Neuhauser, R. Olson, M. A. Rohrdanz, K. S. Thanthiriwatte, 
 A. J. W. Thom, V. Vanovschi, C. F. Williams, Q. Wu and Z.-Q. You. 


 Intel X86 Linux Version

 Q-chem begins on Tue Jun  4 15:38:19 2013  

 Parallel job on  1  processors
Processing $rem in /usr/local/qchem/config/preferences.

theFileMan(): MAXOPENFILES=974 MAX_SUB_FILE_NUM=16
Maximum size of a physical file is 2.0 GB, maximum size of a tmp-file is 32.0 GB


--------------------------------------------------------------
User input:
--------------------------------------------------------------

$molecule
0,2
C         -0.01114       -0.00000        0.01552
C         -0.09766       -0.00000        1.34199
H          0.95965       -0.00000       -0.47008
H         -0.91403        0.00000       -0.58541
H          0.80086        0.00000        1.95088
$end

$comment
neutral
$end

$xc_functional
C PBE   1.00
X wPBE  1.00
$end


$rem
SYMMETRY_DECOMPOSITION	0
LRC_DFT                 true
exchange 		general
BASIS                   g3large
omega			900
mem_static              760
max_scf_cycles          200
scf_final_print         1
sym_ignore              true
$end

--------------------------------------------------------------
 Writing REM_CC_EA            5
 ----------------------------------------------------
       Standard Nuclear Orientation (Angstroms)
    I     Atom         X            Y            Z
 ----------------------------------------------------
    1      C      -0.011140     0.000000     0.015520
    2      C      -0.097660     0.000000     1.341990
    3      H       0.959650     0.000000    -0.470080
    4      H      -0.914030     0.000000    -0.585410
    5      H       0.800860     0.000000     1.950880
 ----------------------------------------------------
 Nuclear Repulsion Energy =    28.3249355481 hartrees
 There are        8 alpha and        7 beta electrons
 Requested basis set is G3large
 There are 38 shells and 114 basis functions

Total QAlloc Memory Limit   2000 MB
Mega-Array Size       743 MB
MEM_STATIC part       760 MB

                       Distance Matrix (Angstroms)
             C (  1)   C (  2)   H (  3)   H (  4)
   C (  2)  1.329289
   H (  3)  1.085468  2.097976
   H (  4)  1.084586  2.093163  1.877226
   H (  5)  2.098800  1.085396  2.426162  3.061636
 
 A cutoff of  1.0D-08 yielded    733 shell pairs
 There are   6649 function pairs (  8156 Cartesian)
Evaluating contribution to one-electron hamiltonian from nuclear
 Smallest overlap matrix eigenvalue = 1.40E-04
 Multipole matrices computed through 2nd order

  Scale SEOQF with 1.000000e-01/1.000000e-01/1.000000e-01

 Standard Electronic Orientation quadrupole field applied
 Nucleus-field energy     =    -0.0000000015 hartrees
 Guess from superposition of atomic densities
 Warning:  Energy on first SCF cycle will be non-variational
 Long-range K will be added via erf
 Coulomb attenuation parameter = 0.9 bohr**(-1)
 An unrestricted Kohn-Sham SCF calculation will be
 performed using Pulay DIIS extrapolation
 Exchange:  wPBE + LR-HF      Correlation:  PBE
 Using SG-1 standard quadrature grid
 SCF converges when DIIS error is below 1.0E-05
 Requested basis set is G3large
 There are 38 shells and 114 basis functions
 A cutoff of  1.0D-08 yielded    733 shell pairs
 There are   6649 function pairs (  8156 Cartesian)
 ---------------------------------------
  Cycle       Energy         DIIS Error
 ---------------------------------------
    1     -78.1878249244      3.77E-02
    2     -77.7888531243      3.09E-03
    3     -77.8292565178      1.07E-03
    4     -77.8404277679      5.67E-04
    5     -77.8450348794      2.86E-04
    6     -77.8476211604      1.52E-04
    7     -77.8485938121      8.26E-05
    8     -77.8492936426      4.94E-05
    9     -77.8499181956      2.52E-05
   10     -77.8502818389      1.24E-05
   11     -77.8504592561      8.47E-06 Convergence criterion met
 ---------------------------------------
 One-Electron    Energy =  -159.5584636558
 Total Coulomb   Energy =    65.2102886662
 Alpha Exchange  Energy =    -2.7364287948
 Beta  Exchange  Energy =    -2.4172334063
 DFT   Exchange  Energy =    -6.2181516028
 DFT Correlation Energy =    -0.4554060092
 Nuclear Repu.   Energy =    28.3249355466
 Nuclear Attr.   Energy =  -236.9622496522
 Kinetic         Energy =    77.4037859964
 <S^2> = 0.8053
 SCF time:  CPU 32.87 s  wall 37.92 s
 Final Alpha MO Eigenvalues
            1           2           3           4           5           6
    1 -10.4063499 -10.3751437  -1.0448037  -0.7965746  -0.6624027  -0.5981016
            7           8           9          10          11          12
    1  -0.4466681  -0.4333200   0.0465410   0.0595481   0.0663481   0.0851187
           13
    1   0.1241883
 Final Beta MO Eigenvalues
            1           2           3           4           5           6
    1 -10.3884577 -10.3785667  -1.0178457  -0.7606036  -0.6338231  -0.5764754
            7           8           9          10          11          12
    1  -0.4220407   0.0316046   0.0501084   0.0600519   0.0687966   0.0965236
 Analysis of SCF Wavefunction
 
 --------------------------------------------------------------
                    Orbital Energies (a.u.)
 --------------------------------------------------------------
 
 Alpha MOs
 -- Occupied --
-10.406 -10.375  -1.045  -0.797  -0.662  -0.598  -0.447  -0.433
 -- Virtual --
  0.047   0.060   0.066   0.085   0.124   0.128   0.139   0.182
  0.184   0.196   0.204   0.220   0.240   0.275   0.343   0.455
  0.544   0.572   0.628   0.631   0.648   0.656   0.696   0.743
  0.752   0.772   0.784   0.795   0.866   0.891   0.939   1.039
  1.077   1.155   1.170   1.295   1.334   1.345   1.389   1.453
  1.527   1.588   1.600   1.650   1.702   1.791   2.611   2.686
  2.815   2.843   2.862   2.904   2.924   2.975   3.032   3.074
  3.075   3.157   3.265   3.280   3.348   3.351   3.411   3.452
  3.459   3.507   3.516   3.548   3.640   3.793   3.833   3.856
  3.890   3.959   4.208   4.315   4.328   4.451   4.542   4.572
  4.669   4.800   4.900   5.271   5.415   5.494   5.794   6.080
 24.019  24.893  27.432  27.624  27.837  28.362  28.414  28.511
 41.087  41.141  41.236  41.335  41.350  41.392  41.427  41.471
 41.542  41.560
 
 Beta MOs
 -- Occupied --
-10.388 -10.379  -1.018  -0.761  -0.634  -0.576  -0.422
 -- Virtual --
  0.032   0.050   0.060   0.069   0.097   0.124   0.138   0.150
  0.183   0.190   0.205   0.206   0.225   0.245   0.282   0.357
  0.468   0.561   0.589   0.633   0.636   0.660   0.680   0.710
  0.751   0.758   0.787   0.805   0.819   0.891   0.911   0.956
  1.043   1.094   1.157   1.176   1.310   1.349   1.353   1.407
  1.461   1.546   1.591   1.612   1.659   1.706   1.805   2.619
  2.697   2.826   2.854   2.873   2.913   2.944   2.982   3.057
  3.090   3.094   3.192   3.268   3.294   3.353   3.358   3.423
  3.469   3.516   3.523   3.534   3.569   3.681   3.807   3.846
  3.885   3.908   3.969   4.217   4.332   4.336   4.454   4.556
  4.580   4.683   4.814   4.910   5.282   5.429   5.506   5.797
  6.095  24.029  24.898  27.438  27.627  27.869  28.364  28.417
 28.513  41.093  41.167  41.232  41.352  41.356  41.391  41.437
 41.473  41.554  41.563
 --------------------------------------------------------------
 
          Ground-State Mulliken Net Atomic Charges

     Atom                 Charge (a.u.)    Spin (a.u.)
  --------------------------------------------------------
      1 C                    -0.213455      -0.290350
      2 C                    -0.049913       1.156503
      3 H                     0.084985       0.067558
      4 H                     0.081939       0.033910
      5 H                     0.096444       0.032379
  --------------------------------------------------------
  Sum of atomic charges =     0.000000
  Sum of spin   charges =     1.000000

 -----------------------------------------------------------------
                    Cartesian Multipole Moments
 -----------------------------------------------------------------
    Charge (ESU x 10^10)
                 0.0000
    Dipole Moment (Debye)
         X       0.6750      Y      -0.0002      Z      -0.4099
       Tot       0.7897
    Quadrupole Moments (Debye-Ang)
        XX     -11.6577     XY       0.0003     YY     -14.8409
        XZ       1.3599     YZ      -0.0004     ZZ     -12.1332
    Octapole Moments (Debye-Ang^2)
       XXX       1.1917    XXY      -0.0002    XYY       0.1336
       YYY      -0.0005    XXZ      -8.3163    XYZ       0.0008
       YYZ      -9.2523    XZZ       2.8158    YZZ      -0.0009
       ZZZ     -22.9121
    Hexadecapole Moments (Debye-Ang^3)
      XXXX     -21.8175   XXXY       0.0002   XXYY      -7.2630
      XYYY       0.0003   YYYY     -18.0533   XXXZ       0.8525
      XXYZ      -0.0003   XYYZ      -0.2765   YYYZ      -0.0009
      XXZZ     -17.1704   XYZZ       0.0011   YYZZ     -19.5233
      XZZZ       5.1909   YZZZ      -0.0017   ZZZZ     -89.6222
 -----------------------------------------------------------------
 Total job time:  38.07s(wall), 32.98s(cpu) 
 Tue Jun  4 15:38:57 2013

        *************************************************************
        *                                                           *
        *  Thank you very much for using Q-Chem.  Have a nice day.  *
        *                                                           *
        *************************************************************


0 sent ACK to 0 
now end server 0 ... 
 
**********************************************************************
Job 3 of 3 
**********************************************************************
 
Process 0 of 1 is on cl117.stfx.acenet.ca - thread support 1
initial socket setup ...start
initial socket setup ...done 
now start server 0 ... 

cmd = /usr/bin/ssh clhead /usr/local/qchem/bin/get_hostid 1858010772 > /scratch/tmp/6028536.1.short.q/qchem10452/lic.dat
                  Welcome to Q-Chem
     A Quantum Leap Into The Future Of Chemistry

 Y. Shao, L. Fusti-Molnar, Y. Jung, J. Kussmann, C. Ochsenfeld,
 S. T. Brown, A. T. B. Gilbert, L. V. Slipchenko,S. V. Levchenko,
 D. P. O'Neill, R. A. DiStasio Jr., R. C. Lochan, T. Wang,
 G. J. O. Beran, N. A. Besley, J. M. Herbert, C. Y. Lin,
 T. Van Voorhis, S. H. Chien, A. Sodt, R. P. Steele, 
 V. A. Rassolov, P. E. Maslen, P. P. Korambath, R. D. Adamson,
 B. Austin, J. Baker, E. F. C. Byrd, H. Dachsel, R. J. Doerksen,
 A. Dreuw, B. D. Dunietz, A. D. Dutoi, T. R. Furlani,
 S. R. Gwaltney, A. Heyden, S. Hirata, C.-P. Hsu, G. Kedziora,
 R. Z. Khaliullin, P. Klunzinger, A. M. Lee, M. S. Lee, W. Liang,
 I. Lotan, N. Nair, B. Peters, E. I. Proynov, P. A. Pieniazek, 
 Y. M. Rhee, J. Ritchie, E. Rosta, C. D. Sherrill, 
 A. C. Simmonett, J. E. Subotnik, H. L. Woodcock III,
 W. Zhang, A. T. Bell, A. K. Chakraborty, D. M. Chipman,
 F. J. Keil, A. Warshel, W. J. Hehre, H. F. Schaefer III,
 J. Kong, A. I. Krylov, P. M. W. Gill, M. Head-Gordon,
 Q-Chem, Version 3.1, Q-Chem, Inc., Pittsburgh, PA (2007).

 Additional authors for Version 3.1: 
 Z. Gan, Y. Zhao, N. E. Schultz, D. Truhlar, E. Epifanovsky and M. Oana.

 Additional authors for Version 3.2: 
 R. Baer, B. R. Brooks, D. Casanova, J.-D. Chai, C.-L. Cheng, 
 C. Cramer, D. Crittenden, A. Ghysels, G. Hawkins, E. G. Hohenstein, 
 C. Kelley, W. Kurlancheek, D. Liotard, E. Livshits, P. Manohar, 
 A. Marenich, D. Neuhauser, R. Olson, M. A. Rohrdanz, K. S. Thanthiriwatte, 
 A. J. W. Thom, V. Vanovschi, C. F. Williams, Q. Wu and Z.-Q. You. 


 Intel X86 Linux Version

 Q-chem begins on Tue Jun  4 15:39:00 2013  

 Parallel job on  1  processors
Processing $rem in /usr/local/qchem/config/preferences.

theFileMan(): MAXOPENFILES=974 MAX_SUB_FILE_NUM=16
Maximum size of a physical file is 2.0 GB, maximum size of a tmp-file is 32.0 GB


--------------------------------------------------------------
User input:
--------------------------------------------------------------

$molecule
1,1
C         -0.01114       -0.00000        0.01552
C         -0.09766       -0.00000        1.34199
H          0.95965       -0.00000       -0.47008
H         -0.91403        0.00000       -0.58541
H          0.80086        0.00000        1.95088
$end

$comment
positive
$end

$xc_functional
C PBE   1.00
X wPBE  1.00
$end

$rem
SYMMETRY_DECOMPOSITION	0
LRC_DFT                 true
exchange 		general
BASIS                   g3large
omega			900
mem_static              760
max_scf_cycles          200
scf_final_print         1
sym_ignore              true
$end

--------------------------------------------------------------
 Writing REM_CC_EA            5
 ----------------------------------------------------
       Standard Nuclear Orientation (Angstroms)
    I     Atom         X            Y            Z
 ----------------------------------------------------
    1      C      -0.011140     0.000000     0.015520
    2      C      -0.097660     0.000000     1.341990
    3      H       0.959650     0.000000    -0.470080
    4      H      -0.914030     0.000000    -0.585410
    5      H       0.800860     0.000000     1.950880
 ----------------------------------------------------
 Nuclear Repulsion Energy =    28.3249355481 hartrees
 There are        7 alpha and        7 beta electrons
 Requested basis set is G3large
 There are 38 shells and 114 basis functions

Total QAlloc Memory Limit   2000 MB
Mega-Array Size       743 MB
MEM_STATIC part       760 MB

                       Distance Matrix (Angstroms)
             C (  1)   C (  2)   H (  3)   H (  4)
   C (  2)  1.329289
   H (  3)  1.085468  2.097976
   H (  4)  1.084586  2.093163  1.877226
   H (  5)  2.098800  1.085396  2.426162  3.061636
 
 A cutoff of  1.0D-08 yielded    733 shell pairs
 There are   6649 function pairs (  8156 Cartesian)
Evaluating contribution to one-electron hamiltonian from nuclear
 Smallest overlap matrix eigenvalue = 1.40E-04
 Multipole matrices computed through 2nd order

  Scale SEOQF with 1.000000e-01/1.000000e-01/1.000000e-01

 Standard Electronic Orientation quadrupole field applied
 Nucleus-field energy     =    -0.0000000015 hartrees
 Guess from superposition of atomic densities
 Warning:  Energy on first SCF cycle will be non-variational
 Long-range K will be added via erf
 Coulomb attenuation parameter = 0.9 bohr**(-1)
 A restricted Kohn-Sham SCF calculation will be
 performed using Pulay DIIS extrapolation
 Exchange:  wPBE + LR-HF      Correlation:  PBE
 Using SG-1 standard quadrature grid
 SCF converges when DIIS error is below 1.0E-05
 Requested basis set is G3large
 There are 38 shells and 114 basis functions
 A cutoff of  1.0D-08 yielded    733 shell pairs
 There are   6649 function pairs (  8156 Cartesian)
 Warning!  Inaccurate integrated density:
   Number of electrons =    14
   Numerical integral  =    14.999933654394
   Relative error      =     7.1423832457 %
 ---------------------------------------
  Cycle       Energy         DIIS Error
 ---------------------------------------
    1     -78.1878249244      3.77E-02
    2     -77.3729477590      4.76E-03
    3     -77.4297522124      2.17E-03
    4     -77.4389731358      8.22E-04
    5     -77.4420032009      3.79E-04
    6     -77.4434239138      2.82E-04
    7     -77.4451373689      2.19E-04
    8     -77.4472133166      1.30E-04
    9     -77.4479662581      4.70E-05
   10     -77.4480576550      2.02E-05
   11     -77.4480640871      1.38E-05
   12     -77.4480645512      3.63E-06 Convergence criterion met
 ---------------------------------------
 One-Electron    Energy =  -154.6315675409
 Total Coulomb   Energy =    60.3096347537
 Alpha Exchange  Energy =    -2.4397617685
 Beta  Exchange  Energy =    -2.4397617685
 DFT   Exchange  Energy =    -6.1440026587
 DFT Correlation Energy =    -0.4275411150
 Nuclear Repu.   Energy =    28.3249355466
 Nuclear Attr.   Energy =  -231.5854364064
 Kinetic         Energy =    76.9538688655
 SCF time:  CPU 30.47 s  wall 34.71 s
 Final Alpha MO Eigenvalues
            1           2           3           4           5           6
    1 -10.8000901 -10.7039489  -1.3561465  -1.0898269  -0.9549493  -0.8953258
            7           8           9          10          11          12
    1  -0.7496058  -0.3467338  -0.1806068  -0.1128488  -0.0868891  -0.0798512
 Analysis of SCF Wavefunction
 
 --------------------------------------------------------------
                    Orbital Energies (a.u.)
 --------------------------------------------------------------
 
 Alpha MOs
 -- Occupied --
-10.800 -10.704  -1.356  -1.090  -0.955  -0.895  -0.750
 -- Virtual --
 -0.347  -0.181  -0.113  -0.087  -0.080  -0.052  -0.033  -0.023
 -0.002   0.008   0.026   0.033   0.044   0.051   0.068   0.144
  0.215   0.308   0.329   0.350   0.384   0.397   0.406   0.452
  0.482   0.505   0.522   0.527   0.530   0.588   0.630   0.677
  0.784   0.808   0.899   0.901   1.029   1.065   1.068   1.109
  1.179   1.255   1.315   1.323   1.372   1.432   1.507   2.311
  2.391   2.511   2.534   2.542   2.577   2.607   2.655   2.714
  2.755   2.759   2.829   2.955   2.964   3.024   3.037   3.095
  3.130   3.139   3.187   3.202   3.228   3.315   3.475   3.510
  3.532   3.564   3.649   3.913   3.993   4.018   4.156   4.228
  4.262   4.342   4.481   4.572   4.942   5.096   5.176   5.495
  5.756  23.654  24.543  27.064  27.274  27.444  27.997  28.072
 28.173  40.722  40.748  40.905  40.945  40.975  41.045  41.059
 41.122  41.181  41.223
 --------------------------------------------------------------
 
          Ground-State Mulliken Net Atomic Charges

     Atom                 Charge (a.u.)
  ----------------------------------------
      1 C                     0.047526
      2 C                     0.339189
      3 H                     0.201058
      4 H                     0.165660
      5 H                     0.246567
  ----------------------------------------
  Sum of atomic charges =     1.000000

 -----------------------------------------------------------------
                    Cartesian Multipole Moments
 -----------------------------------------------------------------
    Charge (ESU x 10^10)
                 4.8032
    Dipole Moment (Debye)
         X       0.2748      Y       0.0002      Z       3.5202
       Tot       3.5309
    Quadrupole Moments (Debye-Ang)
        XX      -6.7481     XY      -0.0002     YY     -12.4096
        XZ       0.3349     YZ       0.0002     ZZ      -1.4143
    Octapole Moments (Debye-Ang^2)
       XXX       1.1297    XXY       0.0001    XYY      -0.0355
       YYY       0.0002    XXZ      -4.4365    XYZ      -0.0004
       YYZ      -8.0006    XZZ       1.3331    YZZ       0.0005
       ZZZ      -4.4667
    Hexadecapole Moments (Debye-Ang^3)
      XXXX     -11.9334   XXXY      -0.0002   XXYY      -4.9598
      XYYY      -0.0002   YYYY     -12.5714   XXXZ       0.2926
      XXYZ       0.0001   XYYZ      -0.6243   YYYZ       0.0003
      XXZZ      -6.1965   XYZZ      -0.0007   YYZZ     -15.4155
      XZZZ       2.7781   YZZZ       0.0007   ZZZZ     -43.5621
 -----------------------------------------------------------------
 Total job time:  34.86s(wall), 30.57s(cpu) 
 Tue Jun  4 15:39:35 2013

        *************************************************************
        *                                                           *
        *  Thank you very much for using Q-Chem.  Have a nice day.  *
        *                                                           *
        *************************************************************


0 sent ACK to 0 
now end server 0 ... 
