Process 0 of 1 is on cl203.stfx.acenet.ca - thread support 1
initial socket setup ...start
initial socket setup ...done 
now start server 0 ... 

cmd = /usr/bin/ssh clhead /usr/local/qchem/bin/get_hostid 592000802 > /scratch/tmp/6064908.1.medium.q/qchem26260/lic.dat
                  Welcome to Q-Chem
     A Quantum Leap Into The Future Of Chemistry

 Y. Shao, L. Fusti-Molnar, Y. Jung, J. Kussmann, C. Ochsenfeld,
 S. T. Brown, A. T. B. Gilbert, L. V. Slipchenko,S. V. Levchenko,
 D. P. O'Neill, R. A. DiStasio Jr., R. C. Lochan, T. Wang,
 G. J. O. Beran, N. A. Besley, J. M. Herbert, C. Y. Lin,
 T. Van Voorhis, S. H. Chien, A. Sodt, R. P. Steele, 
 V. A. Rassolov, P. E. Maslen, P. P. Korambath, R. D. Adamson,
 B. Austin, J. Baker, E. F. C. Byrd, H. Dachsel, R. J. Doerksen,
 A. Dreuw, B. D. Dunietz, A. D. Dutoi, T. R. Furlani,
 S. R. Gwaltney, A. Heyden, S. Hirata, C.-P. Hsu, G. Kedziora,
 R. Z. Khaliullin, P. Klunzinger, A. M. Lee, M. S. Lee, W. Liang,
 I. Lotan, N. Nair, B. Peters, E. I. Proynov, P. A. Pieniazek, 
 Y. M. Rhee, J. Ritchie, E. Rosta, C. D. Sherrill, 
 A. C. Simmonett, J. E. Subotnik, H. L. Woodcock III,
 W. Zhang, A. T. Bell, A. K. Chakraborty, D. M. Chipman,
 F. J. Keil, A. Warshel, W. J. Hehre, H. F. Schaefer III,
 J. Kong, A. I. Krylov, P. M. W. Gill, M. Head-Gordon,
 Q-Chem, Version 3.1, Q-Chem, Inc., Pittsburgh, PA (2007).

 Additional authors for Version 3.1: 
 Z. Gan, Y. Zhao, N. E. Schultz, D. Truhlar, E. Epifanovsky and M. Oana.

 Additional authors for Version 3.2: 
 R. Baer, B. R. Brooks, D. Casanova, J.-D. Chai, C.-L. Cheng, 
 C. Cramer, D. Crittenden, A. Ghysels, G. Hawkins, E. G. Hohenstein, 
 C. Kelley, W. Kurlancheek, D. Liotard, E. Livshits, P. Manohar, 
 A. Marenich, D. Neuhauser, R. Olson, M. A. Rohrdanz, K. S. Thanthiriwatte, 
 A. J. W. Thom, V. Vanovschi, C. F. Williams, Q. Wu and Z.-Q. You. 


 Intel X86 Linux Version

 Q-chem begins on Mon Jul  8 12:27:49 2013  

 Parallel job on  1  processors
Processing $rem in /usr/local/qchem/config/preferences.

theFileMan(): MAXOPENFILES=974 MAX_SUB_FILE_NUM=16
Maximum size of a physical file is 2.0 GB, maximum size of a tmp-file is 32.0 GB


--------------------------------------------------------------
User input:
--------------------------------------------------------------

$molecule
-1,2
C         -0.00239        0.00000        0.00366
C          0.00239        0.00000        1.52136
O          1.01667        0.00000       -0.61795
H         -1.00159        0.00000       -0.46287
O         -1.01667        0.00000        2.14296
H          1.00159        0.00000        1.98789
$end

$comment
negative
$end

$xc_functional
C PBE   1.00
X wPBE  1.00
$end

$rem
SYMMETRY_DECOMPOSITION	0
exchange 		general
LRC_DFT                 true
BASIS                   g3large
omega			100
mem_static              760
max_scf_cycles          200
scf_final_print         1
sym_ignore              true
$end

--------------------------------------------------------------
 Writing REM_CC_EA            6
 ----------------------------------------------------
       Standard Nuclear Orientation (Angstroms)
    I     Atom         X            Y            Z
 ----------------------------------------------------
    1      C      -0.002390     0.000000     0.003660
    2      C       0.002390     0.000000     1.521360
    3      O       1.016670     0.000000    -0.617950
    4      H      -1.001590     0.000000    -0.462870
    5      O      -1.016670     0.000000     2.142960
    6      H       1.001590     0.000000     1.987890
 ----------------------------------------------------
 Nuclear Repulsion Energy =   102.6576218305 hartrees
 There are       16 alpha and       15 beta electrons
 Requested basis set is G3large
 There are 52 shells and 188 basis functions

Total QAlloc Memory Limit   2000 MB
Mega-Array Size       743 MB
MEM_STATIC part       760 MB

                       Distance Matrix (Angstroms)
             C (  1)   C (  2)   O (  3)   H (  4)   O (  5)
   C (  2)  1.517708
   O (  3)  1.193684  2.367575
   H (  4)  1.102747  2.223768  2.024209
   O (  5)  2.367566  1.193679  3.428862  2.605874
   H (  6)  2.223768  1.102747  2.605884  3.165273  2.024209
 
 A cutoff of  1.0D-08 yielded   1239 shell pairs
 There are  16161 function pairs ( 20529 Cartesian)
Evaluating contribution to one-electron hamiltonian from nuclear
 Smallest overlap matrix eigenvalue = 1.78E-04
 Multipole matrices computed through 2nd order

  Scale SEOQF with 1.000000e-01/1.000000e-01/1.000000e-01

 Standard Electronic Orientation quadrupole field applied
 Nucleus-field energy     =    -0.0000000055 hartrees
 Guess from superposition of atomic densities
 Warning:  Energy on first SCF cycle will be non-variational
 Long-range K will be added via erf
 Coulomb attenuation parameter = 0.1 bohr**(-1)
 An unrestricted Kohn-Sham SCF calculation will be
 performed using Pulay DIIS extrapolation
 Exchange:  wPBE + LR-HF      Correlation:  PBE
 Using SG-1 standard quadrature grid
 SCF converges when DIIS error is below 1.0E-05
 Requested basis set is G3large
 There are 52 shells and 188 basis functions
 A cutoff of  1.0D-08 yielded   1239 shell pairs
 There are  16161 function pairs ( 20529 Cartesian)
 Warning!  Inaccurate integrated density:
   Number of electrons =    31
   Numerical integral  =    29.999861636644
   Relative error      =    -3.2262527850 %
 ---------------------------------------
  Cycle       Energy         DIIS Error
 ---------------------------------------
    1    -228.4575977028      3.70E-02
    2    -227.4797198754      7.61E-03
    3    -226.6289435894      1.66E-02
    4    -227.6890547218      1.12E-03
    5    -227.6950282099      2.50E-04
    6    -227.6954093859      1.45E-04
    7    -227.6954876327      4.20E-05
    8    -227.6955147726      1.27E-05
    9    -227.6955200240      3.00E-06 Convergence criterion met
 ---------------------------------------
 One-Electron    Energy =  -521.3531742822
 Total Coulomb   Energy =   219.7893095375
 Alpha Exchange  Energy =    -0.8928834881
 Beta  Exchange  Energy =    -0.8376796304
 DFT   Exchange  Energy =   -26.0356886161
 DFT Correlation Energy =    -1.0230253696
 Nuclear Repu.   Energy =   102.6576218250
 Nuclear Attr.   Energy =  -748.9040930985
 Kinetic         Energy =   227.5509188162
 <S^2> = 0.7519
 SCF time:  CPU 90.16 s  wall 91.00 s
 Final Alpha MO Eigenvalues
            1           2           3           4           5           6
    1 -18.5666202 -18.5665690  -9.7731244  -9.7730260  -0.8100947  -0.7976823
            7           8           9          10          11          12
    1  -0.4431924  -0.3579837  -0.2592180  -0.2473172  -0.2258551  -0.2179912
           13          14          15          16          17          18
    1  -0.1783658  -0.0912487  -0.0353963   0.0355310   0.1665766   0.1668434
           19          20          21
    1   0.2154403   0.2318740   0.2358426
 Final Beta MO Eigenvalues
            1           2           3           4           5           6
    1 -18.5601171 -18.5600675  -9.7703752  -9.7702784  -0.7997582  -0.7875408
            7           8           9          10          11          12
    1  -0.4285934  -0.3515752  -0.2551467  -0.2395119  -0.2115195  -0.2009040
           13          14          15          16          17          18
    1  -0.1519099  -0.0852558  -0.0293619   0.1669451   0.1678392   0.1738022
           19          20
    1   0.2162916   0.2387549
 Analysis of SCF Wavefunction
 
 --------------------------------------------------------------
                    Orbital Energies (a.u.)
 --------------------------------------------------------------
 
 Alpha MOs
 -- Occupied --
-18.567 -18.567  -9.773  -9.773  -0.810  -0.798  -0.443  -0.358
 -0.259  -0.247  -0.226  -0.218  -0.178  -0.091  -0.035   0.036
 -- Virtual --
  0.167   0.167   0.215   0.232   0.236   0.237   0.257   0.284
  0.284   0.288   0.318   0.375   0.379   0.394   0.411   0.444
  0.453   0.467   0.469   0.491   0.518   0.568   0.626   0.628
  0.702   0.728   0.743   0.758   0.792   0.817   0.819   0.819
  0.903   0.936   0.966   0.984   1.031   1.169   1.178   1.204
  1.222   1.230   1.258   1.270   1.278   1.319   1.322   1.328
  1.368   1.402   1.457   1.525   1.583   1.689   1.704   1.734
  1.828   1.915   1.918   1.960   1.995   2.115   2.203   2.282
  2.386   2.614   2.623   2.648   2.740   2.797   2.816   2.861
  2.938   3.030   3.083   3.094   3.096   3.196   3.230   3.275
  3.319   3.410   3.432   3.491   3.510   3.522   3.543   3.611
  3.686   3.711   3.820   3.831   3.848   3.974   4.009   4.026
  4.242   4.303   4.344   4.355   4.370   4.638   4.786   4.801
  5.130   5.139   5.153   5.196   5.224   5.245   5.249   5.276
  5.440   5.553   5.632   5.652   5.662   5.663   5.958   6.028
  6.434   6.454   6.675   6.945   6.958   6.975   6.978   7.091
  7.130   7.141   7.316   7.375   7.556   7.592   7.741   7.812
 24.547  24.674  27.271  27.390  27.743  28.240  28.289  28.583
 40.895  40.992  41.042  41.096  41.161  41.166  41.237  41.242
 41.389  41.398  43.762  43.782  43.809  43.819  43.905  43.929
 43.929  43.972  44.054  44.077  45.772  45.778  45.879  45.916
 46.605  46.640  50.117  50.150
 
 Beta MOs
 -- Occupied --
-18.560 -18.560  -9.770  -9.770  -0.800  -0.788  -0.429  -0.352
 -0.255  -0.240  -0.212  -0.201  -0.152  -0.085  -0.029
 -- Virtual --
  0.167   0.168   0.174   0.216   0.239   0.244   0.244   0.258
  0.289   0.292   0.301   0.320   0.377   0.384   0.395   0.421
  0.449   0.456   0.470   0.471   0.492   0.521   0.578   0.630
  0.634   0.704   0.745   0.758   0.768   0.795   0.826   0.829
  0.836   0.916   0.943   0.971   0.990   1.041   1.176   1.187
  1.210   1.223   1.244   1.261   1.283   1.287   1.322   1.332
  1.339   1.373   1.414   1.463   1.529   1.586   1.694   1.714
  1.742   1.844   1.928   1.933   1.974   2.003   2.130   2.210
  2.299   2.388   2.619   2.629   2.656   2.758   2.801   2.830
  2.883   2.962   3.037   3.089   3.107   3.109   3.207   3.236
  3.294   3.333   3.421   3.448   3.505   3.516   3.539   3.553
  3.628   3.691   3.726   3.836   3.837   3.852   3.976   4.014
  4.031   4.257   4.308   4.352   4.361   4.375   4.642   4.790
  4.804   5.158   5.164   5.169   5.215   5.246   5.264   5.265
  5.281   5.448   5.563   5.650   5.666   5.677   5.677   5.961
  6.031   6.454   6.473   6.678   6.960   6.987   7.004   7.004
  7.096   7.146   7.147   7.342   7.401   7.560   7.596   7.752
  7.823  24.550  24.678  27.280  27.399  27.745  28.242  28.291
 28.584  40.902  41.000  41.044  41.097  41.167  41.173  41.243
 41.248  41.390  41.399  43.780  43.801  43.826  43.836  43.922
 43.931  43.946  43.973  44.059  44.082  45.792  45.798  45.883
 45.920  46.609  46.644  50.123  50.156
 --------------------------------------------------------------
 
          Ground-State Mulliken Net Atomic Charges

     Atom                 Charge (a.u.)    Spin (a.u.)
  --------------------------------------------------------
      1 C                    -0.083596       0.300547
      2 C                    -0.083557       0.300532
      3 O                    -0.387415       0.223379
      4 H                    -0.029025      -0.023921
      5 O                    -0.387343       0.223365
      6 H                    -0.029065      -0.023902
  --------------------------------------------------------
  Sum of atomic charges =    -1.000000
  Sum of spin   charges =     1.000000

 -----------------------------------------------------------------
                    Cartesian Multipole Moments
 -----------------------------------------------------------------
    Charge (ESU x 10^10)
                -4.8032
    Dipole Moment (Debye)
         X      -0.0002      Y       0.0000      Z      -3.6621
       Tot       3.6621
    Quadrupole Moments (Debye-Ang)
        XX     -34.0554     XY      -0.0026     YY     -26.8952
        XZ       7.6926     YZ      -0.0028     ZZ     -39.9517
    Octapole Moments (Debye-Ang^2)
       XXX       0.0002    XXY       0.0000    XYY       0.0002
       YYY       0.0000    XXZ     -25.9672    XYZ      -0.0020
       YYZ     -20.5077    XZZ      11.7310    YZZ      -0.0042
       ZZZ     -87.1318
    Hexadecapole Moments (Debye-Ang^3)
      XXXX    -146.6694   XXXY      -0.0169   XXYY     -28.7065
      XYYY      -0.0172   YYYY     -39.9168   XXXZ      50.2538
      XXYZ      -0.0107   XYYZ      13.3687   YYYZ      -0.0175
      XXZZ     -96.1743   XYZZ      -0.0114   YYZZ     -61.1912
      XZZZ      76.3146   YZZZ      -0.0226   ZZZZ    -397.6961
 -----------------------------------------------------------------
 Total job time:  91.22s(wall), 90.36s(cpu) 
 Mon Jul  8 12:29:20 2013

        *************************************************************
        *                                                           *
        *  Thank you very much for using Q-Chem.  Have a nice day.  *
        *                                                           *
        *************************************************************


0 sent ACK to 0 
now end server 0 ... 
 
**********************************************************************
Job 2 of 3 
**********************************************************************
 
Process 0 of 1 is on cl203.stfx.acenet.ca - thread support 1
initial socket setup ...start
initial socket setup ...done 
now start server 0 ... 

cmd = /usr/bin/ssh clhead /usr/local/qchem/bin/get_hostid 2061676885 > /scratch/tmp/6064908.1.medium.q/qchem26260/lic.dat
                  Welcome to Q-Chem
     A Quantum Leap Into The Future Of Chemistry

 Y. Shao, L. Fusti-Molnar, Y. Jung, J. Kussmann, C. Ochsenfeld,
 S. T. Brown, A. T. B. Gilbert, L. V. Slipchenko,S. V. Levchenko,
 D. P. O'Neill, R. A. DiStasio Jr., R. C. Lochan, T. Wang,
 G. J. O. Beran, N. A. Besley, J. M. Herbert, C. Y. Lin,
 T. Van Voorhis, S. H. Chien, A. Sodt, R. P. Steele, 
 V. A. Rassolov, P. E. Maslen, P. P. Korambath, R. D. Adamson,
 B. Austin, J. Baker, E. F. C. Byrd, H. Dachsel, R. J. Doerksen,
 A. Dreuw, B. D. Dunietz, A. D. Dutoi, T. R. Furlani,
 S. R. Gwaltney, A. Heyden, S. Hirata, C.-P. Hsu, G. Kedziora,
 R. Z. Khaliullin, P. Klunzinger, A. M. Lee, M. S. Lee, W. Liang,
 I. Lotan, N. Nair, B. Peters, E. I. Proynov, P. A. Pieniazek, 
 Y. M. Rhee, J. Ritchie, E. Rosta, C. D. Sherrill, 
 A. C. Simmonett, J. E. Subotnik, H. L. Woodcock III,
 W. Zhang, A. T. Bell, A. K. Chakraborty, D. M. Chipman,
 F. J. Keil, A. Warshel, W. J. Hehre, H. F. Schaefer III,
 J. Kong, A. I. Krylov, P. M. W. Gill, M. Head-Gordon,
 Q-Chem, Version 3.1, Q-Chem, Inc., Pittsburgh, PA (2007).

 Additional authors for Version 3.1: 
 Z. Gan, Y. Zhao, N. E. Schultz, D. Truhlar, E. Epifanovsky and M. Oana.

 Additional authors for Version 3.2: 
 R. Baer, B. R. Brooks, D. Casanova, J.-D. Chai, C.-L. Cheng, 
 C. Cramer, D. Crittenden, A. Ghysels, G. Hawkins, E. G. Hohenstein, 
 C. Kelley, W. Kurlancheek, D. Liotard, E. Livshits, P. Manohar, 
 A. Marenich, D. Neuhauser, R. Olson, M. A. Rohrdanz, K. S. Thanthiriwatte, 
 A. J. W. Thom, V. Vanovschi, C. F. Williams, Q. Wu and Z.-Q. You. 


 Intel X86 Linux Version

 Q-chem begins on Mon Jul  8 12:29:22 2013  

 Parallel job on  1  processors
Processing $rem in /usr/local/qchem/config/preferences.

theFileMan(): MAXOPENFILES=974 MAX_SUB_FILE_NUM=16
Maximum size of a physical file is 2.0 GB, maximum size of a tmp-file is 32.0 GB


--------------------------------------------------------------
User input:
--------------------------------------------------------------

$molecule
0,1
C         -0.00239        0.00000        0.00366
C          0.00239        0.00000        1.52136
O          1.01667        0.00000       -0.61795
H         -1.00159        0.00000       -0.46287
O         -1.01667        0.00000        2.14296
H          1.00159        0.00000        1.98789
$end

$comment
neutral
$end

$xc_functional
C PBE   1.00
X wPBE  1.00
$end


$rem
SYMMETRY_DECOMPOSITION	0
LRC_DFT                 true
exchange 		general
BASIS                   g3large
omega			100
mem_static              760
max_scf_cycles          200
scf_final_print         1
sym_ignore              true
$end

--------------------------------------------------------------
 Writing REM_CC_EA            6
 ----------------------------------------------------
       Standard Nuclear Orientation (Angstroms)
    I     Atom         X            Y            Z
 ----------------------------------------------------
    1      C      -0.002390     0.000000     0.003660
    2      C       0.002390     0.000000     1.521360
    3      O       1.016670     0.000000    -0.617950
    4      H      -1.001590     0.000000    -0.462870
    5      O      -1.016670     0.000000     2.142960
    6      H       1.001590     0.000000     1.987890
 ----------------------------------------------------
 Nuclear Repulsion Energy =   102.6576218305 hartrees
 There are       15 alpha and       15 beta electrons
 Requested basis set is G3large
 There are 52 shells and 188 basis functions

Total QAlloc Memory Limit   2000 MB
Mega-Array Size       743 MB
MEM_STATIC part       760 MB

                       Distance Matrix (Angstroms)
             C (  1)   C (  2)   O (  3)   H (  4)   O (  5)
   C (  2)  1.517708
   O (  3)  1.193684  2.367575
   H (  4)  1.102747  2.223768  2.024209
   O (  5)  2.367566  1.193679  3.428862  2.605874
   H (  6)  2.223768  1.102747  2.605884  3.165273  2.024209
 
 A cutoff of  1.0D-08 yielded   1239 shell pairs
 There are  16161 function pairs ( 20529 Cartesian)
Evaluating contribution to one-electron hamiltonian from nuclear
 Smallest overlap matrix eigenvalue = 1.78E-04
 Multipole matrices computed through 2nd order

  Scale SEOQF with 1.000000e-01/1.000000e-01/1.000000e-01

 Standard Electronic Orientation quadrupole field applied
 Nucleus-field energy     =    -0.0000000055 hartrees
 Guess from superposition of atomic densities
 Warning:  Energy on first SCF cycle will be non-variational
 Long-range K will be added via erf
 Coulomb attenuation parameter = 0.1 bohr**(-1)
 A restricted Kohn-Sham SCF calculation will be
 performed using Pulay DIIS extrapolation
 Exchange:  wPBE + LR-HF      Correlation:  PBE
 Using SG-1 standard quadrature grid
 SCF converges when DIIS error is below 1.0E-05
 Requested basis set is G3large
 There are 52 shells and 188 basis functions
 A cutoff of  1.0D-08 yielded   1239 shell pairs
 There are  16161 function pairs ( 20529 Cartesian)
 ---------------------------------------
  Cycle       Energy         DIIS Error
 ---------------------------------------
    1    -228.4575977028      3.70E-02
    2    -227.5098688191      6.78E-03
    3    -226.9788523499      1.46E-02
    4    -227.6613617111      6.67E-04
    5    -227.6626464855      3.44E-04
    6    -227.6631775840      5.52E-05
    7    -227.6631830060      1.07E-05
    8    -227.6631858629      1.65E-06 Convergence criterion met
 ---------------------------------------
 One-Electron    Energy =  -513.4120206709
 Total Coulomb   Energy =   211.5760254786
 Alpha Exchange  Energy =    -0.8385254587
 Beta  Exchange  Energy =    -0.8385254587
 DFT   Exchange  Energy =   -25.8160612499
 DFT Correlation Energy =    -0.9917003282
 Nuclear Repu.   Energy =   102.6576218250
 Nuclear Attr.   Energy =  -740.6593503019
 Kinetic         Energy =   227.2473296309
 SCF time:  CPU 65.25 s  wall 65.91 s
 Final Alpha MO Eigenvalues
            1           2           3           4           5           6
    1 -18.8460355 -18.8460311 -10.0504277 -10.0503292  -1.0745594  -1.0616277
            7           8           9          10          11          12
    1  -0.7076238  -0.6074721  -0.5148368  -0.5006670  -0.4802769  -0.4699517
           13          14          15          16          17          18
    1  -0.4306833  -0.3442962  -0.2859044  -0.1050503   0.0119234   0.0314459
           19          20
    1   0.0347401   0.0664419
 Analysis of SCF Wavefunction
 
 --------------------------------------------------------------
                    Orbital Energies (a.u.)
 --------------------------------------------------------------
 
 Alpha MOs
 -- Occupied --
-18.846 -18.846 -10.050 -10.050  -1.075  -1.062  -0.708  -0.607
 -0.515  -0.501  -0.480  -0.470  -0.431  -0.344  -0.286
 -- Virtual --
 -0.105   0.012   0.031   0.035   0.066   0.079   0.093   0.114
  0.119   0.129   0.140   0.170   0.192   0.192   0.213   0.229
  0.272   0.278   0.293   0.293   0.322   0.336   0.341   0.415
  0.421   0.495   0.512   0.523   0.546   0.583   0.585   0.597
  0.600   0.670   0.726   0.744   0.749   0.795   0.930   0.956
  0.981   1.001   1.007   1.046   1.057   1.066   1.094   1.097
  1.116   1.140   1.160   1.225   1.295   1.359   1.467   1.473
  1.497   1.584   1.672   1.681   1.718   1.744   1.867   1.962
  2.039   2.147   2.375   2.381   2.406   2.478   2.556   2.566
  2.606   2.679   2.776   2.821   2.837   2.840   2.944   2.973
  3.015   3.067   3.155   3.177   3.233   3.253   3.259   3.294
  3.352   3.434   3.453   3.561   3.577   3.593   3.716   3.753
  3.768   3.980   4.059   4.097   4.099   4.109   4.382   4.530
  4.548   4.877   4.885   4.900   4.942   4.970   4.991   4.995
  5.019   5.182   5.298   5.374   5.395   5.402   5.404   5.702
  5.773   6.172   6.192   6.410   6.686   6.701   6.718   6.721
  6.828   6.873   6.878   7.059   7.118   7.297   7.331   7.482
  7.552  24.272  24.398  26.996  27.115  27.466  27.964  28.013
 28.307  40.619  40.716  40.765  40.819  40.885  40.890  40.960
 40.965  41.112  41.121  43.488  43.508  43.534  43.544  43.629
 43.651  43.653  43.694  43.777  43.799  45.497  45.503  45.602
 45.638  46.326  46.362  49.839  49.872
 --------------------------------------------------------------
 
          Ground-State Mulliken Net Atomic Charges

     Atom                 Charge (a.u.)
  ----------------------------------------
      1 C                     0.078223
      2 C                     0.078220
      3 O                    -0.197492
      4 H                     0.119271
      5 O                    -0.197493
      6 H                     0.119272
  ----------------------------------------
  Sum of atomic charges =     0.000000

 -----------------------------------------------------------------
                    Cartesian Multipole Moments
 -----------------------------------------------------------------
    Charge (ESU x 10^10)
                 0.0000
    Dipole Moment (Debye)
         X       0.0000      Y       0.0000      Z       0.0000
       Tot       0.0000
    Quadrupole Moments (Debye-Ang)
        XX     -25.7296     XY       0.0000     YY     -21.4028
        XZ       5.4825     YZ       0.0001     ZZ     -26.2847
    Octapole Moments (Debye-Ang^2)
       XXX       0.0000    XXY       0.0000    XYY       0.0000
       YYY       0.0000    XXZ     -19.6190    XYZ       0.0000
       YYZ     -16.3197    XZZ       8.3609    YZZ       0.0002
       ZZZ     -60.1267
    Hexadecapole Moments (Debye-Ang^3)
      XXXX    -107.1112   XXXY       0.0000   XXYY     -19.7829
      XYYY       0.0000   YYYY     -19.1891   XXXZ      46.8881
      XXYZ       0.0001   XYYZ      12.7357   YYYZ       0.0001
      XXZZ     -69.1691   XYZZ      -0.0002   YYZZ     -47.3359
      XZZZ      62.8126   YZZZ       0.0006   ZZZZ    -303.5247
 -----------------------------------------------------------------
 Total job time:  66.12s(wall), 65.44s(cpu) 
 Mon Jul  8 12:30:29 2013

        *************************************************************
        *                                                           *
        *  Thank you very much for using Q-Chem.  Have a nice day.  *
        *                                                           *
        *************************************************************


0 sent ACK to 0 
now end server 0 ... 
 
**********************************************************************
Job 3 of 3 
**********************************************************************
 
Process 0 of 1 is on cl203.stfx.acenet.ca - thread support 1
initial socket setup ...start
initial socket setup ...done 
now start server 0 ... 

cmd = /usr/bin/ssh clhead /usr/local/qchem/bin/get_hostid 406624858 > /scratch/tmp/6064908.1.medium.q/qchem26260/lic.dat
                  Welcome to Q-Chem
     A Quantum Leap Into The Future Of Chemistry

 Y. Shao, L. Fusti-Molnar, Y. Jung, J. Kussmann, C. Ochsenfeld,
 S. T. Brown, A. T. B. Gilbert, L. V. Slipchenko,S. V. Levchenko,
 D. P. O'Neill, R. A. DiStasio Jr., R. C. Lochan, T. Wang,
 G. J. O. Beran, N. A. Besley, J. M. Herbert, C. Y. Lin,
 T. Van Voorhis, S. H. Chien, A. Sodt, R. P. Steele, 
 V. A. Rassolov, P. E. Maslen, P. P. Korambath, R. D. Adamson,
 B. Austin, J. Baker, E. F. C. Byrd, H. Dachsel, R. J. Doerksen,
 A. Dreuw, B. D. Dunietz, A. D. Dutoi, T. R. Furlani,
 S. R. Gwaltney, A. Heyden, S. Hirata, C.-P. Hsu, G. Kedziora,
 R. Z. Khaliullin, P. Klunzinger, A. M. Lee, M. S. Lee, W. Liang,
 I. Lotan, N. Nair, B. Peters, E. I. Proynov, P. A. Pieniazek, 
 Y. M. Rhee, J. Ritchie, E. Rosta, C. D. Sherrill, 
 A. C. Simmonett, J. E. Subotnik, H. L. Woodcock III,
 W. Zhang, A. T. Bell, A. K. Chakraborty, D. M. Chipman,
 F. J. Keil, A. Warshel, W. J. Hehre, H. F. Schaefer III,
 J. Kong, A. I. Krylov, P. M. W. Gill, M. Head-Gordon,
 Q-Chem, Version 3.1, Q-Chem, Inc., Pittsburgh, PA (2007).

 Additional authors for Version 3.1: 
 Z. Gan, Y. Zhao, N. E. Schultz, D. Truhlar, E. Epifanovsky and M. Oana.

 Additional authors for Version 3.2: 
 R. Baer, B. R. Brooks, D. Casanova, J.-D. Chai, C.-L. Cheng, 
 C. Cramer, D. Crittenden, A. Ghysels, G. Hawkins, E. G. Hohenstein, 
 C. Kelley, W. Kurlancheek, D. Liotard, E. Livshits, P. Manohar, 
 A. Marenich, D. Neuhauser, R. Olson, M. A. Rohrdanz, K. S. Thanthiriwatte, 
 A. J. W. Thom, V. Vanovschi, C. F. Williams, Q. Wu and Z.-Q. You. 


 Intel X86 Linux Version

 Q-chem begins on Mon Jul  8 12:30:31 2013  

 Parallel job on  1  processors
Processing $rem in /usr/local/qchem/config/preferences.

theFileMan(): MAXOPENFILES=974 MAX_SUB_FILE_NUM=16
Maximum size of a physical file is 2.0 GB, maximum size of a tmp-file is 32.0 GB


--------------------------------------------------------------
User input:
--------------------------------------------------------------

$molecule
1,2
C         -0.00239        0.00000        0.00366
C          0.00239        0.00000        1.52136
O          1.01667        0.00000       -0.61795
H         -1.00159        0.00000       -0.46287
O         -1.01667        0.00000        2.14296
H          1.00159        0.00000        1.98789
$end

$comment
positive
$end

$xc_functional
C PBE   1.00
X wPBE  1.00
$end

$rem
SYMMETRY_DECOMPOSITION	0
LRC_DFT                 true
exchange 		general
BASIS                   g3large
omega			100
mem_static              760
max_scf_cycles          200
scf_final_print         1
sym_ignore              true
$end

--------------------------------------------------------------
 Writing REM_CC_EA            6
 ----------------------------------------------------
       Standard Nuclear Orientation (Angstroms)
    I     Atom         X            Y            Z
 ----------------------------------------------------
    1      C      -0.002390     0.000000     0.003660
    2      C       0.002390     0.000000     1.521360
    3      O       1.016670     0.000000    -0.617950
    4      H      -1.001590     0.000000    -0.462870
    5      O      -1.016670     0.000000     2.142960
    6      H       1.001590     0.000000     1.987890
 ----------------------------------------------------
 Nuclear Repulsion Energy =   102.6576218305 hartrees
 There are       15 alpha and       14 beta electrons
 Requested basis set is G3large
 There are 52 shells and 188 basis functions

Total QAlloc Memory Limit   2000 MB
Mega-Array Size       743 MB
MEM_STATIC part       760 MB

                       Distance Matrix (Angstroms)
             C (  1)   C (  2)   O (  3)   H (  4)   O (  5)
   C (  2)  1.517708
   O (  3)  1.193684  2.367575
   H (  4)  1.102747  2.223768  2.024209
   O (  5)  2.367566  1.193679  3.428862  2.605874
   H (  6)  2.223768  1.102747  2.605884  3.165273  2.024209
 
 A cutoff of  1.0D-08 yielded   1239 shell pairs
 There are  16161 function pairs ( 20529 Cartesian)
Evaluating contribution to one-electron hamiltonian from nuclear
 Smallest overlap matrix eigenvalue = 1.78E-04
 Multipole matrices computed through 2nd order

  Scale SEOQF with 1.000000e-01/1.000000e-01/1.000000e-01

 Standard Electronic Orientation quadrupole field applied
 Nucleus-field energy     =    -0.0000000055 hartrees
 Guess from superposition of atomic densities
 Warning:  Energy on first SCF cycle will be non-variational
 Long-range K will be added via erf
 Coulomb attenuation parameter = 0.1 bohr**(-1)
 An unrestricted Kohn-Sham SCF calculation will be
 performed using Pulay DIIS extrapolation
 Exchange:  wPBE + LR-HF      Correlation:  PBE
 Using SG-1 standard quadrature grid
 SCF converges when DIIS error is below 1.0E-05
 Requested basis set is G3large
 There are 52 shells and 188 basis functions
 A cutoff of  1.0D-08 yielded   1239 shell pairs
 There are  16161 function pairs ( 20529 Cartesian)
 Warning!  Inaccurate integrated density:
   Number of electrons =    29
   Numerical integral  =    29.999861636644
   Relative error      =     3.4477987470 %
 ---------------------------------------
  Cycle       Energy         DIIS Error
 ---------------------------------------
    1    -228.4575977028      3.70E-02
    2    -227.1698358777      5.53E-03
    3    -226.6254953678      1.41E-02
    4    -227.2942538218      6.56E-04
    5    -227.2956764391      2.46E-04
    6    -227.2958380309      4.25E-05
    7    -227.2958684625      1.03E-05
    8    -227.2958711534      1.26E-05
    9    -227.2958724652      3.85E-06 Convergence criterion met
 ---------------------------------------
 One-Electron    Energy =  -504.6707138029
 Total Coulomb   Energy =   202.8215751721
 Alpha Exchange  Energy =    -0.8391744996
 Beta  Exchange  Energy =    -0.7814255447
 DFT   Exchange  Energy =   -25.5274859041
 DFT Correlation Energy =    -0.9562697109
 Nuclear Repu.   Energy =   102.6576218250
 Nuclear Attr.   Energy =  -731.4992933925
 Kinetic         Energy =   226.8285795896
 <S^2> = 0.7526
 SCF time:  CPU 86.50 s  wall 87.30 s
 Final Alpha MO Eigenvalues
            1           2           3           4           5           6
    1 -19.1702129 -19.1702062 -10.3458782 -10.3457767  -1.3781280  -1.3658250
            7           8           9          10          11          12
    1  -1.0071824  -0.8896547  -0.8088310  -0.7918264  -0.7627026  -0.7579948
           13          14          15          16          17          18
    1  -0.7166128  -0.6552610  -0.5937464  -0.3869037  -0.2566548  -0.1414764
           19          20
    1  -0.1327071  -0.1153331
 Final Beta MO Eigenvalues
            1           2           3           4           5           6
    1 -19.1613066 -19.1613010 -10.3450767 -10.3449736  -1.3640638  -1.3511245
            7           8           9          10          11          12
    1  -0.9922376  -0.8780853  -0.7906452  -0.7791095  -0.7574700  -0.7467242
           13          14          15          16          17          18
    1  -0.7092505  -0.6155870  -0.4506538  -0.3801913  -0.2546391  -0.1344330
           19
    1  -0.1299025
 Analysis of SCF Wavefunction
 
 --------------------------------------------------------------
                    Orbital Energies (a.u.)
 --------------------------------------------------------------
 
 Alpha MOs
 -- Occupied --
-19.170 -19.170 -10.346 -10.346  -1.378  -1.366  -1.007  -0.890
 -0.809  -0.792  -0.763  -0.758  -0.717  -0.655  -0.594
 -- Virtual --
 -0.387  -0.257  -0.141  -0.133  -0.115  -0.089  -0.087  -0.047
 -0.043  -0.038  -0.025  -0.002   0.009   0.013   0.026   0.039
  0.046   0.100   0.106   0.106   0.134   0.138   0.166   0.202
  0.212   0.276   0.284   0.290   0.312   0.325   0.360   0.361
  0.379   0.427   0.500   0.503   0.515   0.542   0.669   0.711
  0.737   0.754   0.769   0.816   0.825   0.831   0.844   0.852
  0.881   0.895   0.900   0.962   1.040   1.116   1.219   1.221
  1.236   1.306   1.400   1.418   1.441   1.460   1.596   1.690
  1.773   1.873   2.109   2.113   2.135   2.191   2.282   2.290
  2.332   2.402   2.490   2.539   2.561   2.564   2.668   2.693
  2.735   2.789   2.878   2.897   2.953   2.969   2.976   3.015
  3.071   3.152   3.173   3.282   3.296   3.311   3.426   3.466
  3.483   3.693   3.779   3.806   3.818   3.821   4.094   4.237
  4.255   4.584   4.588   4.589   4.639   4.667   4.683   4.693
  4.697   4.879   5.008   5.085   5.097   5.104   5.112   5.399
  5.471   5.878   5.900   6.099   6.375   6.378   6.395   6.398
  6.530   6.560   6.582   6.765   6.824   6.983   7.013   7.182
  7.252  23.979  24.104  26.702  26.822  27.168  27.670  27.719
 28.011  40.322  40.421  40.469  40.522  40.588  40.594  40.666
 40.670  40.816  40.824  43.157  43.178  43.203  43.212  43.314
 43.321  43.337  43.363  43.453  43.475  45.178  45.184  45.267
 45.303  46.007  46.042  49.517  49.550
 
 Beta MOs
 -- Occupied --
-19.161 -19.161 -10.345 -10.345  -1.364  -1.351  -0.992  -0.878
 -0.791  -0.779  -0.757  -0.747  -0.709  -0.616
 -- Virtual --
 -0.451  -0.380  -0.255  -0.134  -0.130  -0.111  -0.086  -0.083
 -0.043  -0.037  -0.037  -0.024   0.003   0.013   0.017   0.029
  0.042   0.053   0.103   0.108   0.110   0.139   0.144   0.169
  0.206   0.217   0.285   0.287   0.292   0.318   0.330   0.366
  0.370   0.382   0.427   0.503   0.507   0.517   0.548   0.675
  0.721   0.746   0.757   0.777   0.823   0.830   0.843   0.855
  0.857   0.895   0.904   0.906   0.975   1.052   1.125   1.227
  1.231   1.248   1.323   1.414   1.428   1.458   1.475   1.598
  1.703   1.776   1.888   2.117   2.122   2.146   2.200   2.295
  2.300   2.332   2.406   2.505   2.544   2.563   2.569   2.674
  2.700   2.734   2.793   2.884   2.904   2.956   2.974   2.977
  3.024   3.073   3.164   3.174   3.283   3.303   3.318   3.435
  3.479   3.491   3.700   3.799   3.818   3.829   3.838   4.107
  4.256   4.275   4.593   4.601   4.625   4.665   4.692   4.713
  4.718   4.741   4.904   5.022   5.094   5.114   5.122   5.122
  5.422   5.494   5.882   5.903   6.121   6.401   6.418   6.435
  6.438   6.538   6.590   6.591   6.771   6.830   7.015   7.049
  7.195   7.264  23.980  24.105  26.702  26.822  27.172  27.670
 27.719  28.014  40.324  40.422  40.471  40.524  40.590  40.596
 40.666  40.670  40.818  40.826  43.179  43.198  43.226  43.236
 43.316  43.340  43.342  43.385  43.465  43.488  45.184  45.190
 45.293  45.330  46.013  46.048  49.526  49.559
 --------------------------------------------------------------
 
          Ground-State Mulliken Net Atomic Charges

     Atom                 Charge (a.u.)    Spin (a.u.)
  --------------------------------------------------------
      1 C                     0.166338       0.041257
      2 C                     0.166225       0.041283
      3 O                     0.092720       0.373392
      4 H                     0.240978       0.085350
      5 O                     0.092760       0.373379
      6 H                     0.240979       0.085339
  --------------------------------------------------------
  Sum of atomic charges =     1.000000
  Sum of spin   charges =     1.000000

 -----------------------------------------------------------------
                    Cartesian Multipole Moments
 -----------------------------------------------------------------
    Charge (ESU x 10^10)
                 4.8032
    Dipole Moment (Debye)
         X      -0.0001      Y       0.0000      Z       3.6626
       Tot       3.6626
    Quadrupole Moments (Debye-Ang)
        XX     -17.8972     XY       0.0000     YY     -19.1830
        XZ       3.0328     YZ       0.0003     ZZ     -12.1385
    Octapole Moments (Debye-Ang^2)
       XXX      -0.0001    XXY       0.0000    XYY       0.0000
       YYY       0.0000    XXZ     -13.6466    XYZ       0.0000
       YYZ     -14.6272    XZZ       4.6250    YZZ       0.0004
       ZZZ     -32.0258
    Hexadecapole Moments (Debye-Ang^3)
      XXXX     -80.7608   XXXY       0.0003   XXYY     -16.1824
      XYYY       0.0000   YYYY     -15.0321   XXXZ      41.2152
      XXYZ      -0.0001   XYYZ      11.7541   YYYZ       0.0002
      XXZZ     -47.8008   XYZZ      -0.0007   YYZZ     -41.0161
      XZZZ      47.0332   YZZZ       0.0021   ZZZZ    -211.6517
 -----------------------------------------------------------------
 Total job time:  87.51s(wall), 86.71s(cpu) 
 Mon Jul  8 12:31:59 2013

        *************************************************************
        *                                                           *
        *  Thank you very much for using Q-Chem.  Have a nice day.  *
        *                                                           *
        *************************************************************


0 sent ACK to 0 
now end server 0 ... 
