Process 0 of 1 is on cl088.stfx.acenet.ca - thread support 1
initial socket setup ...start
initial socket setup ...done 
now start server 0 ... 

cmd = /usr/bin/ssh clhead /usr/local/qchem/bin/get_hostid 911661754 > /scratch/tmp/6060378.1.short.q/qchem31798/lic.dat
                  Welcome to Q-Chem
     A Quantum Leap Into The Future Of Chemistry

 Y. Shao, L. Fusti-Molnar, Y. Jung, J. Kussmann, C. Ochsenfeld,
 S. T. Brown, A. T. B. Gilbert, L. V. Slipchenko,S. V. Levchenko,
 D. P. O'Neill, R. A. DiStasio Jr., R. C. Lochan, T. Wang,
 G. J. O. Beran, N. A. Besley, J. M. Herbert, C. Y. Lin,
 T. Van Voorhis, S. H. Chien, A. Sodt, R. P. Steele, 
 V. A. Rassolov, P. E. Maslen, P. P. Korambath, R. D. Adamson,
 B. Austin, J. Baker, E. F. C. Byrd, H. Dachsel, R. J. Doerksen,
 A. Dreuw, B. D. Dunietz, A. D. Dutoi, T. R. Furlani,
 S. R. Gwaltney, A. Heyden, S. Hirata, C.-P. Hsu, G. Kedziora,
 R. Z. Khaliullin, P. Klunzinger, A. M. Lee, M. S. Lee, W. Liang,
 I. Lotan, N. Nair, B. Peters, E. I. Proynov, P. A. Pieniazek, 
 Y. M. Rhee, J. Ritchie, E. Rosta, C. D. Sherrill, 
 A. C. Simmonett, J. E. Subotnik, H. L. Woodcock III,
 W. Zhang, A. T. Bell, A. K. Chakraborty, D. M. Chipman,
 F. J. Keil, A. Warshel, W. J. Hehre, H. F. Schaefer III,
 J. Kong, A. I. Krylov, P. M. W. Gill, M. Head-Gordon,
 Q-Chem, Version 3.1, Q-Chem, Inc., Pittsburgh, PA (2007).

 Additional authors for Version 3.1: 
 Z. Gan, Y. Zhao, N. E. Schultz, D. Truhlar, E. Epifanovsky and M. Oana.

 Additional authors for Version 3.2: 
 R. Baer, B. R. Brooks, D. Casanova, J.-D. Chai, C.-L. Cheng, 
 C. Cramer, D. Crittenden, A. Ghysels, G. Hawkins, E. G. Hohenstein, 
 C. Kelley, W. Kurlancheek, D. Liotard, E. Livshits, P. Manohar, 
 A. Marenich, D. Neuhauser, R. Olson, M. A. Rohrdanz, K. S. Thanthiriwatte, 
 A. J. W. Thom, V. Vanovschi, C. F. Williams, Q. Wu and Z.-Q. You. 


 Intel X86 Linux Version

 Q-chem begins on Wed Jul  3 20:18:04 2013  

 Parallel job on  1  processors
Processing $rem in /usr/local/qchem/config/preferences.

theFileMan(): MAXOPENFILES=974 MAX_SUB_FILE_NUM=16
Maximum size of a physical file is 2.0 GB, maximum size of a tmp-file is 32.0 GB


--------------------------------------------------------------
User input:
--------------------------------------------------------------

$molecule
0,1
C
C,1,CC
O,2,CO,1,OCC
H,3,OH,2,HOC,1,180.,0
X,2,1.,1,XCC,3,180.,0
H,2,CH,5,A1,1,90.,0
H,2,CH,5,A1,1,-90.,0
H,1,CH3,2,H3CC,3,180.,0
X,1,1.,2,YCC,3,0.,0
H,1,CH4,9,A2,2,90.,0
H,1,CH4,9,A2,2,-90.,0

CC=1.51956941
CO=1.42572482
OCC=107.71524991
OH=0.96900438
HOC=107.79856599
XCC=125.0944652
CH=1.10250643
A1=53.62321638
CH3=1.09570069
H3CC=110.65569583
YCC=126.38970148
CH4=1.09498698
A2=54.09129196

$end

$comment
neutral
$end

$xc_functional
C PBE   1.00
X wPBE  1.00
$end


$rem
SYMMETRY_DECOMPOSITION	0
LRC_DFT                 true
exchange 		general
BASIS                   g3large
omega			410 
JOBTYPE                 opt
mem_static              760
max_scf_cycles          200
scf_final_print         1
sym_ignore              true
$end


--------------------------------------------------------------
 Writing REM_CC_EA            9
 ----------------------------------------------------
       Standard Nuclear Orientation (Angstroms)
    I     Atom         X            Y            Z
 ----------------------------------------------------
    1      C       0.000000     0.000000     0.000000
    2      C       0.000000     0.000000     1.519569
    3      O       1.358118     0.000000     1.953398
    4      H       1.359527     0.000000     2.922402
    5      H      -0.535015     0.887666     1.895507
    6      H      -0.535015    -0.887666     1.895507
    7      H      -1.025266     0.000000    -0.386510
    8      H       0.516975     0.886887    -0.381004
    9      H       0.516975    -0.886887    -0.381004
 ----------------------------------------------------
 Nuclear Repulsion Energy =    81.6053956089 hartrees
 There are       13 alpha and       13 beta electrons
 Requested basis set is G3large
 There are 66 shells and 186 basis functions

Total QAlloc Memory Limit   2000 MB
Mega-Array Size       743 MB
MEM_STATIC part       760 MB
 A cutoff of  1.0D-11 yielded   2154 shell pairs
 There are  17137 function pairs ( 20675 Cartesian)
Evaluating contribution to one-electron hamiltonian from nuclear
 Smallest overlap matrix eigenvalue = 1.01E-04
 Multipole matrices computed through 2nd order

  Scale SEOQF with 1.000000e-01/1.000000e-01/1.000000e-01

 Standard Electronic Orientation quadrupole field applied
 Nucleus-field energy     =    -0.0000000056 hartrees
 Guess from superposition of atomic densities
 Warning:  Energy on first SCF cycle will be non-variational
 Long-range K will be added via erf
 Coulomb attenuation parameter = 0.41 bohr**(-1)
 A restricted Kohn-Sham SCF calculation will be
 performed using Pulay DIIS extrapolation
 Exchange:  wPBE + LR-HF      Correlation:  PBE
 Using SG-1 standard quadrature grid
 SCF converges when DIIS error is below 1.0E-08
 Requested basis set is G3large
 There are 66 shells and 186 basis functions
 A cutoff of  1.0D-11 yielded   2154 shell pairs
 There are  17137 function pairs ( 20675 Cartesian)
 ---------------------------------------
  Cycle       Energy         DIIS Error
 ---------------------------------------
    1    -155.5108451086      3.15E-02
    2    -154.9320801639      4.12E-03
    3    -154.9599255585      3.62E-03
    4    -154.9966358763      5.03E-04
    5    -154.9974901036      1.78E-04
    6    -154.9976286568      4.08E-05
    7    -154.9976391101      7.31E-06
    8    -154.9976396706      1.58E-06
    9    -154.9976396417      6.01E-07
   10    -154.9976396663      1.61E-07
   11    -154.9976396634      3.50E-08
   12    -154.9976396645      7.21E-09 Convergence criterion met
 ---------------------------------------
 One-Electron    Energy =  -371.5271106874
 Total Coulomb   Energy =   156.5203280510
 Alpha Exchange  Energy =    -2.6473532262
 Beta  Exchange  Energy =    -2.6473532262
 DFT   Exchange  Energy =   -15.4580639438
 DFT Correlation Energy =    -0.8434822351
 Nuclear Repu.   Energy =    81.6053956033
 Nuclear Attr.   Energy =  -525.8019171006
 Kinetic         Energy =   154.2748064131
 SCF time:  CPU 123.33 s  wall 124.55 s
 Final Alpha MO Eigenvalues
            1           2           3           4           5           6
    1 -18.9640536 -10.1552888 -10.0950880  -1.1589061  -0.9001048  -0.7530646
            7           8           9          10          11          12
    1  -0.6503990  -0.5995244  -0.5304639  -0.5046223  -0.4881438  -0.4558359
           13          14          15          16          17          18
    1  -0.3968407   0.0375041   0.0536960   0.0629969   0.0646916   0.0872578
 Analysis of SCF Wavefunction
 
 --------------------------------------------------------------
                    Orbital Energies (a.u.)
 --------------------------------------------------------------
 
 Alpha MOs
 -- Occupied --
-18.964 -10.155 -10.095  -1.159  -0.900  -0.753  -0.650  -0.600
 -0.530  -0.505  -0.488  -0.456  -0.397
 -- Virtual --
  0.038   0.054   0.063   0.065   0.087   0.097   0.133   0.143
  0.149   0.153   0.178   0.181   0.197   0.197   0.254   0.260
  0.266   0.294   0.300   0.310   0.332   0.349   0.356   0.374
  0.414   0.457   0.522   0.523   0.549   0.559   0.614   0.643
  0.654   0.658   0.672   0.687   0.698   0.711   0.734   0.767
  0.825   0.857   0.916   0.928   0.972   0.991   1.036   1.130
  1.138   1.154   1.178   1.221   1.241   1.270   1.271   1.297
  1.310   1.363   1.399   1.409   1.426   1.474   1.517   1.519
  1.548   1.559   1.579   1.593   1.642   1.660   1.705   1.829
  1.956   2.112   2.157   2.334   2.440   2.509   2.588   2.649
  2.705   2.706   2.855   2.930   2.935   2.949   3.042   3.126
  3.161   3.181   3.184   3.300   3.305   3.323   3.377   3.431
  3.474   3.510   3.627   3.643   3.651   3.655   3.691   3.758
  3.817   3.851   3.920   3.977   4.028   4.084   4.116   4.135
  4.149   4.256   4.294   4.329   4.354   4.360   4.403   4.447
  4.547   4.563   4.597   4.669   4.678   4.756   5.103   5.255
  5.280   5.291   5.429   5.546   5.574   5.633   5.666   5.753
  5.756   5.932   6.002   6.496   7.060   7.226   7.269   7.316
  7.617   7.745  24.177  24.331  27.659  28.046  28.076  28.147
 28.167  28.384  40.935  40.954  40.993  41.075  41.153  41.197
 41.210  41.234  41.251  41.294  43.827  43.840  43.889  43.942
 43.992  45.673  45.989  46.375  49.866
 --------------------------------------------------------------
 
          Ground-State Mulliken Net Atomic Charges

     Atom                 Charge (a.u.)
  ----------------------------------------
      1 C                    -0.215080
      2 C                    -0.135590
      3 O                    -0.299751
      4 H                     0.246655
      5 H                     0.075419
      6 H                     0.075419
      7 H                     0.065292
      8 H                     0.093817
      9 H                     0.093817
  ----------------------------------------
  Sum of atomic charges =     0.000000

 -----------------------------------------------------------------
                    Cartesian Multipole Moments
 -----------------------------------------------------------------
    Charge (ESU x 10^10)
                 0.0000
    Dipole Moment (Debye)
         X      -1.4103      Y       0.0000      Z       0.9472
       Tot       1.6989
    Quadrupole Moments (Debye-Ang)
        XX     -22.8271     XY       0.0000     YY     -20.1919
        XZ      -0.6845     YZ       0.0000     ZZ     -13.9597
    Octapole Moments (Debye-Ang^2)
       XXX     -28.1787    XXY       0.0000    XYY      -8.1786
       YYY       0.0000    XXZ     -24.5064    XYZ       0.0000
       YYZ     -22.7422    XZZ      -1.7540    YZZ       0.0000
       ZZZ     -39.4964
    Hexadecapole Moments (Debye-Ang^3)
      XXXX    -107.9307   XXXY       0.0000   XXYY     -23.7867
      XYYY       0.0000   YYYY     -34.2823   XXXZ     -49.8820
      XXYZ       0.0000   XYYZ     -18.5299   YYYZ       0.0000
      XXZZ     -56.8708   XYZZ       0.0000   YYZZ     -53.1717
      XZZZ     -13.2473   YZZZ       0.0000   ZZZZ    -184.1363
 -----------------------------------------------------------------
 Calculating analytic gradient of the SCF energy
 Gradient of AOints
            1           2           3           4           5           6
    1   1.2289307   2.9452400  -8.0159953  -0.6810284   2.1232769   2.1232762
    2  -0.0000005  -0.0000006   0.0000013  -0.0000009  -2.7730649   2.7730653
    3   4.2163568  -1.2700122  -1.1010748  -4.0494116  -1.3013877  -1.3013880
            7           8           9
    1   3.0444428  -1.3840715  -1.3840715
    2   0.0000003  -2.6335365   2.6335365
    3   1.6154771   1.5957200   1.5957205
 Gradient of XC Energy
            1           2           3           4           5           6
    1   0.0031261  -0.0133212   0.1674836   0.0149202  -0.0861705  -0.0861705
    2   0.0000000   0.0000000  -0.0000000   0.0000000   0.1336971  -0.1336972
    3   0.0164624  -0.0157997  -0.1774959   0.2465530   0.0552761   0.0552761
            7           8           9
    1  -0.1576564   0.0788943   0.0788943
    2  -0.0000000   0.1349092  -0.1349092
    3  -0.0634280  -0.0584220  -0.0584220
 Gradient of SCF Energy
            1           2           3           4           5           6
    1   0.0001230  -0.0015179   0.0103762  -0.0017786  -0.0036693  -0.0036692
    2  -0.0000000   0.0000000  -0.0000000   0.0000000   0.0030223  -0.0030223
    3  -0.0031315   0.0054318  -0.0113150   0.0114527   0.0012147   0.0012147
            7           8           9
    1  -0.0035869   0.0018614   0.0018614
    2  -0.0000000   0.0029922  -0.0029922
    3  -0.0015859  -0.0016407  -0.0016407
 Max gradient component =       1.145E-02
 RMS gradient           =       4.326E-03
 Gradient time:  CPU 44.69 s  wall 44.84 s
 Geometry Optimization Parameters
   NAtoms,    NIC,     NZ,  NCons,   NDum,   NFix, NCnnct, MaxDiis
        9      51      11       0       0       0       0       0


** GEOMETRY OPTIMIZATION IN DELOCALIZED INTERNAL COORDINATES **
   Searching for a Minimum

   Optimization Cycle:   1

                       Coordinates (Angstroms)
     ATOM              X           Y           Z
    1  C           0.000000    0.000000    0.000000
    2  C           0.000000    0.000000    1.519569
    3  O           1.358118    0.000000    1.953398
    4  H           1.359527    0.000000    2.922402
    5  H          -0.535015    0.887666    1.895507
    6  H          -0.535015   -0.887666    1.895507
    7  H          -1.025266    0.000000   -0.386510
    8  H           0.516975    0.886887   -0.381004
    9  H           0.516975   -0.886887   -0.381004
   Point Group: c1    Number of degrees of freedom:  21


   Energy is   -154.997639665


 Attempting to Generate Delocalized Internal Coordinates

 18 Hessian modes will be used to form the next step
  Hessian Eigenvalues:
     0.012242    0.058430    0.060934    0.110138    0.136062    0.160000
     0.160000    0.160000    0.160000    0.219450    0.304081    0.334065
     0.334065    0.341621    0.342426    0.342426    0.416098    0.535809

 Minimum Search - Taking Simple RFO Step
 Searching for Lamda that Minimizes Along All modes
 Value Taken    Lamda =  -0.00102619
 Step Taken.  Stepsize is  0.060319

                             Maximum     Tolerance    Cnvgd?
         Gradient           0.009418      0.000300      NO
         Displacement       0.036018      0.001200      NO
         Energy change     *********      0.000001      NO


 New Cartesian Coordinates Obtained by Inverse Iteration

 Displacement from previous Coordinates is:  0.064322
 Writing REM_CC_EA            9
 ----------------------------------------------------
       Standard Nuclear Orientation (Angstroms)
    I     Atom         X            Y            Z
 ----------------------------------------------------
    1      C       0.000237     0.000000     0.005987
    2      C      -0.002171     0.000000     1.511682
    3      O       1.342773     0.000000     1.952301
    4      H       1.356615     0.000000     2.909919
    5      H      -0.525859     0.885021     1.888441
    6      H      -0.525859    -0.885020     1.888441
    7      H      -1.019297     0.000000    -0.378581
    8      H       0.514930     0.882931    -0.370162
    9      H       0.514930    -0.882931    -0.370162
 ----------------------------------------------------
 Nuclear Repulsion Energy =    82.2144205166 hartrees
 There are       13 alpha and       13 beta electrons
 Applying Cartesian multipole field
    Component          Value
    ---------          -----
     (2,0,0)        1.00000E-11
     (0,2,0)        2.00000E-11
     (0,0,2)       -3.00000E-11
 Nucleus-field energy     =    -0.0000000056 hartrees
 Requested basis set is G3large
 There are 66 shells and 186 basis functions
 A cutoff of  1.0D-11 yielded   2154 shell pairs
 There are  17137 function pairs ( 20675 Cartesian)
Evaluating contribution to one-electron hamiltonian from nuclear
 Smallest overlap matrix eigenvalue = 9.75E-05
 Multipole matrices computed through 2nd order
 Guess MOs from SCF MO coefficient file
Reading MOs from coefficient file
Reading MOs from coefficient file
 Long-range K will be added via erf
 Coulomb attenuation parameter = 0.41 bohr**(-1)
 A restricted Kohn-Sham SCF calculation will be
 performed using Pulay DIIS extrapolation
 Exchange:  wPBE + LR-HF      Correlation:  PBE
 Using SG-1 standard quadrature grid
 SCF converges when DIIS error is below 1.0E-08
 Requested basis set is G3large
 There are 66 shells and 186 basis functions
 A cutoff of  1.0D-11 yielded   2154 shell pairs
 There are  17137 function pairs ( 20675 Cartesian)
 ---------------------------------------
  Cycle       Energy         DIIS Error
 ---------------------------------------
    1    -155.0119622100      4.31E-04
    2    -154.9981299488      8.29E-05
    3    -154.9981496201      4.79E-05
    4    -154.9981568376      1.21E-05
    5    -154.9981573313      4.13E-06
    6    -154.9981573465      1.62E-06
    7    -154.9981573136      2.60E-07
    8    -154.9981573147      5.10E-08
    9    -154.9981573162      1.74E-08
   10    -154.9981573160      5.48E-09 Convergence criterion met
 ---------------------------------------
 One-Electron    Energy =  -372.7107090603
 Total Coulomb   Energy =   157.1235180399
 Alpha Exchange  Energy =    -2.6493359345
 Beta  Exchange  Energy =    -2.6493359345
 DFT   Exchange  Energy =   -15.4816477699
 DFT Correlation Energy =    -0.8450671677
 Nuclear Repu.   Energy =    82.2144205111
 Nuclear Attr.   Energy =  -527.0922247708
 Kinetic         Energy =   154.3815157105
 SCF time:  CPU 102.34 s  wall 103.44 s
 Final Alpha MO Eigenvalues
            1           2           3           4           5           6
    1 -18.9617331 -10.1515199 -10.0918206  -1.1630491  -0.9037446  -0.7544679
            7           8           9          10          11          12
    1  -0.6541798  -0.6033711  -0.5322706  -0.5061213  -0.4892118  -0.4547716
           13          14          15          16          17          18
    1  -0.3960764   0.0376617   0.0538686   0.0628844   0.0648420   0.0875179
 Analysis of SCF Wavefunction
 
 --------------------------------------------------------------
                    Orbital Energies (a.u.)
 --------------------------------------------------------------
 
 Alpha MOs
 -- Occupied --
-18.962 -10.152 -10.092  -1.163  -0.904  -0.754  -0.654  -0.603
 -0.532  -0.506  -0.489  -0.455  -0.396
 -- Virtual --
  0.038   0.054   0.063   0.065   0.088   0.097   0.133   0.143
  0.149   0.154   0.178   0.181   0.196   0.197   0.257   0.262
  0.268   0.295   0.301   0.311   0.336   0.349   0.359   0.376
  0.416   0.457   0.523   0.524   0.550   0.561   0.618   0.646
  0.656   0.660   0.674   0.692   0.705   0.715   0.739   0.772
  0.828   0.858   0.920   0.927   0.973   0.994   1.037   1.131
  1.140   1.160   1.179   1.226   1.241   1.275   1.275   1.303
  1.314   1.369   1.407   1.415   1.430   1.474   1.518   1.524
  1.559   1.560   1.582   1.596   1.646   1.666   1.712   1.835
  1.962   2.116   2.166   2.344   2.442   2.509   2.585   2.650
  2.707   2.714   2.860   2.938   2.942   2.955   3.043   3.138
  3.164   3.185   3.187   3.308   3.313   3.328   3.387   3.426
  3.484   3.521   3.633   3.636   3.644   3.657   3.695   3.766
  3.826   3.861   3.938   3.991   4.044   4.104   4.136   4.157
  4.162   4.275   4.318   4.343   4.367   4.368   4.426   4.465
  4.564   4.568   4.619   4.695   4.696   4.766   5.107   5.263
  5.284   5.301   5.444   5.574   5.588   5.651   5.693   5.781
  5.781   5.964   6.045   6.534   7.068   7.259   7.291   7.326
  7.637   7.749  24.210  24.390  27.692  28.055  28.095  28.160
 28.177  28.383  40.936  40.961  40.999  41.094  41.158  41.206
 41.215  41.244  41.258  41.303  43.831  43.843  43.894  43.953
 43.996  45.679  45.999  46.417  49.880
 --------------------------------------------------------------
 
          Ground-State Mulliken Net Atomic Charges

     Atom                 Charge (a.u.)
  ----------------------------------------
      1 C                    -0.217826
      2 C                    -0.137628
      3 O                    -0.298258
      4 H                     0.245700
      5 H                     0.075800
      6 H                     0.075800
      7 H                     0.066590
      8 H                     0.094911
      9 H                     0.094911
  ----------------------------------------
  Sum of atomic charges =     0.000000

 -----------------------------------------------------------------
                    Cartesian Multipole Moments
 -----------------------------------------------------------------
    Charge (ESU x 10^10)
                 0.0000
    Dipole Moment (Debye)
         X      -1.3795      Y       0.0000      Z       0.9413
       Tot       1.6700
    Quadrupole Moments (Debye-Ang)
        XX     -22.7455     XY       0.0000     YY     -20.1269
        XZ      -0.6119     YZ       0.0000     ZZ     -13.9888
    Octapole Moments (Debye-Ang^2)
       XXX     -27.7467    XXY       0.0000    XYY      -8.0570
       YYY       0.0000    XXZ     -24.3582    XYZ       0.0000
       YYZ     -22.6360    XZZ      -1.5783    YZZ       0.0000
       ZZZ     -39.6183
    Hexadecapole Moments (Debye-Ang^3)
      XXXX    -105.9167   XXXY       0.0000   XXYY     -23.4444
      XYYY       0.0000   YYYY     -33.9969   XXXZ     -48.9592
      XXYZ       0.0000   XYYZ     -18.2108   YYYZ       0.0000
      XXZZ     -56.1153   XYZZ       0.0000   YYZZ     -52.7022
      XZZZ     -12.7321   YZZZ       0.0000   ZZZZ    -183.1506
 -----------------------------------------------------------------
 Calculating analytic gradient of the SCF energy
 Gradient of AOints
            1           2           3           4           5           6
    1   1.2255026   3.0235619  -7.9007133  -0.7790759   2.0736842   2.0736840
    2   0.0000013  -0.0000010  -0.0000027   0.0000021  -2.8088528   2.8088527
    3   4.3045419  -1.1661464  -1.2011115  -4.0886758  -1.3198887  -1.3198888
            7           8           9
    1   3.0564947  -1.3865689  -1.3865693
    2   0.0000003  -2.6470590   2.6470590
    3   1.6218363   1.5846667   1.5846663
 Gradient of XC Energy
            1           2           3           4           5           6
    1   0.0034074  -0.0169691   0.1621977   0.0197294  -0.0841822  -0.0841822
    2  -0.0000000   0.0000000   0.0000002  -0.0000002   0.1351858  -0.1351858
    3   0.0142034  -0.0196474  -0.1783553   0.2507201   0.0561956   0.0561956
            7           8           9
    1  -0.1583108   0.0791549   0.0791549
    2  -0.0000000   0.1355950  -0.1355950
    3  -0.0636320  -0.0578400  -0.0578400
 Gradient of SCF Energy
            1           2           3           4           5           6
    1   0.0001992  -0.0011176   0.0007432  -0.0005253   0.0003642   0.0003642
    2   0.0000000  -0.0000000   0.0000000  -0.0000000  -0.0001446   0.0001446
    3  -0.0003046  -0.0000191  -0.0009086   0.0005686  -0.0000059  -0.0000059
            7           8           9
    1   0.0000394  -0.0000337  -0.0000337
    2  -0.0000000  -0.0000806   0.0000806
    3   0.0001761   0.0002497   0.0002497
 Max gradient component =       1.118E-03
 RMS gradient           =       3.771E-04
 Gradient time:  CPU 45.13 s  wall 45.27 s
 Geometry Optimization Parameters
   NAtoms,    NIC,     NZ,  NCons,   NDum,   NFix, NCnnct, MaxDiis
        9      51      11       0       0       0       0       0

 Cartesian Hessian Update
 Hessian Updated using BFGS Update


** GEOMETRY OPTIMIZATION IN DELOCALIZED INTERNAL COORDINATES **
   Searching for a Minimum

   Optimization Cycle:   2

                       Coordinates (Angstroms)
     ATOM              X           Y           Z
    1  C           0.000237    0.000000    0.005987
    2  C          -0.002171    0.000000    1.511682
    3  O           1.342773    0.000000    1.952301
    4  H           1.356615    0.000000    2.909919
    5  H          -0.525859    0.885021    1.888441
    6  H          -0.525859   -0.885020    1.888441
    7  H          -1.019297    0.000000   -0.378581
    8  H           0.514930    0.882931   -0.370162
    9  H           0.514930   -0.882931   -0.370162
   Point Group: c1    Number of degrees of freedom:  21


   Energy is   -154.998157316

 Hessian Updated using BFGS Update

 13 Hessian modes will be used to form the next step
  Hessian Eigenvalues:
     0.058424    0.061979    0.110714    0.136062    0.153409    0.160695
     0.218711    0.308895    0.337460    0.341790    0.349783    0.414873
     0.524355

 Minimum Search - Taking Simple RFO Step
 Searching for Lamda that Minimizes Along All modes
 Value Taken    Lamda =  -0.00001145
 Step Taken.  Stepsize is  0.009146

                             Maximum     Tolerance    Cnvgd?
         Gradient           0.000843      0.000300      NO
         Displacement       0.004372      0.001200      NO
         Energy change     -0.000518      0.000001      NO


 New Cartesian Coordinates Obtained by Inverse Iteration

 Displacement from previous Coordinates is:  0.011505
 Writing REM_CC_EA            9
 ----------------------------------------------------
       Standard Nuclear Orientation (Angstroms)
    I     Atom         X            Y            Z
 ----------------------------------------------------
    1      C       0.000327     0.000000     0.006098
    2      C      -0.001922     0.000000     1.512283
    3      O       1.342204     0.000000     1.954597
    4      H       1.360749     0.000000     2.911456
    5      H      -0.527612     0.884820     1.887834
    6      H      -0.527612    -0.884820     1.887834
    7      H      -1.019076     0.000000    -0.379056
    8      H       0.514621     0.882744    -0.371590
    9      H       0.514621    -0.882744    -0.371590
 ----------------------------------------------------
 Nuclear Repulsion Energy =    82.1925910543 hartrees
 There are       13 alpha and       13 beta electrons
 Applying Cartesian multipole field
    Component          Value
    ---------          -----
     (2,0,0)        1.00000E-11
     (0,2,0)        2.00000E-11
     (0,0,2)       -3.00000E-11
 Nucleus-field energy     =    -0.0000000056 hartrees
 Requested basis set is G3large
 There are 66 shells and 186 basis functions
 A cutoff of  1.0D-11 yielded   2154 shell pairs
 There are  17137 function pairs ( 20675 Cartesian)
Evaluating contribution to one-electron hamiltonian from nuclear
 Smallest overlap matrix eigenvalue = 9.77E-05
 Multipole matrices computed through 2nd order
 Guess MOs from SCF MO coefficient file
Reading MOs from coefficient file
Reading MOs from coefficient file
 Long-range K will be added via erf
 Coulomb attenuation parameter = 0.41 bohr**(-1)
 A restricted Kohn-Sham SCF calculation will be
 performed using Pulay DIIS extrapolation
 Exchange:  wPBE + LR-HF      Correlation:  PBE
 Using SG-1 standard quadrature grid
 SCF converges when DIIS error is below 1.0E-08
 Requested basis set is G3large
 There are 66 shells and 186 basis functions
 A cutoff of  1.0D-11 yielded   2154 shell pairs
 There are  17137 function pairs ( 20675 Cartesian)
 ---------------------------------------
  Cycle       Energy         DIIS Error
 ---------------------------------------
    1    -154.9981381182      4.29E-05
    2    -154.9981629155      7.60E-06
    3    -154.9981632618      3.37E-06
    4    -154.9981632400      1.57E-06
    5    -154.9981632834      4.46E-07
    6    -154.9981633293      1.40E-07
    7    -154.9981633236      3.25E-08
    8    -154.9981633262      5.34E-09 Convergence criterion met
 ---------------------------------------
 One-Electron    Energy =  -372.6673793831
 Total Coulomb   Energy =   157.1015552579
 Alpha Exchange  Energy =    -2.6493063711
 Beta  Exchange  Energy =    -2.6493063711
 DFT   Exchange  Energy =   -15.4812942128
 DFT Correlation Energy =    -0.8450232948
 Nuclear Repu.   Energy =    82.1925910487
 Nuclear Attr.   Energy =  -527.0464160354
 Kinetic         Energy =   154.3790366523
 SCF time:  CPU 81.15 s  wall 82.04 s
 Final Alpha MO Eigenvalues
            1           2           3           4           5           6
    1 -18.9616812 -10.1517009 -10.0919037  -1.1630262  -0.9037240  -0.7546656
            7           8           9          10          11          12
    1  -0.6544166  -0.6030933  -0.5322671  -0.5062060  -0.4891170  -0.4544463
           13          14          15          16          17          18
    1  -0.3960512   0.0376842   0.0538646   0.0629240   0.0648151   0.0874973
 Analysis of SCF Wavefunction
 
 --------------------------------------------------------------
                    Orbital Energies (a.u.)
 --------------------------------------------------------------
 
 Alpha MOs
 -- Occupied --
-18.962 -10.152 -10.092  -1.163  -0.904  -0.755  -0.654  -0.603
 -0.532  -0.506  -0.489  -0.454  -0.396
 -- Virtual --
  0.038   0.054   0.063   0.065   0.087   0.097   0.133   0.143
  0.149   0.154   0.178   0.181   0.196   0.197   0.257   0.262
  0.268   0.295   0.301   0.311   0.337   0.349   0.359   0.376
  0.416   0.457   0.523   0.524   0.550   0.561   0.618   0.646
  0.656   0.660   0.674   0.692   0.704   0.715   0.739   0.772
  0.828   0.858   0.920   0.927   0.973   0.994   1.037   1.131
  1.140   1.159   1.180   1.226   1.242   1.275   1.276   1.302
  1.314   1.369   1.406   1.414   1.430   1.474   1.518   1.524
  1.560   1.560   1.582   1.597   1.646   1.666   1.711   1.835
  1.963   2.117   2.166   2.344   2.441   2.509   2.584   2.649
  2.707   2.713   2.859   2.938   2.942   2.955   3.043   3.137
  3.164   3.185   3.188   3.309   3.313   3.328   3.386   3.426
  3.485   3.521   3.632   3.636   3.644   3.657   3.696   3.766
  3.825   3.861   3.936   3.991   4.043   4.102   4.135   4.157
  4.162   4.275   4.318   4.344   4.367   4.368   4.428   4.465
  4.562   4.568   4.617   4.694   4.696   4.766   5.107   5.261
  5.284   5.299   5.443   5.571   5.586   5.650   5.696   5.781
  5.782   5.963   6.049   6.534   7.068   7.258   7.294   7.326
  7.640   7.748  24.209  24.388  27.692  28.055  28.094  28.159
 28.177  28.383  40.936  40.960  40.999  41.094  41.158  41.206
 41.215  41.244  41.258  41.303  43.832  43.842  43.895  43.954
 43.996  45.680  45.997  46.420  49.881
 --------------------------------------------------------------
 
          Ground-State Mulliken Net Atomic Charges

     Atom                 Charge (a.u.)
  ----------------------------------------
      1 C                    -0.217573
      2 C                    -0.137432
      3 O                    -0.298426
      4 H                     0.245800
      5 H                     0.075698
      6 H                     0.075698
      7 H                     0.066660
      8 H                     0.094787
      9 H                     0.094787
  ----------------------------------------
  Sum of atomic charges =     0.000000

 -----------------------------------------------------------------
                    Cartesian Multipole Moments
 -----------------------------------------------------------------
    Charge (ESU x 10^10)
                 0.0000
    Dipole Moment (Debye)
         X      -1.3728      Y       0.0000      Z       0.9402
       Tot       1.6639
    Quadrupole Moments (Debye-Ang)
        XX     -22.7236     XY       0.0000     YY     -20.1325
        XZ      -0.5875     YZ       0.0000     ZZ     -13.9813
    Octapole Moments (Debye-Ang^2)
       XXX     -27.6906    XXY       0.0000    XYY      -8.0559
       YYY       0.0000    XXZ     -24.2988    XYZ       0.0000
       YYZ     -22.6572    XZZ      -1.4922    YZZ       0.0000
       ZZZ     -39.6220
    Hexadecapole Moments (Debye-Ang^3)
      XXXX    -105.8260   XXXY       0.0000   XXYY     -23.4414
      XYYY       0.0000   YYYY     -34.0110   XXXZ     -48.8473
      XXYZ       0.0000   XYYZ     -18.2248   YYYZ       0.0000
      XXZZ     -55.9414   XYZZ       0.0000   YYZZ     -52.7764
      XZZZ     -12.4754   YZZZ       0.0000   ZZZZ    -183.3070
 -----------------------------------------------------------------
 Calculating analytic gradient of the SCF energy
 Gradient of AOints
            1           2           3           4           5           6
    1   1.2241423   3.0094428  -7.8742512  -0.8095050   2.0821869   2.0821866
    2   0.0000010  -0.0000008  -0.0000025   0.0000021  -2.8048212   2.8048211
    3   4.2913419  -1.1612002  -1.2196826  -4.0893623  -1.3140956  -1.3140962
            7           8           9
    1   3.0537350  -1.3839685  -1.3839689
    2   0.0000003  -2.6432286   2.6432286
    3   1.6262384   1.5904285   1.5904281
 Gradient of XC Energy
            1           2           3           4           5           6
    1   0.0033890  -0.0163859   0.1608638   0.0213561  -0.0845417  -0.0845417
    2  -0.0000000   0.0000000   0.0000002  -0.0000002   0.1350244  -0.1350244
    3   0.0148617  -0.0196861  -0.1779620   0.2509707   0.0559471   0.0559471
            7           8           9
    1  -0.1582197   0.0790401   0.0790401
    2  -0.0000000   0.1354719  -0.1354719
    3  -0.0638173  -0.0581306  -0.0581306
 Gradient of SCF Energy
            1           2           3           4           5           6
    1  -0.0001054  -0.0005359   0.0003970   0.0000506   0.0000865   0.0000865
    2   0.0000000  -0.0000000   0.0000000  -0.0000000  -0.0000282   0.0000282
    3  -0.0001585  -0.0002159   0.0003101  -0.0000471  -0.0000124  -0.0000125
            7           8           9
    1   0.0000544  -0.0000169  -0.0000169
    2   0.0000000  -0.0000356   0.0000356
    3  -0.0000076   0.0000720   0.0000720
 Max gradient component =       5.359E-04
 RMS gradient           =       1.566E-04
 Gradient time:  CPU 45.09 s  wall 45.23 s
 Geometry Optimization Parameters
   NAtoms,    NIC,     NZ,  NCons,   NDum,   NFix, NCnnct, MaxDiis
        9      51      11       0       0       0       0       0

 Cartesian Hessian Update
 Hessian Updated using BFGS Update


** GEOMETRY OPTIMIZATION IN DELOCALIZED INTERNAL COORDINATES **
   Searching for a Minimum

   Optimization Cycle:   3

                       Coordinates (Angstroms)
     ATOM              X           Y           Z
    1  C           0.000327    0.000000    0.006098
    2  C          -0.001922    0.000000    1.512283
    3  O           1.342204    0.000000    1.954597
    4  H           1.360749    0.000000    2.911456
    5  H          -0.527612    0.884820    1.887834
    6  H          -0.527612   -0.884820    1.887834
    7  H          -1.019076    0.000000   -0.379056
    8  H           0.514621    0.882744   -0.371590
    9  H           0.514621   -0.882744   -0.371590
   Point Group: c1    Number of degrees of freedom:  21


   Energy is   -154.998163326

 Hessian Updated using BFGS Update

 13 Hessian modes will be used to form the next step
  Hessian Eigenvalues:
     0.056814    0.059527    0.108108    0.145085    0.160041    0.169892
     0.224996    0.308844    0.330396    0.341650    0.341817    0.440808
     0.540094

 Minimum Search - Taking Simple RFO Step
 Searching for Lamda that Minimizes Along All modes
 Value Taken    Lamda =  -0.00000108
 Step Taken.  Stepsize is  0.002470

                             Maximum     Tolerance    Cnvgd?
         Gradient           0.000240      0.000300     YES
         Displacement       0.001291      0.001200      NO
         Energy change     -0.000006      0.000001      NO


 New Cartesian Coordinates Obtained by Inverse Iteration

 Displacement from previous Coordinates is:  0.002318
 Writing REM_CC_EA            9
 ----------------------------------------------------
       Standard Nuclear Orientation (Angstroms)
    I     Atom         X            Y            Z
 ----------------------------------------------------
    1      C       0.000694     0.000000     0.006372
    2      C      -0.001675     0.000000     1.512561
    3      O       1.341901     0.000000     1.954351
    4      H       1.360645     0.000000     2.911187
    5      H      -0.527909     0.884771     1.887889
    6      H      -0.527909    -0.884770     1.887889
    7      H      -1.018927     0.000000    -0.378433
    8      H       0.514739     0.882748    -0.371975
    9      H       0.514740    -0.882748    -0.371975
 ----------------------------------------------------
 Nuclear Repulsion Energy =    82.2040737797 hartrees
 There are       13 alpha and       13 beta electrons
 Applying Cartesian multipole field
    Component          Value
    ---------          -----
     (2,0,0)        1.00000E-11
     (0,2,0)        2.00000E-11
     (0,0,2)       -3.00000E-11
 Nucleus-field energy     =    -0.0000000056 hartrees
 Requested basis set is G3large
 There are 66 shells and 186 basis functions
 A cutoff of  1.0D-11 yielded   2154 shell pairs
 There are  17137 function pairs ( 20675 Cartesian)
Evaluating contribution to one-electron hamiltonian from nuclear
 Smallest overlap matrix eigenvalue = 9.77E-05
 Multipole matrices computed through 2nd order
 Guess MOs from SCF MO coefficient file
Reading MOs from coefficient file
Reading MOs from coefficient file
 Long-range K will be added via erf
 Coulomb attenuation parameter = 0.41 bohr**(-1)
 A restricted Kohn-Sham SCF calculation will be
 performed using Pulay DIIS extrapolation
 Exchange:  wPBE + LR-HF      Correlation:  PBE
 Using SG-1 standard quadrature grid
 SCF converges when DIIS error is below 1.0E-08
 Requested basis set is G3large
 There are 66 shells and 186 basis functions
 A cutoff of  1.0D-11 yielded   2154 shell pairs
 There are  17137 function pairs ( 20675 Cartesian)
 ---------------------------------------
  Cycle       Energy         DIIS Error
 ---------------------------------------
    1    -154.9981771035      1.98E-05
    2    -154.9981637038      3.45E-06
    3    -154.9981637933      2.55E-06
    4    -154.9981637741      5.70E-07
    5    -154.9981637684      1.49E-07
    6    -154.9981637753      5.16E-08
    7    -154.9981637735      8.74E-09 Convergence criterion met
 ---------------------------------------
 One-Electron    Energy =  -372.6897310344
 Total Coulomb   Energy =   157.1125576310
 Alpha Exchange  Energy =    -2.6493086729
 Beta  Exchange  Energy =    -2.6493086729
 DFT   Exchange  Energy =   -15.4814014303
 DFT Correlation Energy =    -0.8450453680
 Nuclear Repu.   Energy =    82.2040737741
 Nuclear Attr.   Energy =  -527.0693193973
 Kinetic         Energy =   154.3795883628
 SCF time:  CPU 71.02 s  wall 71.59 s
 Final Alpha MO Eigenvalues
            1           2           3           4           5           6
    1 -18.9617210 -10.1516822 -10.0918899  -1.1632615  -0.9036703  -0.7546424
            7           8           9          10          11          12
    1  -0.6545803  -0.6030741  -0.5323741  -0.5061064  -0.4890879  -0.4544502
           13          14          15          16          17          18
    1  -0.3960274   0.0376815   0.0538640   0.0629310   0.0648128   0.0875095
 Analysis of SCF Wavefunction
 
 --------------------------------------------------------------
                    Orbital Energies (a.u.)
 --------------------------------------------------------------
 
 Alpha MOs
 -- Occupied --
-18.962 -10.152 -10.092  -1.163  -0.904  -0.755  -0.655  -0.603
 -0.532  -0.506  -0.489  -0.454  -0.396
 -- Virtual --
  0.038   0.054   0.063   0.065   0.088   0.097   0.133   0.143
  0.149   0.154   0.178   0.181   0.196   0.197   0.257   0.262
  0.268   0.295   0.301   0.312   0.337   0.349   0.359   0.376
  0.416   0.457   0.523   0.524   0.550   0.561   0.618   0.646
  0.656   0.660   0.674   0.692   0.705   0.715   0.739   0.772
  0.828   0.858   0.920   0.927   0.973   0.994   1.037   1.131
  1.140   1.159   1.180   1.226   1.241   1.275   1.276   1.302
  1.314   1.369   1.406   1.414   1.430   1.474   1.518   1.523
  1.560   1.560   1.582   1.597   1.646   1.666   1.711   1.835
  1.963   2.117   2.167   2.344   2.441   2.509   2.585   2.649
  2.707   2.713   2.860   2.938   2.942   2.955   3.043   3.137
  3.164   3.185   3.188   3.309   3.313   3.328   3.386   3.426
  3.486   3.520   3.632   3.636   3.644   3.657   3.697   3.766
  3.825   3.861   3.936   3.991   4.043   4.102   4.135   4.157
  4.163   4.275   4.318   4.344   4.367   4.369   4.428   4.464
  4.562   4.568   4.617   4.693   4.695   4.765   5.108   5.260
  5.284   5.299   5.443   5.571   5.586   5.650   5.697   5.781
  5.782   5.964   6.050   6.536   7.068   7.258   7.294   7.326
  7.640   7.748  24.209  24.388  27.692  28.056  28.094  28.159
 28.177  28.383  40.936  40.961  40.999  41.094  41.158  41.207
 41.215  41.244  41.258  41.303  43.832  43.842  43.895  43.954
 43.996  45.680  45.997  46.421  49.881
 --------------------------------------------------------------
 
          Ground-State Mulliken Net Atomic Charges

     Atom                 Charge (a.u.)
  ----------------------------------------
      1 C                    -0.217620
      2 C                    -0.137477
      3 O                    -0.298029
      4 H                     0.245808
      5 H                     0.075602
      6 H                     0.075602
      7 H                     0.066612
      8 H                     0.094751
      9 H                     0.094751
  ----------------------------------------
  Sum of atomic charges =     0.000000

 -----------------------------------------------------------------
                    Cartesian Multipole Moments
 -----------------------------------------------------------------
    Charge (ESU x 10^10)
                 0.0000
    Dipole Moment (Debye)
         X      -1.3702      Y       0.0000      Z       0.9417
       Tot       1.6626
    Quadrupole Moments (Debye-Ang)
        XX     -22.7202     XY       0.0000     YY     -20.1339
        XZ      -0.5836     YZ       0.0000     ZZ     -13.9776
    Octapole Moments (Debye-Ang^2)
       XXX     -27.6833    XXY       0.0000    XYY      -8.0547
       YYY       0.0000    XXZ     -24.2904    XYZ       0.0000
       YYZ     -22.6595    XZZ      -1.4825    YZZ       0.0000
       ZZZ     -39.6198
    Hexadecapole Moments (Debye-Ang^3)
      XXXX    -105.7820   XXXY       0.0000   XXYY     -23.4351
      XYYY       0.0000   YYYY     -34.0173   XXXZ     -48.8127
      XXYZ       0.0000   XYYZ     -18.2141   YYYZ       0.0000
      XXZZ     -55.9206   XYZZ       0.0000   YYZZ     -52.7750
      XZZZ     -12.4425   YZZZ       0.0000   ZZZZ    -183.2968
 -----------------------------------------------------------------
 Calculating analytic gradient of the SCF energy
 Gradient of AOints
            1           2           3           4           5           6
    1   1.2187424   3.0111719  -7.8764609  -0.8105755   2.0845035   2.0845033
    2   0.0000011  -0.0000007  -0.0000026   0.0000021  -2.8037279   2.8037278
    3   4.2879119  -1.1651075  -1.2178819  -4.0899329  -1.3131900  -1.3131905
            7           8           9
    1   3.0538848  -1.3828845  -1.3828849
    2   0.0000003  -2.6424469   2.6424468
    3   1.6245548   1.5934182   1.5934179
 Gradient of XC Energy
            1           2           3           4           5           6
    1   0.0036161  -0.0164824   0.1609736   0.0214147  -0.0846303  -0.0846303
    2  -0.0000000   0.0000000   0.0000002  -0.0000002   0.1349687  -0.1349687
    3   0.0150532  -0.0195583  -0.1780220   0.2509882   0.0558948   0.0558948
            7           8           9
    1  -0.1582225   0.0789806   0.0789806
    2  -0.0000000   0.1354342  -0.1354342
    3  -0.0637306  -0.0582600  -0.0582600
 Gradient of SCF Energy
            1           2           3           4           5           6
    1   0.0000245  -0.0001574   0.0000709   0.0000071   0.0000141   0.0000141
    2   0.0000000  -0.0000000   0.0000000  -0.0000000   0.0000060  -0.0000060
    3   0.0000155  -0.0000075   0.0000815  -0.0000743   0.0000043   0.0000043
            7           8           9
    1   0.0000120   0.0000073   0.0000073
    2   0.0000000   0.0000074  -0.0000074
    3   0.0000066  -0.0000152  -0.0000152
 Max gradient component =       1.574E-04
 RMS gradient           =       4.050E-05
 Gradient time:  CPU 45.10 s  wall 45.30 s
 Geometry Optimization Parameters
   NAtoms,    NIC,     NZ,  NCons,   NDum,   NFix, NCnnct, MaxDiis
        9      51      11       0       0       0       0       0

 Cartesian Hessian Update
 Hessian Updated using BFGS Update


** GEOMETRY OPTIMIZATION IN DELOCALIZED INTERNAL COORDINATES **
   Searching for a Minimum

   Optimization Cycle:   4

                       Coordinates (Angstroms)
     ATOM              X           Y           Z
    1  C           0.000694    0.000000    0.006372
    2  C          -0.001675    0.000000    1.512561
    3  O           1.341901    0.000000    1.954351
    4  H           1.360645    0.000000    2.911187
    5  H          -0.527909    0.884771    1.887889
    6  H          -0.527909   -0.884770    1.887889
    7  H          -1.018927    0.000000   -0.378433
    8  H           0.514739    0.882748   -0.371975
    9  H           0.514740   -0.882748   -0.371975
   Point Group: c1    Number of degrees of freedom:  21


   Energy is   -154.998163774

 Hessian Updated using BFGS Update

 16 Hessian modes will be used to form the next step
  Hessian Eigenvalues:
     0.052293    0.059278    0.107566    0.136062    0.151568    0.159858
     0.170171    0.240550    0.307986    0.328619    0.334065    0.340488
     0.342426    0.348226    0.409041    0.528367

 Minimum Search - Taking Simple RFO Step
 Searching for Lamda that Minimizes Along All modes
 Value Taken    Lamda =   0.00000000
 Step Taken.  Stepsize is  0.000837

                             Maximum     Tolerance    Cnvgd?
         Gradient           0.000063      0.000300     YES
         Displacement       0.000563      0.001200     YES
         Energy change      0.000000      0.000001     YES


                       Distance Matrix (Angstroms)
             C (  1)   C (  2)   O (  3)   H (  4)   H (  5)   H (  6)
   C (  2)  1.506191
   O (  3)  2.365050  1.414347
   H (  4)  3.207401  1.952453  0.957019
   H (  5)  2.145309  1.095725  2.069644  2.323057
   H (  6)  2.145309  1.095725  2.069644  2.323057  1.769541
   H (  7)  1.089818  2.147245  3.318945  4.060045  2.481962  2.481962
   H (  8)  1.089327  2.144155  2.622067  3.503420  2.488796  3.052577
   H (  9)  1.089327  2.144155  2.622067  3.503420  3.052577  2.488796
             H (  7)   H (  8)
   H (  8)  1.769582
   H (  9)  1.769582  1.765496
 


 ******************************
 **  OPTIMIZATION CONVERGED  **
 ******************************
 Analysis of SCF Wavefunction
 
 --------------------------------------------------------------
                    Orbital Energies (a.u.)
 --------------------------------------------------------------
 
 Alpha MOs
 -- Occupied --
-18.962 -10.152 -10.092  -1.163  -0.904  -0.755  -0.655  -0.603
 -0.532  -0.506  -0.489  -0.454  -0.396
 -- Virtual --
  0.038   0.054   0.063   0.065   0.088   0.097   0.133   0.143
  0.149   0.154   0.178   0.181   0.196   0.197   0.257   0.262
  0.268   0.295   0.301   0.312   0.337   0.349   0.359   0.376
  0.416   0.457   0.523   0.524   0.550   0.561   0.618   0.646
  0.656   0.660   0.674   0.692   0.705   0.715   0.739   0.772
  0.828   0.858   0.920   0.927   0.973   0.994   1.037   1.131
  1.140   1.159   1.180   1.226   1.241   1.275   1.276   1.302
  1.314   1.369   1.406   1.414   1.430   1.474   1.518   1.523
  1.560   1.560   1.582   1.597   1.646   1.666   1.711   1.835
  1.963   2.117   2.167   2.344   2.441   2.509   2.585   2.649
  2.707   2.713   2.860   2.938   2.942   2.955   3.043   3.137
  3.164   3.185   3.188   3.309   3.313   3.328   3.386   3.426
  3.486   3.520   3.632   3.636   3.644   3.657   3.697   3.766
  3.825   3.861   3.936   3.991   4.043   4.102   4.135   4.157
  4.163   4.275   4.318   4.344   4.367   4.369   4.428   4.464
  4.562   4.568   4.617   4.693   4.695   4.765   5.108   5.260
  5.284   5.299   5.443   5.571   5.586   5.650   5.697   5.781
  5.782   5.964   6.050   6.536   7.068   7.258   7.294   7.326
  7.640   7.748  24.209  24.388  27.692  28.056  28.094  28.159
 28.177  28.383  40.936  40.961  40.999  41.094  41.158  41.207
 41.215  41.244  41.258  41.303  43.832  43.842  43.895  43.954
 43.996  45.680  45.997  46.421  49.881
 --------------------------------------------------------------
 
          Ground-State Mulliken Net Atomic Charges

     Atom                 Charge (a.u.)
  ----------------------------------------
      1 C                    -0.217620
      2 C                    -0.137477
      3 O                    -0.298029
      4 H                     0.245808
      5 H                     0.075602
      6 H                     0.075602
      7 H                     0.066612
      8 H                     0.094751
      9 H                     0.094751
  ----------------------------------------
  Sum of atomic charges =     0.000000

 -----------------------------------------------------------------
                    Cartesian Multipole Moments
 -----------------------------------------------------------------
    Charge (ESU x 10^10)
                 0.0000
    Dipole Moment (Debye)
         X      -1.3702      Y       0.0000      Z       0.9417
       Tot       1.6626
    Quadrupole Moments (Debye-Ang)
        XX     -22.7202     XY       0.0000     YY     -20.1339
        XZ      -0.5836     YZ       0.0000     ZZ     -13.9776
    Octapole Moments (Debye-Ang^2)
       XXX     -27.6833    XXY       0.0000    XYY      -8.0547
       YYY       0.0000    XXZ     -24.2904    XYZ       0.0000
       YYZ     -22.6595    XZZ      -1.4825    YZZ       0.0000
       ZZZ     -39.6198
    Hexadecapole Moments (Debye-Ang^3)
      XXXX    -105.7820   XXXY       0.0000   XXYY     -23.4351
      XYYY       0.0000   YYYY     -34.0173   XXXZ     -48.8127
      XXYZ       0.0000   XYYZ     -18.2141   YYYZ       0.0000
      XXZZ     -55.9206   XYZZ       0.0000   YYZZ     -52.7750
      XZZZ     -12.4425   YZZZ       0.0000   ZZZZ    -183.2968
 -----------------------------------------------------------------
 Total job time:  563.03s(wall), 558.55s(cpu) 
 Wed Jul  3 20:27:27 2013

        *************************************************************
        *                                                           *
        *  Thank you very much for using Q-Chem.  Have a nice day.  *
        *                                                           *
        *************************************************************


0 sent ACK to 0 
now end server 0 ... 
 
**********************************************************************
Job 2 of 2 
**********************************************************************
 
Process 0 of 1 is on cl088.stfx.acenet.ca - thread support 1
initial socket setup ...start
initial socket setup ...done 
now start server 0 ... 

cmd = /usr/bin/ssh clhead /usr/local/qchem/bin/get_hostid 1639645656 > /scratch/tmp/6060378.1.short.q/qchem31798/lic.dat
                  Welcome to Q-Chem
     A Quantum Leap Into The Future Of Chemistry

 Y. Shao, L. Fusti-Molnar, Y. Jung, J. Kussmann, C. Ochsenfeld,
 S. T. Brown, A. T. B. Gilbert, L. V. Slipchenko,S. V. Levchenko,
 D. P. O'Neill, R. A. DiStasio Jr., R. C. Lochan, T. Wang,
 G. J. O. Beran, N. A. Besley, J. M. Herbert, C. Y. Lin,
 T. Van Voorhis, S. H. Chien, A. Sodt, R. P. Steele, 
 V. A. Rassolov, P. E. Maslen, P. P. Korambath, R. D. Adamson,
 B. Austin, J. Baker, E. F. C. Byrd, H. Dachsel, R. J. Doerksen,
 A. Dreuw, B. D. Dunietz, A. D. Dutoi, T. R. Furlani,
 S. R. Gwaltney, A. Heyden, S. Hirata, C.-P. Hsu, G. Kedziora,
 R. Z. Khaliullin, P. Klunzinger, A. M. Lee, M. S. Lee, W. Liang,
 I. Lotan, N. Nair, B. Peters, E. I. Proynov, P. A. Pieniazek, 
 Y. M. Rhee, J. Ritchie, E. Rosta, C. D. Sherrill, 
 A. C. Simmonett, J. E. Subotnik, H. L. Woodcock III,
 W. Zhang, A. T. Bell, A. K. Chakraborty, D. M. Chipman,
 F. J. Keil, A. Warshel, W. J. Hehre, H. F. Schaefer III,
 J. Kong, A. I. Krylov, P. M. W. Gill, M. Head-Gordon,
 Q-Chem, Version 3.1, Q-Chem, Inc., Pittsburgh, PA (2007).

 Additional authors for Version 3.1: 
 Z. Gan, Y. Zhao, N. E. Schultz, D. Truhlar, E. Epifanovsky and M. Oana.

 Additional authors for Version 3.2: 
 R. Baer, B. R. Brooks, D. Casanova, J.-D. Chai, C.-L. Cheng, 
 C. Cramer, D. Crittenden, A. Ghysels, G. Hawkins, E. G. Hohenstein, 
 C. Kelley, W. Kurlancheek, D. Liotard, E. Livshits, P. Manohar, 
 A. Marenich, D. Neuhauser, R. Olson, M. A. Rohrdanz, K. S. Thanthiriwatte, 
 A. J. W. Thom, V. Vanovschi, C. F. Williams, Q. Wu and Z.-Q. You. 


 Intel X86 Linux Version

 Q-chem begins on Wed Jul  3 20:27:29 2013  

 Parallel job on  1  processors
Processing $rem in /usr/local/qchem/config/preferences.

theFileMan(): MAXOPENFILES=974 MAX_SUB_FILE_NUM=16
Maximum size of a physical file is 2.0 GB, maximum size of a tmp-file is 32.0 GB


--------------------------------------------------------------
User input:
--------------------------------------------------------------

$molecule 
READ 
$end 

$xc_functional
C PBE   1.00
X wPBE  1.00
$end


$rem
SYMMETRY_DECOMPOSITION	0
LRC_DFT                 true
exchange 		general
BASIS                   g3large
omega			410 
JOBTYPE                 freq
IDERIV 1
SCF_GUESS READ
mem_static              760
max_scf_cycles          200
scf_final_print         1
sym_ignore              true
$end

--------------------------------------------------------------
 Writing REM_CC_EA            9
 ----------------------------------------------------
       Standard Nuclear Orientation (Angstroms)
    I     Atom         X            Y            Z
 ----------------------------------------------------
    1      C       0.000694     0.000000     0.006372
    2      C      -0.001675     0.000000     1.512561
    3      O       1.341901     0.000000     1.954351
    4      H       1.360645     0.000000     2.911187
    5      H      -0.527909     0.884771     1.887889
    6      H      -0.527909    -0.884770     1.887889
    7      H      -1.018927     0.000000    -0.378433
    8      H       0.514739     0.882748    -0.371975
    9      H       0.514740    -0.882748    -0.371975
 ----------------------------------------------------
 Nuclear Repulsion Energy =    82.2040737797 hartrees
 There are       13 alpha and       13 beta electrons
 Requested basis set is G3large
 There are 66 shells and 186 basis functions

Total QAlloc Memory Limit   2000 MB
Mega-Array Size       759 MB
MEM_STATIC part       760 MB

                       Distance Matrix (Angstroms)
             C (  1)   C (  2)   O (  3)   H (  4)   H (  5)   H (  6)
   C (  2)  1.506191
   O (  3)  2.365050  1.414347
   H (  4)  3.207401  1.952453  0.957019
   H (  5)  2.145309  1.095725  2.069644  2.323057
   H (  6)  2.145309  1.095725  2.069644  2.323057  1.769541
   H (  7)  1.089818  2.147245  3.318945  4.060045  2.481962  2.481962
   H (  8)  1.089327  2.144155  2.622067  3.503420  2.488796  3.052577
   H (  9)  1.089327  2.144155  2.622067  3.503420  3.052577  2.488796
             H (  7)   H (  8)
   H (  8)  1.769582
   H (  9)  1.769582  1.765496
 
 A cutoff of  1.0D-11 yielded   2154 shell pairs
 There are  17137 function pairs ( 20675 Cartesian)
Evaluating contribution to one-electron hamiltonian from nuclear
 Smallest overlap matrix eigenvalue = 9.77E-05
 Multipole matrices computed through 2nd order
 Guess MOs from SCF MO coefficient file
Reading MOs from coefficient file
Reading MOs from coefficient file
 Long-range K will be added via erf
 Coulomb attenuation parameter = 0.41 bohr**(-1)
 A restricted Kohn-Sham SCF calculation will be
 performed using Pulay DIIS extrapolation
 Exchange:  wPBE + LR-HF      Correlation:  PBE
 Using SG-1 standard quadrature grid
 SCF converges when DIIS error is below 1.0E-08
 ---------------------------------------
  Cycle       Energy         DIIS Error
 ---------------------------------------
    1    -154.9981637982      1.60E-09
    2    -154.9981637981      8.40E-10 Convergence criterion met
 ---------------------------------------
 One-Electron    Energy =  -372.6897291562
 Total Coulomb   Energy =   157.1125556133
 Alpha Exchange  Energy =    -2.6493086684
 Beta  Exchange  Energy =    -2.6493086684
 DFT   Exchange  Energy =   -15.4814013365
 DFT Correlation Energy =    -0.8450453615
 Nuclear Repu.   Energy =    82.2040737797
 Nuclear Attr.   Energy =  -527.0693164089
 Kinetic         Energy =   154.3795872527
 SCF time:  CPU 22.68 s  wall 22.90 s
 Final Alpha MO Eigenvalues
            1           2           3           4           5           6
    1 -18.9617209 -10.1516821 -10.0918900  -1.1632615  -0.9036703  -0.7546424
            7           8           9          10          11          12
    1  -0.6545803  -0.6030741  -0.5323741  -0.5061064  -0.4890879  -0.4544502
           13          14          15          16          17          18
    1  -0.3960274   0.0376815   0.0538640   0.0629310   0.0648128   0.0875095
 Analysis of SCF Wavefunction
 
 --------------------------------------------------------------
                    Orbital Energies (a.u.)
 --------------------------------------------------------------
 
 Alpha MOs
 -- Occupied --
-18.962 -10.152 -10.092  -1.163  -0.904  -0.755  -0.655  -0.603
 -0.532  -0.506  -0.489  -0.454  -0.396
 -- Virtual --
  0.038   0.054   0.063   0.065   0.088   0.097   0.133   0.143
  0.149   0.154   0.178   0.181   0.196   0.197   0.257   0.262
  0.268   0.295   0.301   0.312   0.337   0.349   0.359   0.376
  0.416   0.457   0.523   0.524   0.550   0.561   0.618   0.646
  0.656   0.660   0.674   0.692   0.705   0.715   0.739   0.772
  0.828   0.858   0.920   0.927   0.973   0.994   1.037   1.131
  1.140   1.159   1.180   1.226   1.241   1.275   1.276   1.302
  1.314   1.369   1.406   1.414   1.430   1.474   1.518   1.523
  1.560   1.560   1.582   1.597   1.646   1.666   1.711   1.835
  1.963   2.117   2.167   2.344   2.441   2.509   2.585   2.649
  2.707   2.713   2.860   2.938   2.942   2.955   3.043   3.137
  3.164   3.185   3.188   3.309   3.313   3.328   3.386   3.426
  3.486   3.520   3.632   3.636   3.644   3.657   3.697   3.766
  3.825   3.861   3.936   3.991   4.043   4.102   4.135   4.157
  4.163   4.275   4.318   4.344   4.367   4.369   4.428   4.464
  4.562   4.568   4.617   4.693   4.695   4.765   5.108   5.260
  5.284   5.299   5.443   5.571   5.586   5.650   5.697   5.781
  5.782   5.964   6.050   6.536   7.068   7.258   7.294   7.326
  7.640   7.748  24.209  24.388  27.692  28.056  28.094  28.159
 28.177  28.383  40.936  40.961  40.999  41.094  41.158  41.207
 41.215  41.244  41.258  41.303  43.832  43.842  43.895  43.954
 43.996  45.680  45.997  46.421  49.881
 --------------------------------------------------------------
 
          Ground-State Mulliken Net Atomic Charges

     Atom                 Charge (a.u.)
  ----------------------------------------
      1 C                    -0.217620
      2 C                    -0.137477
      3 O                    -0.298029
      4 H                     0.245808
      5 H                     0.075602
      6 H                     0.075602
      7 H                     0.066612
      8 H                     0.094751
      9 H                     0.094751
  ----------------------------------------
  Sum of atomic charges =     0.000000

 -----------------------------------------------------------------
                    Cartesian Multipole Moments
 -----------------------------------------------------------------
    Charge (ESU x 10^10)
                 0.0000
    Dipole Moment (Debye)
         X      -1.3702      Y       0.0000      Z       0.9417
       Tot       1.6626
    Quadrupole Moments (Debye-Ang)
        XX     -22.7202     XY       0.0000     YY     -20.1339
        XZ      -0.5836     YZ       0.0000     ZZ     -13.9776
    Octapole Moments (Debye-Ang^2)
       XXX     -27.6833    XXY       0.0000    XYY      -8.0547
       YYY       0.0000    XXZ     -24.2904    XYZ       0.0000
       YYZ     -22.6595    XZZ      -1.4825    YZZ       0.0000
       ZZZ     -39.6198
    Hexadecapole Moments (Debye-Ang^3)
      XXXX    -105.7820   XXXY       0.0000   XXYY     -23.4351
      XYYY       0.0000   YYYY     -34.0173   XXXZ     -48.8127
      XXYZ       0.0000   XYYZ     -18.2141   YYYZ       0.0000
      XXZZ     -55.9206   XYZZ       0.0000   YYZZ     -52.7750
      XZZZ     -12.4425   YZZZ       0.0000   ZZZZ    -183.2968
 -----------------------------------------------------------------
 Calculating analytic gradient of the SCF energy
 Gradient of AOints
            1           2           3           4           5           6
    1   1.2187419   3.0111731  -7.8764617  -0.8105750   2.0845033   2.0845030
    2   0.0000011  -0.0000007  -0.0000026   0.0000021  -2.8037278   2.8037276
    3   4.2879113  -1.1651079  -1.2178813  -4.0899335  -1.3131899  -1.3131903
            7           8           9
    1   3.0538850  -1.3828846  -1.3828850
    2   0.0000003  -2.6424471   2.6424470
    3   1.6245551   1.5934185   1.5934181
 Gradient of XC Energy
            1           2           3           4           5           6
    1   0.0036161  -0.0164824   0.1609736   0.0214147  -0.0846303  -0.0846303
    2  -0.0000000   0.0000000   0.0000002  -0.0000002   0.1349687  -0.1349687
    3   0.0150532  -0.0195583  -0.1780221   0.2509882   0.0558948   0.0558948
            7           8           9
    1  -0.1582225   0.0789806   0.0789806
    2  -0.0000000   0.1354342  -0.1354342
    3  -0.0637306  -0.0582600  -0.0582600
 Gradient of SCF Energy
            1           2           3           4           5           6
    1   0.0000245  -0.0001574   0.0000709   0.0000071   0.0000141   0.0000141
    2   0.0000000  -0.0000000   0.0000000  -0.0000000   0.0000060  -0.0000060
    3   0.0000155  -0.0000075   0.0000815  -0.0000743   0.0000043   0.0000043
            7           8           9
    1   0.0000120   0.0000073   0.0000073
    2   0.0000000   0.0000074  -0.0000074
    3   0.0000066  -0.0000152  -0.0000152
 Max gradient component =       1.574E-04
 RMS gradient           =       4.050E-05
 Gradient time:  CPU 44.94 s  wall 45.05 s
 ######################################################
 ######################################################
 # Starting finite difference calculation for IDERIV  #
 Finite diff step size: 1.89e-03 a.u.
 Writing REM_CC_EA            9
 ----------------------------------------------------
       Standard Nuclear Orientation (Angstroms)
    I     Atom         X            Y            Z
 ----------------------------------------------------
    1      C       0.001694     0.000000     0.006372
    2      C      -0.001675     0.000000     1.512561
    3      O       1.341901     0.000000     1.954351
    4      H       1.360645     0.000000     2.911187
    5      H      -0.527909     0.884771     1.887889
    6      H      -0.527909    -0.884770     1.887889
    7      H      -1.018927     0.000000    -0.378433
    8      H       0.514739     0.882748    -0.371975
    9      H       0.514740    -0.882748    -0.371975
 ----------------------------------------------------
 Nuclear Repulsion Energy =    82.2064489535 hartrees
 There are       13 alpha and       13 beta electrons

                       Distance Matrix (Angstroms)
             C (  1)   C (  2)   O (  3)   H (  4)   H (  5)   H (  6)
   C (  2)  1.506193
   O (  3)  2.364483  1.414347
   H (  4)  3.206977  1.952453  0.957019
   H (  5)  2.145555  1.095725  2.069644  2.323057
   H (  6)  2.145555  1.095725  2.069644  2.323057  1.769541
   H (  7)  1.090754  2.147245  3.318945  4.060045  2.481962  2.481962
   H (  8)  1.088855  2.144155  2.622067  3.503420  2.488796  3.052577
   H (  9)  1.088855  2.144155  2.622067  3.503420  3.052577  2.488796
             H (  7)   H (  8)
   H (  8)  1.769582
   H (  9)  1.769582  1.765496
 
 Requested basis set is G3large
 There are 66 shells and 186 basis functions
 A cutoff of  1.0D-11 yielded   2154 shell pairs
 There are  17137 function pairs ( 20675 Cartesian)
Evaluating contribution to one-electron hamiltonian from nuclear
 Smallest overlap matrix eigenvalue = 9.76E-05
 Multipole matrices computed through 2nd order
 Guess MOs from SCF MO coefficient file
Reading MOs from coefficient file
Reading MOs from coefficient file
 Long-range K will be added via erf
 Coulomb attenuation parameter = 0.41 bohr**(-1)
 A restricted Kohn-Sham SCF calculation will be
 performed using Pulay DIIS extrapolation
 Exchange:  wPBE + LR-HF      Correlation:  PBE
 Using SG-1 standard quadrature grid
 SCF converges when DIIS error is below 1.0E-08
 ---------------------------------------
  Cycle       Energy         DIIS Error
 ---------------------------------------
    1    -154.9981455016      2.33E-05
    2    -154.9981626383      3.02E-06
    3    -154.9981626846      1.10E-06
    4    -154.9981626900      3.32E-07
    5    -154.9981626868      1.98E-07
    6    -154.9981626881      3.47E-08
    7    -154.9981626891      9.43E-09 Convergence criterion met
 ---------------------------------------
 One-Electron    Energy =  -372.6946153815
 Total Coulomb   Energy =   157.1150887578
 Alpha Exchange  Energy =    -2.6493094642
 Beta  Exchange  Energy =    -2.6493094642
 DFT   Exchange  Energy =   -15.4814192642
 DFT Correlation Energy =    -0.8450468263
 Nuclear Repu.   Energy =    82.2064489535
 Nuclear Attr.   Energy =  -527.0743654962
 Kinetic         Energy =   154.3797501147
 SCF time:  CPU 70.36 s  wall 70.97 s
 Final Alpha MO Eigenvalues
            1           2           3           4           5           6
    1 -18.9616994 -10.1516806 -10.0918846  -1.1632551  -0.9036538  -0.7546483
            7           8           9          10          11          12
    1  -0.6545613  -0.6031214  -0.5323894  -0.5058247  -0.4892500  -0.4544893
           13          14          15          16          17          18
    1  -0.3960334   0.0376779   0.0538666   0.0629265   0.0648185   0.0875252
 Analysis of SCF Wavefunction
 
 --------------------------------------------------------------
                    Orbital Energies (a.u.)
 --------------------------------------------------------------
 
 Alpha MOs
 -- Occupied --
-18.962 -10.152 -10.092  -1.163  -0.904  -0.755  -0.655  -0.603
 -0.532  -0.506  -0.489  -0.454  -0.396
 -- Virtual --
  0.038   0.054   0.063   0.065   0.088   0.097   0.133   0.143
  0.149   0.154   0.178   0.181   0.196   0.197   0.257   0.262
  0.268   0.295   0.301   0.312   0.337   0.349   0.359   0.376
  0.416   0.457   0.523   0.524   0.550   0.561   0.618   0.646
  0.656   0.660   0.674   0.692   0.704   0.715   0.739   0.772
  0.828   0.858   0.920   0.928   0.973   0.994   1.037   1.131
  1.140   1.159   1.180   1.226   1.241   1.275   1.276   1.302
  1.314   1.369   1.406   1.414   1.430   1.473   1.518   1.523
  1.560   1.560   1.582   1.597   1.647   1.666   1.711   1.835
  1.963   2.117   2.166   2.344   2.442   2.509   2.585   2.649
  2.706   2.713   2.860   2.938   2.943   2.955   3.043   3.137
  3.164   3.185   3.187   3.309   3.314   3.328   3.386   3.426
  3.485   3.521   3.632   3.637   3.644   3.656   3.696   3.766
  3.825   3.862   3.936   3.990   4.044   4.101   4.136   4.156
  4.162   4.275   4.318   4.344   4.366   4.369   4.428   4.464
  4.563   4.568   4.619   4.693   4.695   4.765   5.108   5.260
  5.284   5.299   5.443   5.571   5.586   5.650   5.697   5.781
  5.782   5.964   6.050   6.536   7.068   7.258   7.294   7.326
  7.640   7.748  24.209  24.388  27.692  28.056  28.094  28.159
 28.177  28.383  40.936  40.961  40.999  41.094  41.158  41.207
 41.215  41.244  41.258  41.303  43.832  43.842  43.895  43.954
 43.996  45.680  45.997  46.421  49.881
 --------------------------------------------------------------
 
          Ground-State Mulliken Net Atomic Charges

     Atom                 Charge (a.u.)
  ----------------------------------------
      1 C                    -0.217610
      2 C                    -0.137543
      3 O                    -0.297975
      4 H                     0.245762
      5 H                     0.075628
      6 H                     0.075628
      7 H                     0.066384
      8 H                     0.094864
      9 H                     0.094864
  ----------------------------------------
  Sum of atomic charges =     0.000000

 -----------------------------------------------------------------
                    Cartesian Multipole Moments
 -----------------------------------------------------------------
    Charge (ESU x 10^10)
                 0.0000
    Dipole Moment (Debye)
         X      -1.3699      Y       0.0000      Z       0.9418
       Tot       1.6624
    Quadrupole Moments (Debye-Ang)
        XX     -22.7223     XY       0.0000     YY     -20.1320
        XZ      -0.5857     YZ       0.0000     ZZ     -13.9775
    Octapole Moments (Debye-Ang^2)
       XXX     -27.6956    XXY       0.0000    XYY      -8.0589
       YYY       0.0000    XXZ     -24.2908    XYZ       0.0000
       YYZ     -22.6599    XZZ      -1.4907    YZZ       0.0000
       ZZZ     -39.6202
    Hexadecapole Moments (Debye-Ang^3)
      XXXX    -105.7906   XXXY       0.0000   XXYY     -23.4360
      XYYY       0.0000   YYYY     -34.0078   XXXZ     -48.8177
      XXYZ       0.0000   XYYZ     -18.2154   YYYZ       0.0000
      XXZZ     -55.9261   XYZZ       0.0000   YYZZ     -52.7722
      XZZZ     -12.4595   YZZZ       0.0000   ZZZZ    -183.3010
 -----------------------------------------------------------------
 Calculating analytic gradient of the SCF energy
 Gradient of AOints
            1           2           3           4           5           6
    1   1.2059954   3.0177253  -7.8756807  -0.8103251   2.0845706   2.0845703
    2   0.0000011  -0.0000007  -0.0000026   0.0000021  -2.8038969   2.8038967
    3   4.2888902  -1.1658290  -1.2172063  -4.0897755  -1.3138426  -1.3138430
            7           8           9
    1   3.0525989  -1.3797272  -1.3797276
    2   0.0000003  -2.6450152   2.6450152
    3   1.6222172   1.5946947   1.5946943
 Gradient of XC Energy
            1           2           3           4           5           6
    1   0.0039696  -0.0166651   0.1609537   0.0214044  -0.0846297  -0.0846296
    2  -0.0000000   0.0000000   0.0000002  -0.0000002   0.1349742  -0.1349741
    3   0.0150545  -0.0195328  -0.1780787   0.2509794   0.0559145   0.0559146
            7           8           9
    1  -0.1581127   0.0788546   0.0788547
    2  -0.0000000   0.1355703  -0.1355703
    3  -0.0636066  -0.0583225  -0.0583224
 Gradient of SCF Energy
            1           2           3           4           5           6
    1   0.0011658  -0.0003064   0.0000533  -0.0000067   0.0000177   0.0000177
    2   0.0000000  -0.0000000   0.0000000  -0.0000000   0.0000036  -0.0000036
    3   0.0000194   0.0000375  -0.0000140  -0.0000826   0.0000331   0.0000331
            7           8           9
    1  -0.0005395  -0.0002009  -0.0002009
    2   0.0000000  -0.0001952   0.0001952
    3  -0.0001603   0.0000669   0.0000669
 Max gradient component =       1.166E-03
 RMS gradient           =       2.688E-04
 Gradient time:  CPU 45.04 s  wall 45.20 s
 Writing REM_CC_EA            9
 ----------------------------------------------------
       Standard Nuclear Orientation (Angstroms)
    I     Atom         X            Y            Z
 ----------------------------------------------------
    1      C      -0.000306     0.000000     0.006372
    2      C      -0.001675     0.000000     1.512561
    3      O       1.341901     0.000000     1.954351
    4      H       1.360645     0.000000     2.911187
    5      H      -0.527909     0.884771     1.887889
    6      H      -0.527909    -0.884770     1.887889
    7      H      -1.018927     0.000000    -0.378433
    8      H       0.514739     0.882748    -0.371975
    9      H       0.514740    -0.882748    -0.371975
 ----------------------------------------------------
 Nuclear Repulsion Energy =    82.2016947506 hartrees
 There are       13 alpha and       13 beta electrons

                       Distance Matrix (Angstroms)
             C (  1)   C (  2)   O (  3)   H (  4)   H (  5)   H (  6)
   C (  2)  1.506190
   O (  3)  2.365617  1.414347
   H (  4)  3.207825  1.952453  0.957019
   H (  5)  2.145063  1.095725  2.069644  2.323057
   H (  6)  2.145063  1.095725  2.069644  2.323057  1.769541
   H (  7)  1.088882  2.147245  3.318945  4.060045  2.481962  2.481962
   H (  8)  1.089799  2.144155  2.622067  3.503420  2.488796  3.052577
   H (  9)  1.089799  2.144155  2.622067  3.503420  3.052577  2.488796
             H (  7)   H (  8)
   H (  8)  1.769582
   H (  9)  1.769582  1.765496
 
 Requested basis set is G3large
 There are 66 shells and 186 basis functions
 A cutoff of  1.0D-11 yielded   2154 shell pairs
 There are  17137 function pairs ( 20675 Cartesian)
Evaluating contribution to one-electron hamiltonian from nuclear
 Smallest overlap matrix eigenvalue = 9.77E-05
 Multipole matrices computed through 2nd order
 Guess MOs from SCF MO coefficient file
Reading MOs from coefficient file
Reading MOs from coefficient file
 Long-range K will be added via erf
 Coulomb attenuation parameter = 0.41 bohr**(-1)
 A restricted Kohn-Sham SCF calculation will be
 performed using Pulay DIIS extrapolation
 Exchange:  wPBE + LR-HF      Correlation:  PBE
 Using SG-1 standard quadrature grid
 SCF converges when DIIS error is below 1.0E-08
 ---------------------------------------
  Cycle       Energy         DIIS Error
 ---------------------------------------
    1    -154.9981977991      4.66E-05
    2    -154.9981625140      6.04E-06
    3    -154.9981627164      2.20E-06
    4    -154.9981627245      6.67E-07
    5    -154.9981627359      3.96E-07
    6    -154.9981627330      6.96E-08
    7    -154.9981627314      1.89E-08
    8    -154.9981627326      4.08E-09 Convergence criterion met
 ---------------------------------------
 One-Electron    Energy =  -372.6848256731
 Total Coulomb   Energy =   157.1100106883
 Alpha Exchange  Energy =    -2.6493077623
 Beta  Exchange  Energy =    -2.6493077623
 DFT   Exchange  Energy =   -15.4813831290
 DFT Correlation Energy =    -0.8450438446
 Nuclear Repu.   Energy =    82.2016947506
 Nuclear Attr.   Energy =  -527.0642503384
 Kinetic         Energy =   154.3794246653
 SCF time:  CPU 79.74 s  wall 80.42 s
 Final Alpha MO Eigenvalues
            1           2           3           4           5           6
    1 -18.9617425 -10.1516840 -10.0918955  -1.1632681  -0.9036869  -0.7546369
            7           8           9          10          11          12
    1  -0.6545994  -0.6030270  -0.5323588  -0.5063880  -0.4889257  -0.4544109
           13          14          15          16          17          18
    1  -0.3960214   0.0376851   0.0538614   0.0629356   0.0648071   0.0874939
 Analysis of SCF Wavefunction
 
 --------------------------------------------------------------
                    Orbital Energies (a.u.)
 --------------------------------------------------------------
 
 Alpha MOs
 -- Occupied --
-18.962 -10.152 -10.092  -1.163  -0.904  -0.755  -0.655  -0.603
 -0.532  -0.506  -0.489  -0.454  -0.396
 -- Virtual --
  0.038   0.054   0.063   0.065   0.087   0.097   0.133   0.143
  0.149   0.154   0.178   0.181   0.196   0.197   0.257   0.262
  0.268   0.295   0.301   0.312   0.337   0.349   0.359   0.376
  0.416   0.457   0.523   0.524   0.550   0.561   0.618   0.646
  0.656   0.660   0.674   0.692   0.705   0.715   0.739   0.772
  0.828   0.858   0.920   0.927   0.973   0.994   1.037   1.131
  1.140   1.159   1.180   1.226   1.241   1.275   1.276   1.302
  1.314   1.369   1.406   1.414   1.430   1.474   1.518   1.523
  1.560   1.560   1.582   1.597   1.646   1.666   1.711   1.835
  1.963   2.117   2.167   2.344   2.441   2.509   2.584   2.649
  2.707   2.713   2.860   2.938   2.942   2.955   3.043   3.137
  3.164   3.185   3.188   3.309   3.313   3.328   3.386   3.426
  3.486   3.520   3.633   3.636   3.644   3.657   3.697   3.766
  3.825   3.861   3.936   3.992   4.042   4.102   4.135   4.157
  4.163   4.275   4.318   4.344   4.367   4.368   4.428   4.465
  4.562   4.568   4.616   4.693   4.696   4.766   5.108   5.261
  5.284   5.299   5.443   5.572   5.586   5.650   5.697   5.780
  5.782   5.964   6.050   6.536   7.068   7.258   7.294   7.326
  7.640   7.748  24.209  24.388  27.692  28.056  28.094  28.160
 28.176  28.383  40.936  40.961  40.999  41.094  41.158  41.207
 41.215  41.244  41.258  41.302  43.832  43.842  43.895  43.954
 43.996  45.680  45.997  46.421  49.881
 --------------------------------------------------------------
 
          Ground-State Mulliken Net Atomic Charges

     Atom                 Charge (a.u.)
  ----------------------------------------
      1 C                    -0.217632
      2 C                    -0.137410
      3 O                    -0.298084
      4 H                     0.245855
      5 H                     0.075577
      6 H                     0.075577
      7 H                     0.066841
      8 H                     0.094638
      9 H                     0.094638
  ----------------------------------------
  Sum of atomic charges =     0.000000

 -----------------------------------------------------------------
                    Cartesian Multipole Moments
 -----------------------------------------------------------------
    Charge (ESU x 10^10)
                 0.0000
    Dipole Moment (Debye)
         X      -1.3704      Y       0.0000      Z       0.9416
       Tot       1.6627
    Quadrupole Moments (Debye-Ang)
        XX     -22.7180     XY       0.0000     YY     -20.1358
        XZ      -0.5815     YZ       0.0000     ZZ     -13.9778
    Octapole Moments (Debye-Ang^2)
       XXX     -27.6709    XXY       0.0000    XYY      -8.0505
       YYY       0.0000    XXZ     -24.2900    XYZ       0.0000
       YYZ     -22.6592    XZZ      -1.4744    YZZ       0.0000
       ZZZ     -39.6195
    Hexadecapole Moments (Debye-Ang^3)
      XXXX    -105.7735   XXXY       0.0000   XXYY     -23.4342
      XYYY       0.0000   YYYY     -34.0268   XXXZ     -48.8077
      XXYZ       0.0000   XYYZ     -18.2128   YYYZ       0.0000
      XXZZ     -55.9151   XYZZ       0.0000   YYZZ     -52.7778
      XZZZ     -12.4255   YZZZ       0.0000   ZZZZ    -183.2926
 -----------------------------------------------------------------
 Calculating analytic gradient of the SCF energy
 Gradient of AOints
            1           2           3           4           5           6
    1   1.2314796   3.0046214  -7.8772428  -0.8108240   2.0844357   2.0844354
    2   0.0000011  -0.0000007  -0.0000026   0.0000021  -2.8035585   2.8035584
    3   4.2869267  -1.1643791  -1.2185572  -4.0900912  -1.3125362  -1.3125367
            7           8           9
    1   3.0551682  -1.3860365  -1.3860369
    2   0.0000003  -2.6398764   2.6398764
    3   1.6268948   1.5921397   1.5921393
 Gradient of XC Energy
            1           2           3           4           5           6
    1   0.0032630  -0.0162998   0.1609935   0.0214250  -0.0846310  -0.0846310
    2  -0.0000000   0.0000000   0.0000002  -0.0000002   0.1349633  -0.1349633
    3   0.0150522  -0.0195841  -0.1779654   0.2509970   0.0558750   0.0558750
            7           8           9
    1  -0.1583321   0.0791062   0.0791063
    2  -0.0000000   0.1352979  -0.1352979
    3  -0.0638548  -0.0581975  -0.0581975
 Gradient of SCF Energy
            1           2           3           4           5           6
    1  -0.0011201  -0.0000083   0.0000884   0.0000209   0.0000106   0.0000106
    2   0.0000000  -0.0000000   0.0000000  -0.0000000   0.0000084  -0.0000084
    3   0.0000095  -0.0000524   0.0001770  -0.0000660  -0.0000245  -0.0000245
            7           8           9
    1   0.0005665   0.0002157   0.0002157
    2   0.0000000   0.0002095  -0.0002095
    3   0.0001750  -0.0000971  -0.0000971
 Max gradient component =       1.120E-03
 RMS gradient           =       2.621E-04
 Gradient time:  CPU 45.09 s  wall 45.29 s
 Writing REM_CC_EA            9
 ----------------------------------------------------
       Standard Nuclear Orientation (Angstroms)
    I     Atom         X            Y            Z
 ----------------------------------------------------
    1      C       0.000694     0.001000     0.006372
    2      C      -0.001675     0.000000     1.512561
    3      O       1.341901     0.000000     1.954351
    4      H       1.360645     0.000000     2.911187
[...]
Order 1, Length 27
   0.0237802   0.0000029  -0.2363014  -0.0416200   0.0000020   0.5545215  -0.0204237  -0.0000011  -0.1063384  -0.0446960   0.0000004  -0.0117134   0.0405713  -0.0743571  -0.0845517   0.0405725   0.0743529  -0.0845499   0.0029463  -0.0000029  -0.0037476  -0.0005654  -0.0009123  -0.0136597  -0.0005648   0.0009112  -0.0136618
Order 1, Length 27
  -0.0092751   0.0000000  -0.0089923  -0.2495458   0.0000011  -0.0204237   0.3677803  -0.0000005   0.0787788  -0.0421671  -0.0000013  -0.0253315  -0.0351741   0.0029737  -0.0118586  -0.0351757  -0.0029739  -0.0118589   0.0011807  -0.0000015  -0.0003675   0.0011845   0.0007744   0.0000250   0.0011850  -0.0007740   0.0000249
Order 1, Length 27
  -0.0000011   0.0040223  -0.0000006   0.0000002  -0.0650573  -0.0000011  -0.0000005   0.0458423   0.0000006   0.0000003  -0.0015701   0.0000001   0.0277459   0.0079703   0.0103122  -0.0277462   0.0079692  -0.0103109   0.0000005   0.0007190   0.0000009   0.0006422   0.0000545  -0.0013205  -0.0006417   0.0000532   0.0013203
Order 1, Length 27
  -0.0505454  -0.0000011  -0.0180721  -0.0622813  -0.0000017  -0.1063384   0.0787788   0.0000006   0.6653043   0.0275041  -0.0000001  -0.5500099   0.0032033   0.0042419   0.0057282   0.0032032  -0.0042379   0.0057254  -0.0003007  -0.0000032  -0.0094518   0.0002183   0.0002489   0.0035563   0.0002193  -0.0002478   0.0035566
Order 1, Length 27
  -0.0073118  -0.0000010  -0.0010846  -0.0044405   0.0000001  -0.0446960  -0.0421671   0.0000003   0.0275041   0.0524675  -0.0000003   0.0195440   0.0005861   0.0010191   0.0000590   0.0005861  -0.0010190   0.0000585   0.0003065   0.0000002  -0.0019581  -0.0000122   0.0001928   0.0002855  -0.0000122  -0.0001925   0.0002873
Order 1, Length 27
   0.0000006  -0.0003031   0.0000005  -0.0000001  -0.0013322   0.0000004  -0.0000013  -0.0015701  -0.0000001  -0.0000003   0.0019156   0.0000000  -0.0001731   0.0001776   0.0007722   0.0001734   0.0001791  -0.0007761   0.0000012   0.0006907  -0.0000001  -0.0000020   0.0001180  -0.0001057   0.0000007   0.0001203   0.0001061
Order 1, Length 27
  -0.0043946  -0.0000006  -0.0002397   0.0069925   0.0000015  -0.0117134  -0.0253315   0.0000001  -0.5500099   0.0195440   0.0000000   0.5596487   0.0015161   0.0003094   0.0010623   0.0015143  -0.0003128   0.0010643   0.0001327   0.0000037  -0.0007335   0.0000145  -0.0001896   0.0004593   0.0000122   0.0001897   0.0004614
Order 1, Length 27
   0.0018919  -0.0005569   0.0003883  -0.0975749   0.0883829   0.0405713  -0.0351741   0.0277459   0.0032033   0.0005861  -0.0001731   0.0015161   0.1208355  -0.1050763  -0.0410516   0.0086152  -0.0108792  -0.0044829   0.0003041  -0.0000459   0.0004422  -0.0003172   0.0003863   0.0000112   0.0008320   0.0002160  -0.0005997
Order 1, Length 27
  -0.0012612   0.0014519   0.0010848   0.0921105  -0.2296384  -0.0743571   0.0029737   0.0079703   0.0042419   0.0010191   0.0001776   0.0003094  -0.1050763   0.2393509   0.0795718   0.0108797  -0.0216968  -0.0101674  -0.0001881  -0.0000617  -0.0008043  -0.0000336   0.0009955  -0.0002979  -0.0004233   0.0014499   0.0004205
Order 1, Length 27
   0.0152405  -0.0294529  -0.0127193   0.0424765  -0.0724668  -0.0845517  -0.0118586   0.0103122   0.0057282   0.0000590   0.0007722   0.0010623  -0.0410516   0.0795718   0.0891244  -0.0044818   0.0101697   0.0055063  -0.0005845   0.0001239   0.0009843   0.0002405   0.0005034   0.0017169  -0.0000414   0.0004670  -0.0068520
Order 1, Length 27
   0.0018912   0.0005573   0.0003895  -0.0975748  -0.0883846   0.0405725  -0.0351757  -0.0277462   0.0032032   0.0005861   0.0001734   0.0015143   0.0086152   0.0108797  -0.0044818   0.1208388   0.1050774  -0.0410515   0.0003044   0.0000448   0.0004418   0.0008310  -0.0002166  -0.0006021  -0.0003156  -0.0003877   0.0000114
Order 1, Length 27
   0.0012607   0.0014488  -0.0010853  -0.0921087  -0.2296362   0.0743529  -0.0029739   0.0079692  -0.0042379  -0.0010190   0.0001791  -0.0003128  -0.0108792  -0.0216968   0.0101697   0.1050774   0.2393478  -0.0795689   0.0001871  -0.0000644   0.0008049   0.0004239   0.0014515  -0.0004241   0.0000331   0.0009965   0.0002969
Order 1, Length 27
   0.0152420   0.0294555  -0.0127190   0.0424773   0.0724646  -0.0845499  -0.0118589  -0.0103109   0.0057254   0.0000585  -0.0007761   0.0010643  -0.0044829  -0.0101674   0.0055063  -0.0410515  -0.0795689   0.0891236  -0.0005844  -0.0001221   0.0009841  -0.0000421  -0.0004687  -0.0068491   0.0002422  -0.0005045   0.0017174
Order 1, Length 27
  -0.2926443  -0.0000026  -0.0917258   0.0007221   0.0000011   0.0029463   0.0011807   0.0000005  -0.0003007   0.0003065   0.0000012   0.0001327   0.0003041  -0.0001881  -0.0005845   0.0003044   0.0001871  -0.0005844   0.3140002   0.0000014   0.0998144  -0.0120875   0.0016654  -0.0048482  -0.0120887  -0.0016633  -0.0048497
Order 1, Length 27
  -0.0000012  -0.0470388   0.0000002   0.0000023  -0.0024646  -0.0000029  -0.0000015   0.0007190  -0.0000032   0.0000002   0.0006907   0.0000037  -0.0000459  -0.0000617   0.0001239   0.0000448  -0.0000644  -0.0001221   0.0000014   0.0453721   0.0000006  -0.0241989   0.0014240  -0.0109916   0.0241991   0.0014242   0.0109918
Order 1, Length 27
  -0.0886926  -0.0000000  -0.0828797  -0.0322148  -0.0000010  -0.0037476  -0.0003675   0.0000009  -0.0094518  -0.0019581  -0.0000001  -0.0007335   0.0004422  -0.0008043   0.0009843   0.0004418   0.0008049   0.0009841   0.0998144   0.0000006   0.0873575   0.0112673  -0.0014644   0.0037428   0.0112665   0.0014643   0.0037429
Order 1, Length 27
  -0.1102398  -0.1069970   0.0454927  -0.0013622  -0.0001718  -0.0005654   0.0011845   0.0006422   0.0002183  -0.0000122  -0.0000020   0.0000145  -0.0003172  -0.0000336   0.0002405   0.0008310   0.0004239  -0.0000421  -0.0120875  -0.0241989   0.0112673   0.1138997   0.1170511  -0.0501609   0.0081030   0.0132838  -0.0064666
Order 1, Length 27
  -0.1070692  -0.2348132   0.0768189   0.0004983   0.0010332  -0.0009123   0.0007744   0.0000545   0.0002489   0.0001928   0.0001180  -0.0001896   0.0003863   0.0009955   0.0005034  -0.0002166   0.0014515  -0.0004687   0.0016654   0.0014240  -0.0014644   0.1170511   0.2490097  -0.0835268  -0.0132842  -0.0192781   0.0089887
Order 1, Length 27
   0.0433807   0.0749247  -0.0790221   0.0183761   0.0307308  -0.0136597   0.0000250  -0.0013205   0.0035563   0.0002855  -0.0001057   0.0004593   0.0000112  -0.0002979   0.0017169  -0.0006021  -0.0004241  -0.0068491  -0.0048482  -0.0109916   0.0037428  -0.0501609  -0.0835268   0.0867089  -0.0064666  -0.0089869   0.0033494
Order 1, Length 27
  -0.1102399   0.1069968   0.0454936  -0.0013635   0.0001718  -0.0005648   0.0011850  -0.0006417   0.0002193  -0.0000122   0.0000007   0.0000122   0.0008320  -0.0004233  -0.0000414  -0.0003156   0.0000331   0.0002422  -0.0120887   0.0241991   0.0112665   0.0081030  -0.0132842  -0.0064666   0.1139000  -0.1170511  -0.0501604
Order 1, Length 27
   0.1070695  -0.2348127  -0.0768204  -0.0005002   0.0010344   0.0009112  -0.0007740   0.0000532  -0.0002478  -0.0001925   0.0001203   0.0001897   0.0002160   0.0014499   0.0004670  -0.0003877   0.0009965  -0.0005045  -0.0016633   0.0014242   0.0014643   0.0132838  -0.0192781  -0.0089869  -0.1170511   0.2490103   0.0835268
Order 1, Length 27
   0.0433824  -0.0749257  -0.0790204   0.0183701  -0.0307258  -0.0136618   0.0000249   0.0013203   0.0035566   0.0002873   0.0001061   0.0004614  -0.0005997   0.0004205  -0.0068520   0.0000114   0.0002969   0.0017174  -0.0048497   0.0109918   0.0037429  -0.0064666   0.0089887   0.0033494  -0.0501604   0.0835268   0.0867052


 # Finishing finite difference calculation for IDERIV #
 ######################################################
 ######################################################
 Requested basis set is G3large
 There are 66 shells and 186 basis functions
 **********************************************************************
 **                                                                  **
 **                       VIBRATIONAL ANALYSIS                       **
 **                       --------------------                       **
 **                                                                  **
 **        VIBRATIONAL FREQUENCIES (CM**-1) AND NORMAL MODES         **
 **     FORCE CONSTANTS (mDYN/ANGSTROM) AND REDUCED MASSES (AMU)     **
 **                  INFRARED INTENSITIES (KM/MOL)                   **
 **                                                                  **
 **********************************************************************
 

 Mode:                 1                      2                      3
 Frequency:       223.04                 262.85                 420.37
 Force Cnst:      0.0334                 0.0440                 0.2679
 Red. Mass:       1.1390                 1.0812                 2.5732
 IR Active:          YES                    YES                    YES
 IR Intens:      101.217                 26.884                 12.355
 Raman Active:       YES                    YES                    YES
               X      Y      Z        X      Y      Z        X      Y      Z
 C          0.000  0.027  0.000    0.000  0.014  0.000   -0.139  0.000 -0.138
 C          0.000  0.010  0.000    0.000 -0.077  0.000    0.151  0.000 -0.109
 O          0.000 -0.090  0.000    0.000  0.019  0.000    0.057  0.000  0.218
 H          0.000  0.846  0.000    0.000  0.541  0.000   -0.276  0.000  0.225
 H          0.055  0.040  0.004   -0.064 -0.131  0.034    0.104 -0.011 -0.147
 H         -0.055  0.040 -0.004    0.064 -0.131 -0.034    0.104  0.011 -0.146
 H          0.000 -0.282  0.000    0.000  0.512  0.000   -0.307  0.000  0.292
 H         -0.254  0.170 -0.011    0.397 -0.175  0.096   -0.335  0.012 -0.375
 H          0.254  0.170  0.011   -0.396 -0.175 -0.096   -0.335 -0.012 -0.375
 TransDip   0.000  0.322  0.000    0.000  0.166  0.000   -0.090  0.000 -0.067

 Mode:                 4                      5                      6
 Frequency:       823.55                 929.08                1062.48
 Force Cnst:      0.4324                 0.9996                 1.1234
 Red. Mass:       1.0821                 1.9656                 1.6891
 IR Active:          YES                    YES                    YES
 IR Intens:        0.616                  7.577                 37.349
 Raman Active:       YES                    YES                    YES
               X      Y      Z        X      Y      Z        X      Y      Z
 C          0.000  0.047  0.000    0.125  0.000  0.161    0.098  0.000 -0.139
 C          0.000  0.063  0.000    0.102  0.000 -0.073   -0.039  0.000  0.167
 O          0.000 -0.021  0.000   -0.130  0.000 -0.072   -0.052  0.000  0.008
 H          0.000  0.020  0.000   -0.100  0.000 -0.077    0.685  0.000 -0.014
 H         -0.174 -0.218  0.405   -0.020  0.001 -0.223   -0.107 -0.004  0.095
 H          0.174 -0.218 -0.405   -0.020 -0.001 -0.223   -0.107  0.003  0.094
 H          0.000 -0.188  0.000   -0.133  0.000  0.831   -0.045  0.000  0.200
 H          0.068 -0.188 -0.444   -0.182  0.056 -0.110   -0.150  0.029 -0.412
 H         -0.068 -0.188  0.444   -0.182 -0.056 -0.110   -0.150 -0.029 -0.412
 TransDip   0.000 -0.025  0.000    0.075  0.000  0.047    0.178  0.000  0.082

 Mode:                 7                      8                      9
 Frequency:      1153.82                1188.05                1269.80
 Force Cnst:      2.2288                 1.2785                 1.2650
 Red. Mass:       2.8415                 1.5373                 1.3316
 IR Active:          YES                    YES                    YES
 IR Intens:       48.476                  3.962                 82.135
 Raman Active:       YES                    YES                    YES
               X      Y      Z        X      Y      Z        X      Y      Z
 C         -0.053  0.000 -0.074    0.000 -0.115  0.000   -0.088  0.000  0.027
 C          0.276  0.000  0.130    0.000  0.177  0.000    0.099  0.000 -0.053
 O         -0.211  0.000 -0.058    0.000 -0.053  0.000   -0.067  0.000  0.042
 H         -0.357  0.000 -0.065    0.000  0.005  0.000    0.780  0.000  0.010
 H          0.371 -0.023  0.361   -0.525 -0.164  0.080   -0.064  0.008 -0.312
 H          0.371  0.023  0.361    0.525 -0.164 -0.080   -0.064 -0.008 -0.312
 H          0.066  0.000 -0.368    0.000  0.232  0.000   -0.006  0.000 -0.164
 H          0.126 -0.069 -0.019   -0.090  0.098  0.350    0.140 -0.051  0.211
 H          0.126  0.069 -0.018    0.090  0.098 -0.350    0.140  0.051  0.211
 TransDip   0.202  0.000  0.093    0.000  0.064  0.000    0.285  0.000  0.056

 Mode:                10                     11                     12
 Frequency:      1309.73                1407.22                1468.06
 Force Cnst:      1.1140                 1.4502                 1.9061
 Red. Mass:       1.1023                 1.2429                 1.5011
 IR Active:          YES                    YES                    YES
 IR Intens:        0.000                  4.111                 12.349
 Raman Active:       YES                    YES                    YES
               X      Y      Z        X      Y      Z        X      Y      Z
 C          0.000  0.083  0.000    0.012  0.000 -0.132   -0.034  0.000 -0.097
 C          0.000 -0.020  0.000   -0.029  0.000 -0.048    0.055  0.000  0.167
 O          0.000 -0.031  0.000   -0.014  0.000  0.015    0.034  0.000 -0.036
 H          0.000 -0.011  0.000    0.125  0.000  0.009   -0.373  0.000 -0.018
 H         -0.392 -0.016 -0.530    0.149 -0.021  0.252   -0.354  0.014 -0.401
 H          0.392 -0.016  0.530    0.149  0.021  0.252   -0.354 -0.014 -0.401
 H          0.000 -0.118  0.000   -0.227  0.000  0.525   -0.163  0.001  0.253
 H          0.063 -0.049 -0.219    0.111  0.174  0.435    0.226 -0.040  0.153
 H         -0.063 -0.049  0.219    0.110 -0.174  0.435    0.227  0.040  0.153
 TransDip   0.000  0.000  0.000    0.007  0.000  0.065    0.023  0.000  0.110

 Mode:                13                     14                     15
 Frequency:      1487.00                1507.62                1533.90
 Force Cnst:      1.3522                 1.4263                 1.5189
 Red. Mass:       1.0379                 1.0651                 1.0957
 IR Active:          YES                    YES                    YES
 IR Intens:        7.964                  3.161                  2.681
 Raman Active:       YES                    YES                    YES
               X      Y      Z        X      Y      Z        X      Y      Z
 C          0.000 -0.047  0.000   -0.043  0.000  0.026   -0.011  0.000 -0.002
 C          0.000 -0.024  0.000   -0.018  0.000 -0.048   -0.077  0.000  0.044
 O          0.000  0.002  0.000    0.004  0.000  0.005   -0.006  0.000  0.002
 H          0.000  0.007  0.000    0.041  0.000  0.004   -0.004  0.000  0.002
 H          0.017  0.002 -0.044   -0.063 -0.120  0.189    0.469  0.420 -0.249
 H         -0.016  0.002  0.044   -0.063  0.120  0.189    0.469 -0.420 -0.249
 H          0.000  0.707  0.000   -0.123  0.000  0.275   -0.051  0.000  0.103
 H         -0.373  0.046 -0.325    0.439 -0.383 -0.240    0.126 -0.104 -0.067
 H          0.373  0.046  0.325    0.439  0.383 -0.240    0.126  0.104 -0.067
 TransDip   0.000  0.090  0.000    0.056  0.000 -0.010    0.002  0.000 -0.052

 Mode:                16                     17                     18
 Frequency:      3048.52                3086.33                3094.88
 Force Cnst:      5.7884                 6.2194                 5.8481
 Red. Mass:       1.0571                 1.1082                 1.0363
 IR Active:          YES                    YES                    YES
 IR Intens:       55.377                 35.685                 10.792
 Raman Active:       YES                    YES                    YES
               X      Y      Z        X      Y      Z        X      Y      Z
 C          0.005  0.000  0.001    0.000  0.011  0.000   -0.001  0.000 -0.051
 C         -0.052  0.000  0.042    0.000 -0.095  0.000   -0.002  0.000  0.004
 O         -0.002  0.000 -0.001    0.000  0.000  0.000    0.000  0.000  0.000
 H         -0.008  0.000  0.000    0.000  0.002  0.000   -0.001  0.000 -0.001
 H          0.321 -0.581 -0.233   -0.330  0.564  0.248    0.013 -0.024 -0.012
 H          0.321  0.582 -0.233    0.330  0.564 -0.248    0.013  0.023 -0.012
 H         -0.062  0.000 -0.016    0.000  0.003  0.000    0.552  0.000  0.202
 H          0.004  0.003 -0.002   -0.043 -0.070  0.028   -0.269 -0.465  0.189
 H          0.004 -0.003 -0.003    0.042 -0.070 -0.027   -0.269  0.465  0.189
 TransDip  -0.212  0.000  0.108    0.000 -0.191  0.000   -0.022  0.000 -0.103

 Mode:                19                     20                     21
 Frequency:      3181.07                3183.67                3949.28
 Force Cnst:      6.5771                 6.5953                 9.8004
 Red. Mass:       1.1032                 1.1044                 1.0665
 IR Active:          YES                    YES                    YES
 IR Intens:       18.182                 19.789                 46.522
 Raman Active:       YES                    YES                    YES
               X      Y      Z        X      Y      Z        X      Y      Z
 C         -0.093  0.000  0.000    0.000 -0.093  0.000    0.000  0.000  0.000
 C         -0.004  0.000  0.002    0.000 -0.012  0.000    0.002  0.000 -0.001
 O          0.000  0.000  0.000    0.000  0.000  0.000   -0.004  0.000 -0.062
 H          0.001  0.000  0.000    0.000  0.001  0.000    0.033  0.000  0.997
 H          0.016 -0.028 -0.013   -0.038  0.069  0.032    0.002  0.001  0.002
 H          0.016  0.028 -0.013    0.038  0.069 -0.032    0.002 -0.001  0.002
 H          0.748  0.000  0.285    0.001 -0.014  0.001    0.001  0.000  0.000
 H          0.183  0.344 -0.144    0.336  0.563 -0.243    0.000 -0.001  0.001
 H          0.184 -0.346 -0.145   -0.336  0.562  0.243    0.000  0.001  0.001
 TransDip  -0.136  0.000  0.012    0.000 -0.142  0.000    0.067  0.000  0.208

 STANDARD THERMODYNAMIC QUANTITIES AT   298.18 K  AND     1.00 ATM

   This Molecule has  0 Imaginary Frequencies
   Zero point vibrational energy:       50.879 kcal/mol

   Atom    1 Element C  Has Mass   12.00000
   Atom    2 Element C  Has Mass   12.00000
   Atom    3 Element O  Has Mass   15.99491
   Atom    4 Element H  Has Mass    1.00783
   Atom    5 Element H  Has Mass    1.00783
   Atom    6 Element H  Has Mass    1.00783
   Atom    7 Element H  Has Mass    1.00783
   Atom    8 Element H  Has Mass    1.00783
   Atom    9 Element H  Has Mass    1.00783
   Molecular Mass:    46.041890 amu
   Principal axes and moments of inertia in atomic units:
                             1           2           3
    Eigenvalues --       50.62303   190.71459   218.85000
          X               0.54118     0.84090     0.00000
          Y               0.00000     0.00000     1.00000
          Z               0.84090    -0.54118     0.00000
   Rotational Symmetry Number is   1
   The Molecule is an Asymmetric Top
   Translational Enthalpy:        0.889 kcal/mol
   Rotational Enthalpy:           0.889 kcal/mol
   Vibrational Enthalpy:         51.834 kcal/mol
   gas constant (RT):             0.593 kcal/mol
   Translational Entropy:        37.406  cal/mol.K
   Rotational Entropy:           22.273  cal/mol.K
   Vibrational Entropy:           5.070  cal/mol.K

   Total Enthalpy:               54.204 kcal/mol
   Total Entropy:                64.750  cal/mol.K
 Total job time:  6702.44s(wall), 6643.65s(cpu) 
 Wed Jul  3 22:19:12 2013

        *************************************************************
        *                                                           *
        *  Thank you very much for using Q-Chem.  Have a nice day.  *
        *                                                           *
        *************************************************************


0 sent ACK to 0 
now end server 0 ... 
