Process 0 of 1 is on cl098.stfx.acenet.ca - thread support 1
initial socket setup ...start
initial socket setup ...done 
now start server 0 ... 

cmd = /usr/bin/ssh clhead /usr/local/qchem/bin/get_hostid 1256252907 > /scratch/tmp/5956264.1.short.q/qchem17266/lic.dat
                  Welcome to Q-Chem
     A Quantum Leap Into The Future Of Chemistry

 Y. Shao, L. Fusti-Molnar, Y. Jung, J. Kussmann, C. Ochsenfeld,
 S. T. Brown, A. T. B. Gilbert, L. V. Slipchenko,S. V. Levchenko,
 D. P. O'Neill, R. A. DiStasio Jr., R. C. Lochan, T. Wang,
 G. J. O. Beran, N. A. Besley, J. M. Herbert, C. Y. Lin,
 T. Van Voorhis, S. H. Chien, A. Sodt, R. P. Steele, 
 V. A. Rassolov, P. E. Maslen, P. P. Korambath, R. D. Adamson,
 B. Austin, J. Baker, E. F. C. Byrd, H. Dachsel, R. J. Doerksen,
 A. Dreuw, B. D. Dunietz, A. D. Dutoi, T. R. Furlani,
 S. R. Gwaltney, A. Heyden, S. Hirata, C.-P. Hsu, G. Kedziora,
 R. Z. Khaliullin, P. Klunzinger, A. M. Lee, M. S. Lee, W. Liang,
 I. Lotan, N. Nair, B. Peters, E. I. Proynov, P. A. Pieniazek, 
 Y. M. Rhee, J. Ritchie, E. Rosta, C. D. Sherrill, 
 A. C. Simmonett, J. E. Subotnik, H. L. Woodcock III,
 W. Zhang, A. T. Bell, A. K. Chakraborty, D. M. Chipman,
 F. J. Keil, A. Warshel, W. J. Hehre, H. F. Schaefer III,
 J. Kong, A. I. Krylov, P. M. W. Gill, M. Head-Gordon,
 Q-Chem, Version 3.1, Q-Chem, Inc., Pittsburgh, PA (2007).

 Additional authors for Version 3.1: 
 Z. Gan, Y. Zhao, N. E. Schultz, D. Truhlar, E. Epifanovsky and M. Oana.

 Additional authors for Version 3.2: 
 R. Baer, B. R. Brooks, D. Casanova, J.-D. Chai, C.-L. Cheng, 
 C. Cramer, D. Crittenden, A. Ghysels, G. Hawkins, E. G. Hohenstein, 
 C. Kelley, W. Kurlancheek, D. Liotard, E. Livshits, P. Manohar, 
 A. Marenich, D. Neuhauser, R. Olson, M. A. Rohrdanz, K. S. Thanthiriwatte, 
 A. J. W. Thom, V. Vanovschi, C. F. Williams, Q. Wu and Z.-Q. You. 


 Intel X86 Linux Version

 Q-chem begins on Tue Apr 30 22:35:19 2013  

 Parallel job on  1  processors
Processing $rem in /usr/local/qchem/config/preferences.

theFileMan(): MAXOPENFILES=974 MAX_SUB_FILE_NUM=16
Maximum size of a physical file is 2.0 GB, maximum size of a tmp-file is 32.0 GB


--------------------------------------------------------------
User input:
--------------------------------------------------------------

$molecule
-1,2
C
X,1,1.
Cl,1,CCl,2,HClX
Cl,1,CCl,2,HClX,3,180.,0
H,1,CH,2,HCX,3,90.,0
H,1,CH,2,HCX,3,-90.,0

CCl=1.79088554
CH=1.08757434
HClX=56.65320917
HCX=124.25124469

$end

$comment
negative
$end

$xc_functional
C PBE   1.00
X wPBE  1.00
$end

$rem
SYMMETRY_DECOMPOSITION	0
exchange 		general
LRC_DFT                 true
BASIS                   g3large
omega			390
mem_static              760
max_scf_cycles          200
scf_final_print         1
sym_ignore              true
$end

--------------------------------------------------------------
 Writing REM_CC_EA            5
 ----------------------------------------------------
       Standard Nuclear Orientation (Angstroms)
    I     Atom         X            Y            Z
 ----------------------------------------------------
    1      C       0.000000     0.000000     0.000000
    2      Cl      1.496032     0.000000     0.984459
    3      Cl     -1.496032     0.000000     0.984459
    4      H       0.000000    -0.898965    -0.612112
    5      H       0.000000     0.898965    -0.612112
 ----------------------------------------------------
 Nuclear Repulsion Energy =   132.7368262598 hartrees
 There are       22 alpha and       21 beta electrons
 Requested basis set is G3large
 There are 60 shells and 194 basis functions

Total QAlloc Memory Limit   2000 MB
Mega-Array Size       743 MB
MEM_STATIC part       760 MB

                       Distance Matrix (Angstroms)
             C (  1)   Cl(  2)   Cl(  3)   H (  4)
   Cl(  2)  1.790886
   Cl(  3)  1.790886  2.992064
   H (  4)  1.087574  2.365436  2.365436
   H (  5)  1.087574  2.365436  2.365436  1.797929
 
 A cutoff of  1.0D-08 yielded   1624 shell pairs
 There are  17199 function pairs ( 23316 Cartesian)
Evaluating contribution to one-electron hamiltonian from nuclear
 Smallest overlap matrix eigenvalue = 1.89E-04
 Multipole matrices computed through 2nd order

  Scale SEOQF with 1.000000e-01/1.000000e-01/1.000000e-01

 Standard Electronic Orientation quadrupole field applied
 Nucleus-field energy     =    -0.0000000008 hartrees
 Guess from superposition of atomic densities
 Warning:  Energy on first SCF cycle will be non-variational
 Long-range K will be added via erf
 Coulomb attenuation parameter = 0.39 bohr**(-1)
 An unrestricted Kohn-Sham SCF calculation will be
 performed using Pulay DIIS extrapolation
 Exchange:  wPBE + LR-HF      Correlation:  PBE
 Using SG-1 standard quadrature grid
 SCF converges when DIIS error is below 1.0E-05
 Requested basis set is G3large
 There are 60 shells and 194 basis functions
 A cutoff of  1.0D-08 yielded   1624 shell pairs
 There are  17199 function pairs ( 23316 Cartesian)
 Warning!  Inaccurate integrated density:
   Number of electrons =    43
   Numerical integral  =    42.000041164111
   Relative error      =    -2.3254856649 %
 ---------------------------------------
  Cycle       Energy         DIIS Error
 ---------------------------------------
    1    -959.7775045517      2.38E-02
    2    -959.3196303762      2.56E-03
    3    -959.3616867199      2.03E-03
    4    -959.3759462898      3.40E-04
    5    -959.3793605540      2.55E-04
    6    -959.3818921954      1.82E-04
    7    -959.3855492156      2.12E-04
    8    -959.3889404374      1.60E-04
    9    -959.3940673556      2.04E-04
   10    -959.3936028638      8.35E-05
   11    -959.3947903210      5.63E-05
   12    -959.3949156533      2.66E-05
   13    -959.3949427652      7.30E-06 Convergence criterion met
 ---------------------------------------
 One-Electron    Energy = -1593.4485500244
 Total Coulomb   Energy =   563.7421648856
 Alpha Exchange  Energy =    -4.3174449164
 Beta  Exchange  Energy =    -4.2362417105
 DFT   Exchange  Energy =   -52.2729912633
 DFT Correlation Energy =    -1.5987059951
 Nuclear Repu.   Energy =   132.7368262590
 Nuclear Attr.   Energy = -2551.4766448629
 Kinetic         Energy =   958.0280948386
 <S^2> = 0.7502
 SCF time:  CPU 185.03 s  wall 186.69 s
 Final Alpha MO Eigenvalues
            1           2           3           4           5           6
    1-100.7437414-100.7436473 -10.0708529  -9.2657361  -9.2656722  -7.0847562
            7           8           9          10          11          12
    1  -7.0846898  -7.0743583  -7.0742916  -7.0742260  -7.0741598  -0.9050987
           13          14          15          16          17          18
    1  -0.8289677  -0.6574548  -0.4727988  -0.4394579  -0.4229926  -0.3128149
           19          20          21          22          23          24
    1  -0.3099452  -0.2923586  -0.2832041   0.0222477   0.1535887   0.1776239
           25          26          27
    1   0.1862357   0.2197220   0.2403989
 Final Beta MO Eigenvalues
            1           2           3           4           5           6
    1-100.7436480-100.7435528 -10.0694828  -9.2656402  -9.2655761  -7.0844433
            7           8           9          10          11          12
    1  -7.0843755  -7.0743046  -7.0742378  -7.0741986  -7.0741321  -0.9037570
           13          14          15          16          17          18
    1  -0.8281268  -0.6541486  -0.4711477  -0.4370394  -0.4204236  -0.3123668
           19          20          21          22          23          24
    1  -0.3092049  -0.2914692  -0.2823925   0.1607161   0.1805127   0.1817017
           25          26
    1   0.1894492   0.2284470
 Analysis of SCF Wavefunction
 
 --------------------------------------------------------------
                    Orbital Energies (a.u.)
 --------------------------------------------------------------
 
 Alpha MOs
 -- Occupied --
*******-100.744 -10.071  -9.266  -9.266  -7.085  -7.085  -7.074
 -7.074  -7.074  -7.074  -0.905  -0.829  -0.657  -0.473  -0.439
 -0.423  -0.313  -0.310  -0.292  -0.283   0.022
 -- Virtual --
  0.154   0.178   0.186   0.220   0.240   0.246   0.253   0.257
  0.263   0.274   0.299   0.306   0.312   0.328   0.363   0.367
  0.455   0.482   0.488   0.509   0.532   0.533   0.568   0.574
  0.593   0.633   0.643   0.660   0.674   0.702   0.709   0.727
  0.774   0.791   0.811   0.835   0.906   0.924   0.949   0.980
  1.117   1.170   1.173   1.177   1.180   1.275   1.284   1.293
  1.320   1.331   1.340   1.340   1.341   1.368   1.369   1.375
  1.377   1.390   1.404   1.481   1.544   1.570   1.596   1.625
  1.626   1.642   1.675   1.699   1.709   1.760   1.800   1.863
  1.872   1.883   1.949   1.971   2.405   2.422   2.465   2.476
  2.499   2.623   2.802   2.858   3.200   3.230   3.239   3.366
  3.460   3.488   3.597   3.626   3.654   3.746   3.779   3.830
  3.954   4.100   4.101   4.370   4.372   4.523   4.552   4.583
  4.595   4.619   4.621   4.631   4.643   4.648   4.669   4.705
  4.766   4.781   4.787   4.845   4.886   5.252   5.258   5.278
  5.280   5.382   5.386   5.432   5.475   5.500   5.893   5.915
  5.936   9.933   9.985  20.719  20.723  20.742  20.751  20.939
 20.984  24.081  27.233  27.235  27.261  27.286  27.300  27.313
 27.321  27.357  27.359  27.383  28.049  28.078  28.181  36.943
 36.945  36.947  36.949  36.950  36.951  36.953  36.954  36.958
 36.958  36.966  36.967  36.970  36.974  40.955  41.012  41.229
 41.235  41.300 215.793 215.873
 
 Beta MOs
 -- Occupied --
*******-100.744 -10.069  -9.266  -9.266  -7.084  -7.084  -7.074
 -7.074  -7.074  -7.074  -0.904  -0.828  -0.654  -0.471  -0.437
 -0.420  -0.312  -0.309  -0.291  -0.282
 -- Virtual --
  0.161   0.181   0.182   0.189   0.228   0.248   0.252   0.256
  0.258   0.270   0.275   0.302   0.313   0.314   0.330   0.363
  0.371   0.454   0.483   0.489   0.510   0.533   0.534   0.569
  0.575   0.593   0.634   0.643   0.661   0.674   0.702   0.710
  0.728   0.773   0.790   0.812   0.834   0.907   0.926   0.951
  0.981   1.118   1.170   1.173   1.178   1.181   1.276   1.285
  1.294   1.321   1.331   1.341   1.341   1.342   1.369   1.369
  1.376   1.378   1.390   1.405   1.482   1.545   1.571   1.596
  1.625   1.628   1.642   1.675   1.700   1.709   1.762   1.801
  1.864   1.873   1.884   1.950   1.972   2.405   2.422   2.465
  2.477   2.501   2.624   2.802   2.858   3.202   3.231   3.240
  3.367   3.462   3.489   3.598   3.626   3.655   3.749   3.782
  3.833   3.957   4.102   4.102   4.370   4.373   4.524   4.553
  4.584   4.596   4.619   4.621   4.631   4.643   4.649   4.670
  4.706   4.766   4.782   4.788   4.846   4.887   5.252   5.258
  5.278   5.280   5.382   5.387   5.432   5.475   5.501   5.895
  5.915   5.937   9.934   9.986  20.719  20.723  20.742  20.751
 20.940  20.984  24.083  27.233  27.235  27.262  27.286  27.300
 27.313  27.322  27.357  27.359  27.383  28.050  28.079  28.183
 36.943  36.945  36.947  36.949  36.950  36.951  36.953  36.954
 36.958  36.958  36.966  36.967  36.970  36.974  40.955  41.013
 41.229  41.235  41.300 215.793 215.873
 --------------------------------------------------------------
 
          Ground-State Mulliken Net Atomic Charges

     Atom                 Charge (a.u.)    Spin (a.u.)
  --------------------------------------------------------
      1 C                     3.960305      -3.527249
      2 Cl                   -0.934824       0.623475
      3 Cl                   -0.934718       0.623319
      4 H                    -1.544862       1.639692
      5 H                    -1.545900       1.640763
  --------------------------------------------------------
  Sum of atomic charges =    -1.000000
  Sum of spin   charges =     1.000000

 -----------------------------------------------------------------
                    Cartesian Multipole Moments
 -----------------------------------------------------------------
    Charge (ESU x 10^10)
                -4.8032
    Dipole Moment (Debye)
         X       0.0008      Y      -0.0031      Z       4.9576
       Tot       4.9576
    Quadrupole Moments (Debye-Ang)
        XX     -49.4172     XY      -0.0002     YY     -55.8603
        XZ      -0.0013     YZ       0.0047     ZZ     -58.5761
    Octapole Moments (Debye-Ang^2)
       XXX       0.0046    XXY      -0.0086    XYY       0.0027
       YYY      -0.0335    XXZ      -4.1079    XYZ      -0.0003
       YYZ       5.8398    XZZ       0.0024    YZZ      -0.0133
       ZZZ      -5.3357
    Hexadecapole Moments (Debye-Ang^3)
      XXXX    -486.5918   XXXY      -0.0015   XXYY    -136.8263
      XYYY      -0.0002   YYYY    -322.9220   XXXZ      -0.0109
      XXYZ       0.0110   XYYZ      -0.0029   YYYZ       0.0391
      XXZZ    -156.3991   XYZZ      -0.0004   YYZZ    -138.8674
      XZZZ      -0.0087   YZZZ       0.0356   ZZZZ    -470.2438
 -----------------------------------------------------------------
 Total job time:  187.23s(wall), 185.27s(cpu) 
 Tue Apr 30 22:38:26 2013

        *************************************************************
        *                                                           *
        *  Thank you very much for using Q-Chem.  Have a nice day.  *
        *                                                           *
        *************************************************************


0 sent ACK to 0 
now end server 0 ... 
 
**********************************************************************
Job 2 of 3 
**********************************************************************
 
Process 0 of 1 is on cl098.stfx.acenet.ca - thread support 1
initial socket setup ...start
initial socket setup ...done 
now start server 0 ... 

cmd = /usr/bin/ssh clhead /usr/local/qchem/bin/get_hostid 386220530 > /scratch/tmp/5956264.1.short.q/qchem17266/lic.dat
                  Welcome to Q-Chem
     A Quantum Leap Into The Future Of Chemistry

 Y. Shao, L. Fusti-Molnar, Y. Jung, J. Kussmann, C. Ochsenfeld,
 S. T. Brown, A. T. B. Gilbert, L. V. Slipchenko,S. V. Levchenko,
 D. P. O'Neill, R. A. DiStasio Jr., R. C. Lochan, T. Wang,
 G. J. O. Beran, N. A. Besley, J. M. Herbert, C. Y. Lin,
 T. Van Voorhis, S. H. Chien, A. Sodt, R. P. Steele, 
 V. A. Rassolov, P. E. Maslen, P. P. Korambath, R. D. Adamson,
 B. Austin, J. Baker, E. F. C. Byrd, H. Dachsel, R. J. Doerksen,
 A. Dreuw, B. D. Dunietz, A. D. Dutoi, T. R. Furlani,
 S. R. Gwaltney, A. Heyden, S. Hirata, C.-P. Hsu, G. Kedziora,
 R. Z. Khaliullin, P. Klunzinger, A. M. Lee, M. S. Lee, W. Liang,
 I. Lotan, N. Nair, B. Peters, E. I. Proynov, P. A. Pieniazek, 
 Y. M. Rhee, J. Ritchie, E. Rosta, C. D. Sherrill, 
 A. C. Simmonett, J. E. Subotnik, H. L. Woodcock III,
 W. Zhang, A. T. Bell, A. K. Chakraborty, D. M. Chipman,
 F. J. Keil, A. Warshel, W. J. Hehre, H. F. Schaefer III,
 J. Kong, A. I. Krylov, P. M. W. Gill, M. Head-Gordon,
 Q-Chem, Version 3.1, Q-Chem, Inc., Pittsburgh, PA (2007).

 Additional authors for Version 3.1: 
 Z. Gan, Y. Zhao, N. E. Schultz, D. Truhlar, E. Epifanovsky and M. Oana.

 Additional authors for Version 3.2: 
 R. Baer, B. R. Brooks, D. Casanova, J.-D. Chai, C.-L. Cheng, 
 C. Cramer, D. Crittenden, A. Ghysels, G. Hawkins, E. G. Hohenstein, 
 C. Kelley, W. Kurlancheek, D. Liotard, E. Livshits, P. Manohar, 
 A. Marenich, D. Neuhauser, R. Olson, M. A. Rohrdanz, K. S. Thanthiriwatte, 
 A. J. W. Thom, V. Vanovschi, C. F. Williams, Q. Wu and Z.-Q. You. 


 Intel X86 Linux Version

 Q-chem begins on Tue Apr 30 22:38:29 2013  

 Parallel job on  1  processors
Processing $rem in /usr/local/qchem/config/preferences.

theFileMan(): MAXOPENFILES=974 MAX_SUB_FILE_NUM=16
Maximum size of a physical file is 2.0 GB, maximum size of a tmp-file is 32.0 GB


--------------------------------------------------------------
User input:
--------------------------------------------------------------

$molecule
0,1
C
X,1,1.
Cl,1,CCl,2,HClX
Cl,1,CCl,2,HClX,3,180.,0
H,1,CH,2,HCX,3,90.,0
H,1,CH,2,HCX,3,-90.,0

CCl=1.79088554
CH=1.08757434
HClX=56.65320917
HCX=124.25124469

$end

$comment
neutral
$end

$xc_functional
C PBE   1.00
X wPBE  1.00
$end


$rem
SYMMETRY_DECOMPOSITION	0
LRC_DFT                 true
exchange 		general
BASIS                   g3large
omega			390
mem_static              760
max_scf_cycles          200
scf_final_print         1
sym_ignore              true
$end

--------------------------------------------------------------
 Writing REM_CC_EA            5
 ----------------------------------------------------
       Standard Nuclear Orientation (Angstroms)
    I     Atom         X            Y            Z
 ----------------------------------------------------
    1      C       0.000000     0.000000     0.000000
    2      Cl      1.496032     0.000000     0.984459
    3      Cl     -1.496032     0.000000     0.984459
    4      H       0.000000    -0.898965    -0.612112
    5      H       0.000000     0.898965    -0.612112
 ----------------------------------------------------
 Nuclear Repulsion Energy =   132.7368262598 hartrees
 There are       21 alpha and       21 beta electrons
 Requested basis set is G3large
 There are 60 shells and 194 basis functions

Total QAlloc Memory Limit   2000 MB
Mega-Array Size       743 MB
MEM_STATIC part       760 MB

                       Distance Matrix (Angstroms)
             C (  1)   Cl(  2)   Cl(  3)   H (  4)
   Cl(  2)  1.790886
   Cl(  3)  1.790886  2.992064
   H (  4)  1.087574  2.365436  2.365436
   H (  5)  1.087574  2.365436  2.365436  1.797929
 
 A cutoff of  1.0D-08 yielded   1624 shell pairs
 There are  17199 function pairs ( 23316 Cartesian)
Evaluating contribution to one-electron hamiltonian from nuclear
 Smallest overlap matrix eigenvalue = 1.89E-04
 Multipole matrices computed through 2nd order

  Scale SEOQF with 1.000000e-01/1.000000e-01/1.000000e-01

 Standard Electronic Orientation quadrupole field applied
 Nucleus-field energy     =    -0.0000000008 hartrees
 Guess from superposition of atomic densities
 Warning:  Energy on first SCF cycle will be non-variational
 Long-range K will be added via erf
 Coulomb attenuation parameter = 0.39 bohr**(-1)
 A restricted Kohn-Sham SCF calculation will be
 performed using Pulay DIIS extrapolation
 Exchange:  wPBE + LR-HF      Correlation:  PBE
 Using SG-1 standard quadrature grid
 SCF converges when DIIS error is below 1.0E-05
 Requested basis set is G3large
 There are 60 shells and 194 basis functions
 A cutoff of  1.0D-08 yielded   1624 shell pairs
 There are  17199 function pairs ( 23316 Cartesian)
 ---------------------------------------
  Cycle       Energy         DIIS Error
 ---------------------------------------
    1    -959.7775045517      2.38E-02
    2    -959.3739034098      2.95E-03
    3    -959.3886077757      2.97E-03
    4    -959.4220077221      2.48E-04
    5    -959.4226744667      9.23E-05
    6    -959.4227640003      3.04E-05
    7    -959.4227757513      7.61E-06 Convergence criterion met
 ---------------------------------------
 One-Electron    Energy = -1587.4352975123
 Total Coulomb   Energy =   557.5987372994
 Alpha Exchange  Energy =    -4.2383447455
 Beta  Exchange  Energy =    -4.2383447455
 DFT   Exchange  Energy =   -52.2574867186
 DFT Correlation Energy =    -1.5888655876
 Nuclear Repu.   Energy =   132.7368262590
 Nuclear Attr.   Energy = -2545.3517006459
 Kinetic         Energy =   957.9164031336
 SCF time:  CPU 77.95 s  wall 79.70 s
 Final Alpha MO Eigenvalues
            1           2           3           4           5           6
    1-100.8857123-100.8854107 -10.2299151  -9.4075949  -9.4073885  -7.2271810
            7           8           9          10          11          12
    1  -7.2269656  -7.2159300  -7.2157981  -7.2157150  -7.2155829  -1.0499228
           13          14          15          16          17          18
    1  -0.9705047  -0.8069072  -0.6273057  -0.5859411  -0.5649917  -0.4523549
           19          20          21          22          23          24
    1  -0.4509660  -0.4316149  -0.4262484   0.0359313   0.0615992   0.0633126
           25          26
    1   0.0773177   0.1077392
 Analysis of SCF Wavefunction
 
 --------------------------------------------------------------
                    Orbital Energies (a.u.)
 --------------------------------------------------------------
 
 Alpha MOs
 -- Occupied --
*******-100.885 -10.230  -9.408  -9.407  -7.227  -7.227  -7.216
 -7.216  -7.216  -7.216  -1.050  -0.971  -0.807  -0.627  -0.586
 -0.565  -0.452  -0.451  -0.432  -0.426
 -- Virtual --
  0.036   0.062   0.063   0.077   0.108   0.129   0.132   0.146
  0.147   0.150   0.152   0.182   0.186   0.196   0.209   0.222
  0.241   0.317   0.342   0.353   0.372   0.395   0.396   0.432
  0.439   0.460   0.511   0.513   0.515   0.547   0.568   0.578
  0.595   0.630   0.647   0.675   0.687   0.760   0.781   0.805
  0.827   0.976   1.029   1.030   1.032   1.033   1.132   1.137
  1.149   1.171   1.192   1.200   1.203   1.205   1.231   1.233
  1.234   1.240   1.253   1.267   1.339   1.398   1.426   1.452
  1.482   1.482   1.485   1.530   1.552   1.554   1.613   1.659
  1.722   1.732   1.742   1.810   1.826   2.266   2.283   2.325
  2.336   2.358   2.478   2.645   2.705   3.046   3.078   3.083
  3.213   3.303   3.338   3.445   3.471   3.507   3.592   3.626
  3.678   3.801   3.944   3.946   4.212   4.213   4.370   4.408
  4.443   4.455   4.471   4.478   4.489   4.499   4.501   4.529
  4.564   4.622   4.636   4.646   4.702   4.740   5.111   5.117
  5.137   5.139   5.238   5.243   5.289   5.333   5.344   5.734
  5.771   5.791   9.792   9.845  20.578  20.582  20.601  20.609
 20.797  20.842  23.922  27.091  27.093  27.119  27.140  27.159
 27.172  27.180  27.215  27.217  27.239  27.894  27.924  28.023
 36.801  36.803  36.806  36.808  36.808  36.809  36.812  36.813
 36.816  36.816  36.824  36.825  36.828  36.831  40.796  40.854
 41.070  41.077  41.141 215.651 215.731
 --------------------------------------------------------------
 
          Ground-State Mulliken Net Atomic Charges

     Atom                 Charge (a.u.)
  ----------------------------------------
      1 C                     0.362193
      2 Cl                   -0.263930
      3 Cl                   -0.263874
      4 H                     0.082812
      5 H                     0.082798
  ----------------------------------------
  Sum of atomic charges =     0.000000

 -----------------------------------------------------------------
                    Cartesian Multipole Moments
 -----------------------------------------------------------------
    Charge (ESU x 10^10)
                 0.0000
    Dipole Moment (Debye)
         X      -0.0007      Y      -0.0001      Z      -1.7171
       Tot       1.7171
    Quadrupole Moments (Debye-Ang)
        XX     -33.7974     XY      -0.0007     YY     -31.2845
        XZ      -0.0005     YZ      -0.0001     ZZ     -32.2122
    Octapole Moments (Debye-Ang^2)
       XXX      -0.0023    XXY      -0.0015    XYY       0.0005
       YYY      -0.0001    XXZ     -21.2622    XYZ      -0.0018
       YYZ     -26.0441    XZZ       0.0005    YZZ      -0.0007
       ZZZ     -72.9168
    Hexadecapole Moments (Debye-Ang^3)
      XXXX    -361.6507   XXXY      -0.0100   XXYY     -72.1485
      XYYY      -0.0004   YYYY     -41.1956   XXXZ      -0.0013
      XXYZ      -0.0026   XYYZ       0.0006   YYYZ       0.0000
      XXZZ     -85.1689   XYZZ      -0.0030   YYZZ     -38.4053
      XZZZ       0.0026   YZZZ      -0.0009   ZZZZ    -184.9733
 -----------------------------------------------------------------
 Total job time:  79.94s(wall), 78.19s(cpu) 
 Tue Apr 30 22:39:49 2013

        *************************************************************
        *                                                           *
        *  Thank you very much for using Q-Chem.  Have a nice day.  *
        *                                                           *
        *************************************************************


0 sent ACK to 0 
now end server 0 ... 
 
**********************************************************************
Job 3 of 3 
**********************************************************************
 
Process 0 of 1 is on cl098.stfx.acenet.ca - thread support 1
initial socket setup ...start
initial socket setup ...done 
now start server 0 ... 

cmd = /usr/bin/ssh clhead /usr/local/qchem/bin/get_hostid 142023805 > /scratch/tmp/5956264.1.short.q/qchem17266/lic.dat
                  Welcome to Q-Chem
     A Quantum Leap Into The Future Of Chemistry

 Y. Shao, L. Fusti-Molnar, Y. Jung, J. Kussmann, C. Ochsenfeld,
 S. T. Brown, A. T. B. Gilbert, L. V. Slipchenko,S. V. Levchenko,
 D. P. O'Neill, R. A. DiStasio Jr., R. C. Lochan, T. Wang,
 G. J. O. Beran, N. A. Besley, J. M. Herbert, C. Y. Lin,
 T. Van Voorhis, S. H. Chien, A. Sodt, R. P. Steele, 
 V. A. Rassolov, P. E. Maslen, P. P. Korambath, R. D. Adamson,
 B. Austin, J. Baker, E. F. C. Byrd, H. Dachsel, R. J. Doerksen,
 A. Dreuw, B. D. Dunietz, A. D. Dutoi, T. R. Furlani,
 S. R. Gwaltney, A. Heyden, S. Hirata, C.-P. Hsu, G. Kedziora,
 R. Z. Khaliullin, P. Klunzinger, A. M. Lee, M. S. Lee, W. Liang,
 I. Lotan, N. Nair, B. Peters, E. I. Proynov, P. A. Pieniazek, 
 Y. M. Rhee, J. Ritchie, E. Rosta, C. D. Sherrill, 
 A. C. Simmonett, J. E. Subotnik, H. L. Woodcock III,
 W. Zhang, A. T. Bell, A. K. Chakraborty, D. M. Chipman,
 F. J. Keil, A. Warshel, W. J. Hehre, H. F. Schaefer III,
 J. Kong, A. I. Krylov, P. M. W. Gill, M. Head-Gordon,
 Q-Chem, Version 3.1, Q-Chem, Inc., Pittsburgh, PA (2007).

 Additional authors for Version 3.1: 
 Z. Gan, Y. Zhao, N. E. Schultz, D. Truhlar, E. Epifanovsky and M. Oana.

 Additional authors for Version 3.2: 
 R. Baer, B. R. Brooks, D. Casanova, J.-D. Chai, C.-L. Cheng, 
 C. Cramer, D. Crittenden, A. Ghysels, G. Hawkins, E. G. Hohenstein, 
 C. Kelley, W. Kurlancheek, D. Liotard, E. Livshits, P. Manohar, 
 A. Marenich, D. Neuhauser, R. Olson, M. A. Rohrdanz, K. S. Thanthiriwatte, 
 A. J. W. Thom, V. Vanovschi, C. F. Williams, Q. Wu and Z.-Q. You. 


 Intel X86 Linux Version

 Q-chem begins on Tue Apr 30 22:39:52 2013  

 Parallel job on  1  processors
Processing $rem in /usr/local/qchem/config/preferences.

theFileMan(): MAXOPENFILES=974 MAX_SUB_FILE_NUM=16
Maximum size of a physical file is 2.0 GB, maximum size of a tmp-file is 32.0 GB


--------------------------------------------------------------
User input:
--------------------------------------------------------------

$molecule
1,2
C
X,1,1.
Cl,1,CCl,2,HClX
Cl,1,CCl,2,HClX,3,180.,0
H,1,CH,2,HCX,3,90.,0
H,1,CH,2,HCX,3,-90.,0

CCl=1.79088554
CH=1.08757434
HClX=56.65320917
HCX=124.25124469

$end

$comment
positive
$end

$xc_functional
C PBE   1.00
X wPBE  1.00
$end

$rem
SYMMETRY_DECOMPOSITION	0
LRC_DFT                 true
exchange 		general
BASIS                   g3large
omega			390
mem_static              760
max_scf_cycles          200
scf_final_print         1
sym_ignore              true
$end

--------------------------------------------------------------
 Writing REM_CC_EA            5
 ----------------------------------------------------
       Standard Nuclear Orientation (Angstroms)
    I     Atom         X            Y            Z
 ----------------------------------------------------
    1      C       0.000000     0.000000     0.000000
    2      Cl      1.496032     0.000000     0.984459
    3      Cl     -1.496032     0.000000     0.984459
    4      H       0.000000    -0.898965    -0.612112
    5      H       0.000000     0.898965    -0.612112
 ----------------------------------------------------
 Nuclear Repulsion Energy =   132.7368262598 hartrees
 There are       21 alpha and       20 beta electrons
 Requested basis set is G3large
 There are 60 shells and 194 basis functions

Total QAlloc Memory Limit   2000 MB
Mega-Array Size       743 MB
MEM_STATIC part       760 MB

                       Distance Matrix (Angstroms)
             C (  1)   Cl(  2)   Cl(  3)   H (  4)
   Cl(  2)  1.790886
   Cl(  3)  1.790886  2.992064
   H (  4)  1.087574  2.365436  2.365436
   H (  5)  1.087574  2.365436  2.365436  1.797929
 
 A cutoff of  1.0D-08 yielded   1624 shell pairs
 There are  17199 function pairs ( 23316 Cartesian)
Evaluating contribution to one-electron hamiltonian from nuclear
 Smallest overlap matrix eigenvalue = 1.89E-04
 Multipole matrices computed through 2nd order

  Scale SEOQF with 1.000000e-01/1.000000e-01/1.000000e-01

 Standard Electronic Orientation quadrupole field applied
 Nucleus-field energy     =    -0.0000000008 hartrees
 Guess from superposition of atomic densities
 Warning:  Energy on first SCF cycle will be non-variational
 Long-range K will be added via erf
 Coulomb attenuation parameter = 0.39 bohr**(-1)
 An unrestricted Kohn-Sham SCF calculation will be
 performed using Pulay DIIS extrapolation
 Exchange:  wPBE + LR-HF      Correlation:  PBE
 Using SG-1 standard quadrature grid
 SCF converges when DIIS error is below 1.0E-05
 Requested basis set is G3large
 There are 60 shells and 194 basis functions
 A cutoff of  1.0D-08 yielded   1624 shell pairs
 There are  17199 function pairs ( 23316 Cartesian)
 Warning!  Inaccurate integrated density:
   Number of electrons =    41
   Numerical integral  =    42.000041164111
   Relative error      =     2.4391247905 %
 ---------------------------------------
  Cycle       Energy         DIIS Error
 ---------------------------------------
    1    -959.7775045517      2.38E-02
    2    -958.9007401805      3.68E-03
    3    -958.9301224186      3.86E-03
    4    -958.9904663759      4.15E-04
    5    -958.9920740980      2.07E-04
    6    -958.9926439525      6.43E-05
    7    -958.9929346324      3.93E-05
    8    -958.9930790647      3.02E-05
    9    -958.9931687753      2.07E-05
   10    -958.9932558191      1.86E-05
   11    -958.9933416963      1.63E-05
   12    -958.9934757639      1.23E-05
   13    -958.9935726179      1.00E-05 Convergence criterion met
 ---------------------------------------
 One-Electron    Energy = -1575.9519365905
 Total Coulomb   Energy =   546.1541486049
 Alpha Exchange  Energy =    -4.2544651112
 Beta  Exchange  Energy =    -4.0236702592
 DFT   Exchange  Energy =   -52.1029641150
 DFT Correlation Energy =    -1.5515114059
 Nuclear Repu.   Energy =   132.7368262590
 Nuclear Attr.   Energy = -2533.4324742957
 Kinetic         Energy =   957.4805377052
 <S^2> = 0.7570
 SCF time:  CPU 173.47 s  wall 175.19 s
 Final Alpha MO Eigenvalues
            1           2           3           4           5           6
    1-101.1916821-101.1640860 -10.4878310  -9.7093837  -9.6825461  -7.5279386
            7           8           9          10          11          12
    1  -7.5252089  -7.5144398  -7.5013278  -7.4965822  -7.4883682  -1.3208660
           13          14          15          16          17          18
    1  -1.2453249  -1.0704187  -0.8890664  -0.8464546  -0.8249474  -0.7412734
           19          20          21          22          23          24
    1  -0.7138095  -0.7043431  -0.6879844  -0.1745180  -0.1332619  -0.1098639
           25          26
    1  -0.0798341  -0.0573695
 Final Beta MO Eigenvalues
            1           2           3           4           5           6
    1-101.1883822-101.1617194 -10.4870477  -9.7064443  -9.6804459  -7.5246194
            7           8           9          10          11          12
    1  -7.5178507  -7.5125595  -7.4995529  -7.4907175  -7.4870202  -1.3063895
           13          14          15          16          17          18
    1  -1.2251655  -1.0502435  -0.8609809  -0.8365299  -0.8189298  -0.7050201
           19          20          21          22          23          24
    1  -0.6818719  -0.6433558  -0.4317844  -0.1679550  -0.1281902  -0.1086844
           25
    1  -0.0781426
 Analysis of SCF Wavefunction
 
 --------------------------------------------------------------
                    Orbital Energies (a.u.)
 --------------------------------------------------------------
 
 Alpha MOs
 -- Occupied --
*******-101.164 -10.488  -9.709  -9.683  -7.528  -7.525  -7.514
 -7.501  -7.497  -7.488  -1.321  -1.245  -1.070  -0.889  -0.846
 -0.825  -0.741  -0.714  -0.704  -0.688
 -- Virtual --
 -0.175  -0.133  -0.110  -0.080  -0.057  -0.049  -0.034  -0.017
 -0.012  -0.003   0.000   0.019   0.020   0.030   0.037   0.039
  0.073   0.101   0.120   0.140   0.142   0.161   0.173   0.197
  0.221   0.240   0.308   0.312   0.320   0.341   0.353   0.370
  0.381   0.422   0.426   0.448   0.480   0.536   0.556   0.574
  0.591   0.746   0.787   0.792   0.795   0.796   0.882   0.900
  0.907   0.931   0.938   0.941   0.949   0.953   0.983   0.988
  0.992   0.993   1.012   1.028   1.099   1.158   1.179   1.218
  1.224   1.244   1.260   1.285   1.313   1.328   1.379   1.414
  1.481   1.492   1.503   1.560   1.589   2.006   2.017   2.060
  2.084   2.104   2.224   2.394   2.456   2.791   2.825   2.829
  2.959   3.050   3.087   3.193   3.220   3.253   3.337   3.375
  3.423   3.548   3.688   3.690   3.949   3.956   4.104   4.121
  4.151   4.168   4.188   4.197   4.212   4.224   4.227   4.248
  4.295   4.339   4.363   4.373   4.428   4.475   4.820   4.827
  4.858   4.861   4.958   4.964   5.009   5.060   5.084   5.475
  5.493   5.522   9.507   9.565  20.278  20.289  20.314  20.329
 20.509  20.560  23.665  26.787  26.815  26.829  26.857  26.863
 26.889  26.894  26.911  26.939  26.959  27.632  27.660  27.763
 36.501  36.503  36.505  36.508  36.516  36.520  36.530  36.531
 36.531  36.535  36.538  36.544  36.548  36.556  40.539  40.594
 40.810  40.820  40.882 215.358 215.442
 
 Beta MOs
 -- Occupied --
*******-101.162 -10.487  -9.706  -9.680  -7.525  -7.518  -7.513
 -7.500  -7.491  -7.487  -1.306  -1.225  -1.050  -0.861  -0.837
 -0.819  -0.705  -0.682  -0.643
 -- Virtual --
 -0.432  -0.168  -0.128  -0.109  -0.078  -0.056  -0.048  -0.032
 -0.012  -0.011  -0.001   0.001   0.021   0.027   0.031   0.039
  0.041   0.076   0.113   0.126   0.146   0.157   0.173   0.183
  0.214   0.233   0.250   0.311   0.315   0.322   0.344   0.365
  0.375   0.391   0.428   0.433   0.452   0.486   0.543   0.562
  0.576   0.602   0.747   0.795   0.796   0.802   0.802   0.896
  0.907   0.915   0.947   0.949   0.954   0.962   0.966   0.993
  0.997   1.000   1.006   1.022   1.033   1.107   1.164   1.189
  1.225   1.236   1.253   1.268   1.293   1.318   1.335   1.385
  1.426   1.490   1.499   1.508   1.566   1.592   2.018   2.033
  2.079   2.089   2.108   2.229   2.405   2.465   2.797   2.827
  2.837   2.964   3.059   3.087   3.196   3.226   3.255   3.343
  3.376   3.427   3.548   3.697   3.698   3.966   3.970   4.120
  4.146   4.178   4.190   4.212   4.216   4.230   4.239   4.244
  4.267   4.300   4.358   4.380   4.382   4.438   4.483   4.829
  4.836   4.865   4.868   4.966   4.968   5.016   5.062   5.097
  5.489   5.498   5.526   9.513   9.570  20.290  20.293  20.324
 20.331  20.511  20.562  23.666  26.795  26.820  26.832  26.863
 26.865  26.894  26.897  26.917  26.943  26.960  27.632  27.661
 27.767  36.505  36.506  36.508  36.510  36.518  36.521  36.531
 36.533  36.533  36.537  36.540  36.546  36.549  36.557  40.539
 40.597  40.813  40.819  40.884 215.361 215.445
 --------------------------------------------------------------
 
          Ground-State Mulliken Net Atomic Charges

     Atom                 Charge (a.u.)    Spin (a.u.)
  --------------------------------------------------------
      1 C                     0.401069       0.014538
      2 Cl                    0.095400       0.357683
      3 Cl                    0.178478       0.497549
      4 H                     0.162170       0.063454
      5 H                     0.162883       0.066776
  --------------------------------------------------------
  Sum of atomic charges =     1.000000
  Sum of spin   charges =     1.000000

 -----------------------------------------------------------------
                    Cartesian Multipole Moments
 -----------------------------------------------------------------
    Charge (ESU x 10^10)
                 4.8032
    Dipole Moment (Debye)
         X      -0.5524      Y       0.0083      Z       1.7478
       Tot       1.8331
    Quadrupole Moments (Debye-Ang)
        XX     -19.8265     XY      -0.3605     YY     -26.3850
        XZ      -0.5591     YZ      -0.0689     ZZ     -24.4739
    Octapole Moments (Debye-Ang^2)
       XXX      -1.6614    XXY       0.1229    XYY      -0.6012
       YYY       0.0083    XXZ      -8.2778    XYZ       0.1044
       YYZ     -22.8159    XZZ      -0.7440    YZZ      -0.1177
       ZZZ     -61.4824
    Hexadecapole Moments (Debye-Ang^3)
      XXXX    -287.7364   XXXY      -3.1099   XXYY     -59.4330
      XYYY      -0.3255   YYYY     -30.6554   XXXZ      -1.3084
      XXYZ      -0.0392   XYYZ      -0.6390   YYYZ      -0.0595
      XXZZ     -63.7448   XYZZ       0.5494   YYZZ     -30.8107
      XZZZ      -1.2366   YZZZ      -0.2467   ZZZZ    -156.8912
 -----------------------------------------------------------------
 Total job time:  175.44s(wall), 173.70s(cpu) 
 Tue Apr 30 22:42:47 2013

        *************************************************************
        *                                                           *
        *  Thank you very much for using Q-Chem.  Have a nice day.  *
        *                                                           *
        *************************************************************


0 sent ACK to 0 
now end server 0 ... 
