Process 0 of 1 is on cl188.stfx.acenet.ca - thread support 1
initial socket setup ...start
initial socket setup ...done 
now start server 0 ... 

cmd = /usr/bin/ssh clhead /usr/local/qchem/bin/get_hostid 1943537439 > /scratch/tmp/6063915.1.medium.q/qchem24094/lic.dat
                  Welcome to Q-Chem
     A Quantum Leap Into The Future Of Chemistry

 Y. Shao, L. Fusti-Molnar, Y. Jung, J. Kussmann, C. Ochsenfeld,
 S. T. Brown, A. T. B. Gilbert, L. V. Slipchenko,S. V. Levchenko,
 D. P. O'Neill, R. A. DiStasio Jr., R. C. Lochan, T. Wang,
 G. J. O. Beran, N. A. Besley, J. M. Herbert, C. Y. Lin,
 T. Van Voorhis, S. H. Chien, A. Sodt, R. P. Steele, 
 V. A. Rassolov, P. E. Maslen, P. P. Korambath, R. D. Adamson,
 B. Austin, J. Baker, E. F. C. Byrd, H. Dachsel, R. J. Doerksen,
 A. Dreuw, B. D. Dunietz, A. D. Dutoi, T. R. Furlani,
 S. R. Gwaltney, A. Heyden, S. Hirata, C.-P. Hsu, G. Kedziora,
 R. Z. Khaliullin, P. Klunzinger, A. M. Lee, M. S. Lee, W. Liang,
 I. Lotan, N. Nair, B. Peters, E. I. Proynov, P. A. Pieniazek, 
 Y. M. Rhee, J. Ritchie, E. Rosta, C. D. Sherrill, 
 A. C. Simmonett, J. E. Subotnik, H. L. Woodcock III,
 W. Zhang, A. T. Bell, A. K. Chakraborty, D. M. Chipman,
 F. J. Keil, A. Warshel, W. J. Hehre, H. F. Schaefer III,
 J. Kong, A. I. Krylov, P. M. W. Gill, M. Head-Gordon,
 Q-Chem, Version 3.1, Q-Chem, Inc., Pittsburgh, PA (2007).

 Additional authors for Version 3.1: 
 Z. Gan, Y. Zhao, N. E. Schultz, D. Truhlar, E. Epifanovsky and M. Oana.

 Additional authors for Version 3.2: 
 R. Baer, B. R. Brooks, D. Casanova, J.-D. Chai, C.-L. Cheng, 
 C. Cramer, D. Crittenden, A. Ghysels, G. Hawkins, E. G. Hohenstein, 
 C. Kelley, W. Kurlancheek, D. Liotard, E. Livshits, P. Manohar, 
 A. Marenich, D. Neuhauser, R. Olson, M. A. Rohrdanz, K. S. Thanthiriwatte, 
 A. J. W. Thom, V. Vanovschi, C. F. Williams, Q. Wu and Z.-Q. You. 


 Intel X86 Linux Version

 Q-chem begins on Sun Jul  7 09:39:20 2013  

 Parallel job on  1  processors
Processing $rem in /usr/local/qchem/config/preferences.

theFileMan(): MAXOPENFILES=974 MAX_SUB_FILE_NUM=16
Maximum size of a physical file is 2.0 GB, maximum size of a tmp-file is 32.0 GB


--------------------------------------------------------------
User input:
--------------------------------------------------------------

$molecule
-1,2
N          0.00000        0.00000        0.02589
N          0.00000        0.00000        1.13189
O          0.00000        0.00000        2.30331
$end

$comment
negative
$end

$xc_functional
C PBE   1.00
X wPBE  1.00
$end

$rem
SYMMETRY_DECOMPOSITION	0
exchange 		general
LRC_DFT                 true
BASIS                   g3large
omega			480
mem_static              760
max_scf_cycles          200
scf_final_print         1
sym_ignore              true
$end

--------------------------------------------------------------
 Writing REM_CC_EA            3
 ----------------------------------------------------
       Standard Nuclear Orientation (Angstroms)
    I     Atom         X            Y            Z
 ----------------------------------------------------
    1      N       0.000000     0.000000     0.025890
    2      N       0.000000     0.000000     1.131890
    3      O       0.000000     0.000000     2.303310
 ----------------------------------------------------
 Nuclear Repulsion Energy =    61.7540562782 hartrees
 There are       12 alpha and       11 beta electrons
 Requested basis set is G3large
 There are 30 shells and 126 basis functions

Total QAlloc Memory Limit   2000 MB
Mega-Array Size       743 MB
MEM_STATIC part       760 MB

                       Distance Matrix (Angstroms)
             N (  1)   N (  2)
   N (  2)  1.106000
   O (  3)  2.277420  1.171420
 
 A cutoff of  1.0D-08 yielded    434 shell pairs
 There are   7827 function pairs ( 10283 Cartesian)
Evaluating contribution to one-electron hamiltonian from nuclear
 Smallest overlap matrix eigenvalue = 4.25E-05

 Q-Chem warning in module mkSTV.C, line 194:

 Overlap eigenvalue is smaller than square root of threshold

 Multipole matrices computed through 2nd order

  Scale SEOQF with 1.000000e-01/1.000000e-01/1.000000e-01

 Standard Electronic Orientation quadrupole field applied
 Nucleus-field energy     =    -0.0000000055 hartrees
 Guess from superposition of atomic densities
 Warning:  Energy on first SCF cycle will be non-variational
 Long-range K will be added via erf
 Coulomb attenuation parameter = 0.48 bohr**(-1)
 An unrestricted Kohn-Sham SCF calculation will be
 performed using Pulay DIIS extrapolation
 Exchange:  wPBE + LR-HF      Correlation:  PBE
 Using SG-1 standard quadrature grid
 SCF converges when DIIS error is below 1.0E-05
 Requested basis set is G3large
 There are 30 shells and 126 basis functions
 A cutoff of  1.0D-08 yielded    434 shell pairs
 There are   7827 function pairs ( 10283 Cartesian)
 Warning!  Inaccurate integrated density:
   Number of electrons =    23
   Numerical integral  =    22.000008617596
   Relative error      =    -4.3477886191 %
 ---------------------------------------
  Cycle       Energy         DIIS Error
 ---------------------------------------
    1    -185.3113056953      4.86E-02
    2    -184.4197365853      7.06E-03
    3    -184.4567792454      6.46E-03
    4    -184.5098693930      7.75E-04
    5    -184.5110967774      4.22E-04
    6    -184.5116635182      2.01E-04
    7    -184.5119450101      1.02E-04
    8    -184.5120878327      5.15E-05
    9    -184.5122312046      2.79E-05
   10    -184.5122569349      6.62E-06 Convergence criterion met
 ---------------------------------------
 One-Electron    Energy =  -379.6661264278
 Total Coulomb   Energy =   155.9447033561
 Alpha Exchange  Energy =    -2.8096573370
 Beta  Exchange  Energy =    -2.5946204001
 DFT   Exchange  Energy =   -16.3686030367
 DFT Correlation Energy =    -0.7720093621
 Nuclear Repu.   Energy =    61.7540562727
 Nuclear Attr.   Energy =  -564.3697428691
 Kinetic         Energy =   184.7036164414
 <S^2> = 0.7536
 SCF time:  CPU 30.52 s  wall 30.94 s
 Final Alpha MO Eigenvalues
            1           2           3           4           5           6
    1 -18.7937611 -14.1091647 -14.0106620  -1.1278024  -0.9526729  -0.4742604
            7           8           9          10          11          12
    1  -0.4510451  -0.4359680  -0.3358552  -0.2177070  -0.1874546   0.0708624
           13          14          15          16          17
    1   0.2540041   0.3064177   0.3271905   0.3611195   0.3762633
 Final Beta MO Eigenvalues
            1           2           3           4           5           6
    1 -18.7916117 -14.0969311 -14.0066212  -1.1140172  -0.9449941  -0.4596401
            7           8           9          10          11          12
    1  -0.4274778  -0.4018595  -0.3173317  -0.1853807  -0.1688492   0.2568191
           13          14          15          16
    1   0.3101944   0.3328325   0.3417235   0.3781398
 Analysis of SCF Wavefunction
 
 --------------------------------------------------------------
                    Orbital Energies (a.u.)
 --------------------------------------------------------------
 
 Alpha MOs
 -- Occupied --
-18.794 -14.109 -14.011  -1.128  -0.953  -0.474  -0.451  -0.436
 -0.336  -0.218  -0.187   0.071
 -- Virtual --
  0.254   0.306   0.327   0.361   0.376   0.393   0.408   0.424
  0.481   0.506   0.516   0.519   0.587   0.693   0.934   1.061
  1.064   1.149   1.154   1.173   1.173   1.208   1.252   1.377
  1.424   1.426   1.490   1.506   1.514   1.540   1.541   1.566
  1.999   1.999   2.022   2.105   2.105   2.359   2.748   2.749
  2.931   3.131   3.658   3.658   3.665   3.665   3.780   3.953
  3.960   4.029   4.031   4.152   4.152   4.331   4.333   4.623
  4.738   4.738   4.790   4.791   4.995   5.008   5.024   5.027
  5.176   5.178   5.213   5.214   5.412   5.412   5.492   5.494
  5.803   6.036   6.037   6.168   6.409   6.410   7.117   7.117
  7.422   7.574   7.575   7.926   7.927   8.150   9.169  35.775
 36.516  37.616  37.618  37.995  37.998  38.703  39.767  40.636
 40.746  40.746  40.841  40.844  40.856  40.968  41.166  41.167
 42.005  43.944  44.007  44.147  44.147  44.423  46.035  46.036
 46.938  50.751
 
 Beta MOs
 -- Occupied --
-18.792 -14.097 -14.007  -1.114  -0.945  -0.460  -0.427  -0.402
 -0.317  -0.185  -0.169
 -- Virtual --
  0.257   0.310   0.333   0.342   0.378   0.385   0.410   0.430
  0.449   0.486   0.518   0.525   0.528   0.593   0.710   0.939
  1.066   1.083   1.160   1.178   1.185   1.185   1.214   1.259
  1.384   1.428   1.438   1.496   1.515   1.534   1.558   1.558
  1.578   2.012   2.012   2.028   2.108   2.124   2.367   2.751
  2.766   2.939   3.142   3.668   3.669   3.686   3.687   3.789
  3.973   4.006   4.033   4.055   4.176   4.176   4.334   4.352
  4.636   4.753   4.754   4.795   4.815   5.005   5.015   5.065
  5.067   5.208   5.208   5.215   5.232   5.419   5.419   5.494
  5.509   5.808   6.046   6.046   6.172   6.416   6.438   7.128
  7.128   7.429   7.574   7.586   7.928   7.946   8.157   9.172
 35.784  36.526  37.623  37.638  38.003  38.018  38.706  39.774
 40.662  40.758  40.771  40.845  40.862  40.867  40.974  41.167
 41.181  42.009  43.951  44.013  44.147  44.152  44.425  46.037
 46.043  46.938  50.753
 --------------------------------------------------------------
 
          Ground-State Mulliken Net Atomic Charges

     Atom                 Charge (a.u.)    Spin (a.u.)
  --------------------------------------------------------
      1 N                    -1.011877       0.750469
      2 N                     0.627420       0.100569
      3 O                    -0.615543       0.148962
  --------------------------------------------------------
  Sum of atomic charges =    -1.000000
  Sum of spin   charges =     1.000000

 -----------------------------------------------------------------
                    Cartesian Multipole Moments
 -----------------------------------------------------------------
    Charge (ESU x 10^10)
                -4.8032
    Dipole Moment (Debye)
         X       0.0090      Y       0.0125      Z      -3.6713
       Tot       3.6713
    Quadrupole Moments (Debye-Ang)
        XX     -19.3224     XY      -1.4705     YY     -20.3267
        XZ       0.0045     YZ       0.0067     ZZ     -33.2832
    Octapole Moments (Debye-Ang^2)
       XXX       0.0421    XXY       0.0196    XYY       0.0140
       YYY       0.0588    XXZ     -18.9315    XYZ       0.0261
       YYZ     -18.9139    XZZ       0.0278    YZZ       0.0398
       ZZZ     -95.8636
    Hexadecapole Moments (Debye-Ang^3)
      XXXX     -24.8332   XXXY      -3.5496   XXYY      -9.0858
      XYYY      -3.5495   YYYY     -29.6819   XXXZ       0.0244
      XXYZ       0.0117   XYYZ       0.0081   YYYZ       0.0351
      XXZZ     -49.0731   XYZZ      -2.6088   YYZZ     -50.8550
      XZZZ       0.0617   YZZZ       0.0898   ZZZZ    -352.2730
 -----------------------------------------------------------------
 Total job time:  31.08s(wall), 30.66s(cpu) 
 Sun Jul  7 09:39:52 2013

        *************************************************************
        *                                                           *
        *  Thank you very much for using Q-Chem.  Have a nice day.  *
        *                                                           *
        *************************************************************


0 sent ACK to 0 
now end server 0 ... 
 
**********************************************************************
Job 2 of 3 
**********************************************************************
 
Process 0 of 1 is on cl188.stfx.acenet.ca - thread support 1
initial socket setup ...start
initial socket setup ...done 
now start server 0 ... 

cmd = /usr/bin/ssh clhead /usr/local/qchem/bin/get_hostid 974392374 > /scratch/tmp/6063915.1.medium.q/qchem24094/lic.dat
                  Welcome to Q-Chem
     A Quantum Leap Into The Future Of Chemistry

 Y. Shao, L. Fusti-Molnar, Y. Jung, J. Kussmann, C. Ochsenfeld,
 S. T. Brown, A. T. B. Gilbert, L. V. Slipchenko,S. V. Levchenko,
 D. P. O'Neill, R. A. DiStasio Jr., R. C. Lochan, T. Wang,
 G. J. O. Beran, N. A. Besley, J. M. Herbert, C. Y. Lin,
 T. Van Voorhis, S. H. Chien, A. Sodt, R. P. Steele, 
 V. A. Rassolov, P. E. Maslen, P. P. Korambath, R. D. Adamson,
 B. Austin, J. Baker, E. F. C. Byrd, H. Dachsel, R. J. Doerksen,
 A. Dreuw, B. D. Dunietz, A. D. Dutoi, T. R. Furlani,
 S. R. Gwaltney, A. Heyden, S. Hirata, C.-P. Hsu, G. Kedziora,
 R. Z. Khaliullin, P. Klunzinger, A. M. Lee, M. S. Lee, W. Liang,
 I. Lotan, N. Nair, B. Peters, E. I. Proynov, P. A. Pieniazek, 
 Y. M. Rhee, J. Ritchie, E. Rosta, C. D. Sherrill, 
 A. C. Simmonett, J. E. Subotnik, H. L. Woodcock III,
 W. Zhang, A. T. Bell, A. K. Chakraborty, D. M. Chipman,
 F. J. Keil, A. Warshel, W. J. Hehre, H. F. Schaefer III,
 J. Kong, A. I. Krylov, P. M. W. Gill, M. Head-Gordon,
 Q-Chem, Version 3.1, Q-Chem, Inc., Pittsburgh, PA (2007).

 Additional authors for Version 3.1: 
 Z. Gan, Y. Zhao, N. E. Schultz, D. Truhlar, E. Epifanovsky and M. Oana.

 Additional authors for Version 3.2: 
 R. Baer, B. R. Brooks, D. Casanova, J.-D. Chai, C.-L. Cheng, 
 C. Cramer, D. Crittenden, A. Ghysels, G. Hawkins, E. G. Hohenstein, 
 C. Kelley, W. Kurlancheek, D. Liotard, E. Livshits, P. Manohar, 
 A. Marenich, D. Neuhauser, R. Olson, M. A. Rohrdanz, K. S. Thanthiriwatte, 
 A. J. W. Thom, V. Vanovschi, C. F. Williams, Q. Wu and Z.-Q. You. 


 Intel X86 Linux Version

 Q-chem begins on Sun Jul  7 09:39:54 2013  

 Parallel job on  1  processors
Processing $rem in /usr/local/qchem/config/preferences.

theFileMan(): MAXOPENFILES=974 MAX_SUB_FILE_NUM=16
Maximum size of a physical file is 2.0 GB, maximum size of a tmp-file is 32.0 GB


--------------------------------------------------------------
User input:
--------------------------------------------------------------

$molecule
0,1
N          0.00000        0.00000        0.02589
N          0.00000        0.00000        1.13189
O          0.00000        0.00000        2.30331
$end

$comment
neutral
$end

$xc_functional
C PBE   1.00
X wPBE  1.00
$end


$rem
SYMMETRY_DECOMPOSITION	0
LRC_DFT                 true
exchange 		general
BASIS                   g3large
omega			480
mem_static              760
max_scf_cycles          200
scf_final_print         1
sym_ignore              true
$end

--------------------------------------------------------------
 Writing REM_CC_EA            3
 ----------------------------------------------------
       Standard Nuclear Orientation (Angstroms)
    I     Atom         X            Y            Z
 ----------------------------------------------------
    1      N       0.000000     0.000000     0.025890
    2      N       0.000000     0.000000     1.131890
    3      O       0.000000     0.000000     2.303310
 ----------------------------------------------------
 Nuclear Repulsion Energy =    61.7540562782 hartrees
 There are       11 alpha and       11 beta electrons
 Requested basis set is G3large
 There are 30 shells and 126 basis functions

Total QAlloc Memory Limit   2000 MB
Mega-Array Size       743 MB
MEM_STATIC part       760 MB

                       Distance Matrix (Angstroms)
             N (  1)   N (  2)
   N (  2)  1.106000
   O (  3)  2.277420  1.171420
 
 A cutoff of  1.0D-08 yielded    434 shell pairs
 There are   7827 function pairs ( 10283 Cartesian)
Evaluating contribution to one-electron hamiltonian from nuclear
 Smallest overlap matrix eigenvalue = 4.25E-05

 Q-Chem warning in module mkSTV.C, line 194:

 Overlap eigenvalue is smaller than square root of threshold

 Multipole matrices computed through 2nd order

  Scale SEOQF with 1.000000e-01/1.000000e-01/1.000000e-01

 Standard Electronic Orientation quadrupole field applied
 Nucleus-field energy     =    -0.0000000055 hartrees
 Guess from superposition of atomic densities
 Warning:  Energy on first SCF cycle will be non-variational
 Long-range K will be added via erf
 Coulomb attenuation parameter = 0.48 bohr**(-1)
 A restricted Kohn-Sham SCF calculation will be
 performed using Pulay DIIS extrapolation
 Exchange:  wPBE + LR-HF      Correlation:  PBE
 Using SG-1 standard quadrature grid
 SCF converges when DIIS error is below 1.0E-05
 Requested basis set is G3large
 There are 30 shells and 126 basis functions
 A cutoff of  1.0D-08 yielded    434 shell pairs
 There are   7827 function pairs ( 10283 Cartesian)
 ---------------------------------------
  Cycle       Energy         DIIS Error
 ---------------------------------------
    1    -185.3113056953      4.86E-02
    2    -184.4966029760      8.14E-03
    3    -184.4871627472      9.30E-03
    4    -184.5909844131      5.97E-04
    5    -184.5912859651      4.81E-04
    6    -184.5915794365      1.76E-04
    7    -184.5916353316      2.80E-05
    8    -184.5916404258      9.05E-06 Convergence criterion met
 ---------------------------------------
 One-Electron    Energy =  -372.8878270605
 Total Coulomb   Energy =   148.7400179965
 Alpha Exchange  Energy =    -2.6093870650
 Beta  Exchange  Energy =    -2.6093870650
 DFT   Exchange  Energy =   -16.2341377609
 DFT Correlation Energy =    -0.7449757436
 Nuclear Repu.   Energy =    61.7540562727
 Nuclear Attr.   Energy =  -557.0458160764
 Kinetic         Energy =   184.1579890159
 SCF time:  CPU 20.59 s  wall 20.90 s
 Final Alpha MO Eigenvalues
            1           2           3           4           5           6
    1 -19.0972485 -14.4875060 -14.3425634  -1.4389107  -1.2744468  -0.7555377
            7           8           9          10          11          12
    1  -0.7428920  -0.7428873  -0.6348734  -0.4786081  -0.4785867   0.0785434
           13          14          15          16
    1   0.0867084   0.0867114   0.1391807   0.1641341
 Analysis of SCF Wavefunction
 
 --------------------------------------------------------------
                    Orbital Energies (a.u.)
 --------------------------------------------------------------
 
 Alpha MOs
 -- Occupied --
-19.097 -14.488 -14.343  -1.439  -1.274  -0.756  -0.743  -0.743
 -0.635  -0.479  -0.479
 -- Virtual --
  0.079   0.087   0.087   0.139   0.164   0.164   0.215   0.220
  0.220   0.288   0.309   0.332   0.332   0.391   0.452   0.692
  0.801   0.801   0.882   0.882   0.900   0.900   0.930   0.986
  1.140   1.179   1.179   1.211   1.226   1.226   1.261   1.261
  1.311   1.728   1.728   1.765   1.825   1.825   2.073   2.471
  2.471   2.665   2.836   3.347   3.347   3.356   3.356   3.470
  3.641   3.641   3.720   3.720   3.846   3.846   4.022   4.022
  4.309   4.433   4.433   4.484   4.484   4.690   4.705   4.708
  4.708   4.863   4.864   4.911   4.911   5.128   5.128   5.200
  5.200   5.503   5.741   5.741   5.860   6.091   6.091   6.829
  6.829   7.118   7.286   7.286   7.617   7.617   7.842   8.853
 35.424  36.164  37.264  37.264  37.647  37.647  38.369  39.405
 40.266  40.376  40.414  40.481  40.481  40.524  40.609  40.823
 40.823  41.655  43.643  43.706  43.844  43.844  44.118  45.734
 45.734  46.634  50.448
 --------------------------------------------------------------
 
          Ground-State Mulliken Net Atomic Charges

     Atom                 Charge (a.u.)
  ----------------------------------------
      1 N                    -0.140851
      2 N                     0.404619
      3 O                    -0.263768
  ----------------------------------------
  Sum of atomic charges =     0.000000

 -----------------------------------------------------------------
                    Cartesian Multipole Moments
 -----------------------------------------------------------------
    Charge (ESU x 10^10)
                 0.0000
    Dipole Moment (Debye)
         X       0.0000      Y       0.0000      Z      -0.2513
       Tot       0.2513
    Quadrupole Moments (Debye-Ang)
        XX     -15.1801     XY       0.0002     YY     -15.1800
        XZ       0.0004     YZ       0.0002     ZZ     -19.8947
    Octapole Moments (Debye-Ang^2)
       XXX       0.0000    XXY       0.0000    XYY       0.0000
       YYY       0.0000    XXZ     -17.4227    XYZ      -0.0010
       YYZ     -17.4230    XZZ       0.0009    YZZ       0.0004
       ZZZ     -66.2399
    Hexadecapole Moments (Debye-Ang^3)
      XXXX     -12.1241   XXXY       0.0003   XXYY      -4.0413
      XYYY       0.0003   YYYY     -12.1240   XXXZ       0.0007
      XXYZ       0.0001   XYYZ       0.0002   YYYZ       0.0003
      XXZZ     -39.0108   XYZZ      -0.0021   YYZZ     -39.0114
      XZZZ       0.0025   YZZZ       0.0011   ZZZZ    -252.2815
 -----------------------------------------------------------------
 Total job time:  21.03s(wall), 20.71s(cpu) 
 Sun Jul  7 09:40:15 2013

        *************************************************************
        *                                                           *
        *  Thank you very much for using Q-Chem.  Have a nice day.  *
        *                                                           *
        *************************************************************


0 sent ACK to 0 
now end server 0 ... 
 
**********************************************************************
Job 3 of 3 
**********************************************************************
 
Process 0 of 1 is on cl188.stfx.acenet.ca - thread support 1
initial socket setup ...start
initial socket setup ...done 
now start server 0 ... 

cmd = /usr/bin/ssh clhead /usr/local/qchem/bin/get_hostid 117908486 > /scratch/tmp/6063915.1.medium.q/qchem24094/lic.dat
                  Welcome to Q-Chem
     A Quantum Leap Into The Future Of Chemistry

 Y. Shao, L. Fusti-Molnar, Y. Jung, J. Kussmann, C. Ochsenfeld,
 S. T. Brown, A. T. B. Gilbert, L. V. Slipchenko,S. V. Levchenko,
 D. P. O'Neill, R. A. DiStasio Jr., R. C. Lochan, T. Wang,
 G. J. O. Beran, N. A. Besley, J. M. Herbert, C. Y. Lin,
 T. Van Voorhis, S. H. Chien, A. Sodt, R. P. Steele, 
 V. A. Rassolov, P. E. Maslen, P. P. Korambath, R. D. Adamson,
 B. Austin, J. Baker, E. F. C. Byrd, H. Dachsel, R. J. Doerksen,
 A. Dreuw, B. D. Dunietz, A. D. Dutoi, T. R. Furlani,
 S. R. Gwaltney, A. Heyden, S. Hirata, C.-P. Hsu, G. Kedziora,
 R. Z. Khaliullin, P. Klunzinger, A. M. Lee, M. S. Lee, W. Liang,
 I. Lotan, N. Nair, B. Peters, E. I. Proynov, P. A. Pieniazek, 
 Y. M. Rhee, J. Ritchie, E. Rosta, C. D. Sherrill, 
 A. C. Simmonett, J. E. Subotnik, H. L. Woodcock III,
 W. Zhang, A. T. Bell, A. K. Chakraborty, D. M. Chipman,
 F. J. Keil, A. Warshel, W. J. Hehre, H. F. Schaefer III,
 J. Kong, A. I. Krylov, P. M. W. Gill, M. Head-Gordon,
 Q-Chem, Version 3.1, Q-Chem, Inc., Pittsburgh, PA (2007).

 Additional authors for Version 3.1: 
 Z. Gan, Y. Zhao, N. E. Schultz, D. Truhlar, E. Epifanovsky and M. Oana.

 Additional authors for Version 3.2: 
 R. Baer, B. R. Brooks, D. Casanova, J.-D. Chai, C.-L. Cheng, 
 C. Cramer, D. Crittenden, A. Ghysels, G. Hawkins, E. G. Hohenstein, 
 C. Kelley, W. Kurlancheek, D. Liotard, E. Livshits, P. Manohar, 
 A. Marenich, D. Neuhauser, R. Olson, M. A. Rohrdanz, K. S. Thanthiriwatte, 
 A. J. W. Thom, V. Vanovschi, C. F. Williams, Q. Wu and Z.-Q. You. 


 Intel X86 Linux Version

 Q-chem begins on Sun Jul  7 09:40:18 2013  

 Parallel job on  1  processors
Processing $rem in /usr/local/qchem/config/preferences.

theFileMan(): MAXOPENFILES=974 MAX_SUB_FILE_NUM=16
Maximum size of a physical file is 2.0 GB, maximum size of a tmp-file is 32.0 GB


--------------------------------------------------------------
User input:
--------------------------------------------------------------

$molecule
1,2
N          0.00000        0.00000        0.02589
N          0.00000        0.00000        1.13189
O          0.00000        0.00000        2.30331
$end

$comment
positive
$end

$xc_functional
C PBE   1.00
X wPBE  1.00
$end

$rem
SYMMETRY_DECOMPOSITION	0
LRC_DFT                 true
exchange 		general
BASIS                   g3large
omega			480
mem_static              760
max_scf_cycles          200
scf_final_print         1
sym_ignore              true
$end

--------------------------------------------------------------
 Writing REM_CC_EA            3
 ----------------------------------------------------
       Standard Nuclear Orientation (Angstroms)
    I     Atom         X            Y            Z
 ----------------------------------------------------
    1      N       0.000000     0.000000     0.025890
    2      N       0.000000     0.000000     1.131890
    3      O       0.000000     0.000000     2.303310
 ----------------------------------------------------
 Nuclear Repulsion Energy =    61.7540562782 hartrees
 There are       11 alpha and       10 beta electrons
 Requested basis set is G3large
 There are 30 shells and 126 basis functions

Total QAlloc Memory Limit   2000 MB
Mega-Array Size       743 MB
MEM_STATIC part       760 MB

                       Distance Matrix (Angstroms)
             N (  1)   N (  2)
   N (  2)  1.106000
   O (  3)  2.277420  1.171420
 
 A cutoff of  1.0D-08 yielded    434 shell pairs
 There are   7827 function pairs ( 10283 Cartesian)
Evaluating contribution to one-electron hamiltonian from nuclear
 Smallest overlap matrix eigenvalue = 4.25E-05

 Q-Chem warning in module mkSTV.C, line 194:

 Overlap eigenvalue is smaller than square root of threshold

 Multipole matrices computed through 2nd order

  Scale SEOQF with 1.000000e-01/1.000000e-01/1.000000e-01

 Standard Electronic Orientation quadrupole field applied
 Nucleus-field energy     =    -0.0000000055 hartrees
 Guess from superposition of atomic densities
 Warning:  Energy on first SCF cycle will be non-variational
 Long-range K will be added via erf
 Coulomb attenuation parameter = 0.48 bohr**(-1)
 An unrestricted Kohn-Sham SCF calculation will be
 performed using Pulay DIIS extrapolation
 Exchange:  wPBE + LR-HF      Correlation:  PBE
 Using SG-1 standard quadrature grid
 SCF converges when DIIS error is below 1.0E-05
 Requested basis set is G3large
 There are 30 shells and 126 basis functions
 A cutoff of  1.0D-08 yielded    434 shell pairs
 There are   7827 function pairs ( 10283 Cartesian)
 Warning!  Inaccurate integrated density:
   Number of electrons =    21
   Numerical integral  =    22.000008617596
   Relative error      =     4.7619457981 %
 ---------------------------------------
  Cycle       Energy         DIIS Error
 ---------------------------------------
    1    -185.3113056953      4.86E-02
    2    -183.9653523174      8.67E-03
    3    -184.0218443597      8.36E-03
    4    -184.1079209580      1.50E-03
    5    -184.1117774215      5.16E-04
    6    -184.1126734468      3.44E-04
    7    -184.1130945142      7.18E-05
    8    -184.1133048364      3.66E-05
    9    -184.1133520208      1.19E-05
   10    -184.1133604391      2.85E-06 Convergence criterion met
 ---------------------------------------
 One-Electron    Energy =  -364.6328072317
 Total Coulomb   Energy =   140.5848215068
 Alpha Exchange  Energy =    -2.6356402312
 Beta  Exchange  Energy =    -2.3894916659
 DFT   Exchange  Energy =   -16.0927901479
 DFT Correlation Energy =    -0.7015089419
 Nuclear Repu.   Energy =    61.7540562727
 Nuclear Attr.   Energy =  -548.4686570698
 Kinetic         Energy =   183.8358498381
 <S^2> = 0.7855
 SCF time:  CPU 30.31 s  wall 30.92 s
 Final Alpha MO Eigenvalues
            1           2           3           4           5           6
    1 -19.5470075 -14.8319762 -14.7473772  -1.8277032  -1.6616422  -1.1418200
            7           8           9          10          11          12
    1  -1.1245061  -1.0978551  -0.9812145  -0.9068577  -0.8580206  -0.2625990
           13          14          15          16
    1  -0.2438411  -0.1529320  -0.0531670  -0.0470971
 Final Beta MO Eigenvalues
            1           2           3           4           5           6
    1 -19.5282098 -14.8365250 -14.7381073  -1.8055113  -1.6299212  -1.1136491
            7           8           9          10          11          12
    1  -1.0946776  -1.0557814  -0.9638534  -0.8387149  -0.4770921  -0.2407151
           13          14          15
    1  -0.1941634  -0.1483948  -0.0461758
 Analysis of SCF Wavefunction
 
 --------------------------------------------------------------
                    Orbital Energies (a.u.)
 --------------------------------------------------------------
 
 Alpha MOs
 -- Occupied --
-19.547 -14.832 -14.747  -1.828  -1.662  -1.142  -1.125  -1.098
 -0.981  -0.907  -0.858
 -- Virtual --
 -0.263  -0.244  -0.153  -0.053  -0.047  -0.036  -0.015   0.013
  0.028   0.032   0.102   0.129   0.134   0.187   0.213   0.434
  0.513   0.522   0.558   0.558   0.616   0.627   0.628   0.687
  0.840   0.849   0.864   0.887   0.901   0.908   0.929   0.930
  1.026   1.368   1.369   1.444   1.484   1.505   1.773   2.118
  2.140   2.334   2.480   2.990   2.991   3.011   3.011   3.126
  3.311   3.313   3.345   3.370   3.497   3.497   3.644   3.665
  3.948   4.072   4.073   4.115   4.132   4.337   4.346   4.356
  4.359   4.489   4.490   4.504   4.540   4.708   4.709   4.794
  4.831   5.110   5.348   5.351   5.492   5.706   5.727   6.378
  6.378   6.736   6.854   6.898   7.216   7.244   7.466   8.466
 35.051  35.791  36.887  36.894  37.268  37.274  37.975  39.042
 39.921  40.005  40.031  40.115  40.117  40.120  40.243  40.431
 40.440  41.279  43.177  43.239  43.377  43.411  43.674  45.262
 45.295  46.194  50.005
 
 Beta MOs
 -- Occupied --
-19.528 -14.837 -14.738  -1.806  -1.630  -1.114  -1.095  -1.056
 -0.964  -0.839
 -- Virtual --
 -0.477  -0.241  -0.194  -0.148  -0.046  -0.046  -0.035  -0.009
  0.015   0.033   0.033   0.104   0.135   0.135   0.190   0.216
  0.441   0.520   0.522   0.566   0.566   0.630   0.631   0.634
  0.695   0.856   0.870   0.878   0.908   0.913   0.918   0.951
  0.953   1.037   1.401   1.404   1.462   1.509   1.510   1.778
  2.143   2.144   2.343   2.495   3.002   3.003   3.018   3.018
  3.131   3.297   3.306   3.379   3.385   3.512   3.512   3.668
  3.669   3.956   4.085   4.086   4.133   4.134   4.347   4.358
  4.359   4.364   4.516   4.519   4.552   4.563   4.767   4.768
  4.842   4.852   5.138   5.378   5.381   5.501   5.729   5.730
  6.457   6.467   6.756   6.909   6.921   7.250   7.254   7.477
  8.478  35.054  35.794  36.895  36.896  37.275  37.276  37.980
 39.043  39.914  40.024  40.024  40.118  40.119  40.134  40.243
 40.441  40.442  41.281  43.225  43.289  43.416  43.425  43.695
 45.307  45.318  46.207  50.022
 --------------------------------------------------------------
 
          Ground-State Mulliken Net Atomic Charges

     Atom                 Charge (a.u.)    Spin (a.u.)
  --------------------------------------------------------
      1 N                     0.341499       0.436776
      2 N                     0.407334      -0.172087
      3 O                     0.251167       0.735310
  --------------------------------------------------------
  Sum of atomic charges =     1.000000
  Sum of spin   charges =     1.000000

 -----------------------------------------------------------------
                    Cartesian Multipole Moments
 -----------------------------------------------------------------
    Charge (ESU x 10^10)
                 4.8032
    Dipole Moment (Debye)
         X       0.0006      Y      -0.0004      Z       5.6363
       Tot       5.6363
    Quadrupole Moments (Debye-Ang)
        XX     -12.6301     XY      -0.4801     YY     -12.8831
        XZ      -0.0002     YZ       0.0002     ZZ      -4.1539
    Octapole Moments (Debye-Ang^2)
       XXX       0.0005    XXY      -0.0001    XYY       0.0001
       YYY      -0.0003    XXZ     -14.4315    XYZ      -0.6691
       YYZ     -14.7842    XZZ       0.0001    YZZ      -0.0001
       ZZZ     -27.6669
    Hexadecapole Moments (Debye-Ang^3)
      XXXX      -8.4851   XXXY      -0.2644   XXYY      -2.8750
      XYYY      -0.2645   YYYY      -8.7639   XXXZ      -0.0001
      XXYZ       0.0000   XYYZ       0.0000   YYYZ       0.0001
      XXZZ     -30.8908   XYZZ      -1.6320   YYZZ     -31.7510
      XZZZ       0.0000   YZZZ      -0.0001   ZZZZ    -145.8837
 -----------------------------------------------------------------
 Total job time:  31.05s(wall), 30.43s(cpu) 
 Sun Jul  7 09:40:49 2013

        *************************************************************
        *                                                           *
        *  Thank you very much for using Q-Chem.  Have a nice day.  *
        *                                                           *
        *************************************************************


0 sent ACK to 0 
now end server 0 ... 
