Process 0 of 1 is on cl248.stfx.acenet.ca - thread support 1
initial socket setup ...start
initial socket setup ...done 
now start server 0 ... 

cmd = /usr/bin/ssh clhead /usr/local/qchem/bin/get_hostid 646699435 > /globalscratch/itamblyn/bnl/g297_b3lyp_neut_g03Large_worked/g2g71055/omega300/qchem2995/lic.dat
                  Welcome to Q-Chem
     A Quantum Leap Into The Future Of Chemistry

 Y. Shao, L. Fusti-Molnar, Y. Jung, J. Kussmann, C. Ochsenfeld,
 S. T. Brown, A. T. B. Gilbert, L. V. Slipchenko,S. V. Levchenko,
 D. P. O'Neill, R. A. DiStasio Jr., R. C. Lochan, T. Wang,
 G. J. O. Beran, N. A. Besley, J. M. Herbert, C. Y. Lin,
 T. Van Voorhis, S. H. Chien, A. Sodt, R. P. Steele, 
 V. A. Rassolov, P. E. Maslen, P. P. Korambath, R. D. Adamson,
 B. Austin, J. Baker, E. F. C. Byrd, H. Dachsel, R. J. Doerksen,
 A. Dreuw, B. D. Dunietz, A. D. Dutoi, T. R. Furlani,
 S. R. Gwaltney, A. Heyden, S. Hirata, C.-P. Hsu, G. Kedziora,
 R. Z. Khaliullin, P. Klunzinger, A. M. Lee, M. S. Lee, W. Liang,
 I. Lotan, N. Nair, B. Peters, E. I. Proynov, P. A. Pieniazek, 
 Y. M. Rhee, J. Ritchie, E. Rosta, C. D. Sherrill, 
 A. C. Simmonett, J. E. Subotnik, H. L. Woodcock III,
 W. Zhang, A. T. Bell, A. K. Chakraborty, D. M. Chipman,
 F. J. Keil, A. Warshel, W. J. Hehre, H. F. Schaefer III,
 J. Kong, A. I. Krylov, P. M. W. Gill, M. Head-Gordon,
 Q-Chem, Version 3.1, Q-Chem, Inc., Pittsburgh, PA (2007).

 Additional authors for Version 3.1: 
 Z. Gan, Y. Zhao, N. E. Schultz, D. Truhlar, E. Epifanovsky and M. Oana.

 Additional authors for Version 3.2: 
 R. Baer, B. R. Brooks, D. Casanova, J.-D. Chai, C.-L. Cheng, 
 C. Cramer, D. Crittenden, A. Ghysels, G. Hawkins, E. G. Hohenstein, 
 C. Kelley, W. Kurlancheek, D. Liotard, E. Livshits, P. Manohar, 
 A. Marenich, D. Neuhauser, R. Olson, M. A. Rohrdanz, K. S. Thanthiriwatte, 
 A. J. W. Thom, V. Vanovschi, C. F. Williams, Q. Wu and Z.-Q. You. 


 Intel X86 Linux Version

 Q-chem begins on Tue Apr 12 21:15:42 2011  

 Parallel job on  1  processors
Processing $rem in /usr/local/qchem/config/preferences.

theFileMan(): MAXOPENFILES=974 MAX_SUB_FILE_NUM=16
Maximum size of a physical file is 2.0 GB, maximum size of a tmp-file is 32.0 GB


--------------------------------------------------------------
User input:
--------------------------------------------------------------

$molecule
-1,2
B
X,1,1.
X,1,1.,2,90.
Cl,1,R2,2,ALPHA,3,0.,0
Cl,1,R2,2,ALPHA,3,120.,0
Cl,1,R2,2,ALPHA,3,-120.,0

 R2=1.75274159
 ALPHA=90.

$end

$comment
negative
$end

$xc_functional
   X HF 1.0
   X BNL 1.0
   C LYP 1.0
$end

$rem
SYMMETRY_DECOMPOSITION	0
exchange 		general
BASIS                   g3large
omega			300
separate_jk		true
mem_static              760
max_scf_cycles          200
scf_final_print         1
sym_ignore              true
$end

--------------------------------------------------------------
 Writing REM_CC_EA            4
 ----------------------------------------------------
       Standard Nuclear Orientation (Angstroms)
    I     Atom         X            Y            Z
 ----------------------------------------------------
    1      B       0.000000     0.000000     0.000000
    2      Cl      1.752742     0.000000     0.000000
    3      Cl     -0.876371    -1.517919     0.000000
    4      Cl     -0.876371     1.517919     0.000000
 ----------------------------------------------------
 Nuclear Repulsion Energy =   228.1149461282 hartrees
 There are       29 alpha and       28 beta electrons
 Requested basis set is G3large
 There are 67 shells and 240 basis functions

Total QAlloc Memory Limit   2000 MB
Mega-Array Size       743 MB
MEM_STATIC part       760 MB

                       Distance Matrix (Angstroms)
             B (  1)   Cl(  2)   Cl(  3)
   Cl(  2)  1.752742
   Cl(  3)  1.752742  3.035837
   Cl(  4)  1.752742  3.035837  3.035837
 
 A cutoff of  1.0D-08 yielded   1837 shell pairs
 There are  24483 function pairs ( 34446 Cartesian)
Evaluating contribution to one-electron hamiltonian from nuclear
 Smallest overlap matrix eigenvalue = 8.96E-04
 Multipole matrices computed through 2nd order

  Scale SEOQF with 1.000000e-01/1.000000e-01/1.000000e-01

 Standard Electronic Orientation quadrupole field applied
 Nucleus-field energy     =     0.0000000084 hartrees
 Guess from superposition of atomic densities
 Warning:  Energy on first SCF cycle will be non-variational
 An unrestricted hybrid HF-DFT SCF calculation will be
 performed using Pulay DIIS extrapolation
 Exchange:     1.0000 Hartree-Fock + 1.0000 BNL
 Correlation:  1.0000 LYP
 Using SG-1 standard quadrature grid
 SCF converges when DIIS error is below 1.0E-05
 Warning!  Inaccurate integrated density:
   Number of electrons =    57
   Numerical integral  =    55.999955102590
   Relative error      =    -1.7544647323 %
 ---------------------------------------
  Cycle       Energy         DIIS Error
 ---------------------------------------
    1   -1399.9101397625      2.43E-02
    2   -1399.3465644553      1.76E-03
    3   -1399.3757126586      1.08E-03
    4   -1399.3813910120      2.12E-04
    5   -1399.3817173697      3.91E-05
    6   -1399.3817802325      1.08E-05
    7   -1399.3817937896      5.41E-06 Convergence criterion met
 ---------------------------------------
 One-Electron    Energy = -2405.0092416308
 Total Coulomb   Energy =   860.2135591463
 Alpha Exchange  Energy =    -4.6251036964
 Beta  Exchange  Energy =    -4.4796183484
 DFT   Exchange  Energy =   -71.2825281784
 DFT Correlation Energy =    -2.3138072184
 Nuclear Repu.   Energy =   228.1149461366
 Nuclear Attr.   Energy = -3802.4759312088
 Kinetic         Energy =  1397.4666895780
 <S^2> = 0.7534
 SCF time:  CPU 174.87 s  wall 184.44 s
 Final Alpha MO Eigenvalues
            1           2           3           4           5           6
    1-100.2404828-100.2403915-100.2403746  -9.0933760  -9.0932960  -9.0932723
            7           8           9          10          11          12
    1  -6.9460635  -6.9460490  -6.9460387  -6.9409956  -6.9409276  -6.9409152
           13          14          15          16          17          18
    1  -6.9405461  -6.9403403  -6.9403273  -6.4214383  -0.7631331  -0.7175955
           19          20          21          22          23          24
    1  -0.7175711  -0.4080011  -0.3310560  -0.3310492  -0.2992518  -0.2344432
           25          26          27          28          29          30
    1  -0.2344289  -0.2332840  -0.2332624  -0.2012749  -0.0003188   0.1672581
           31          32          33          34
    1   0.1766078   0.1766164   0.2010194   0.2495815
 Final Beta MO Eigenvalues
            1           2           3           4           5           6
    1-100.2401794-100.2400875-100.2400719  -9.0929623  -9.0928828  -9.0928583
            7           8           9          10          11          12
    1  -6.9459776  -6.9459682  -6.9459643  -6.9403009  -6.9401109  -6.9400981
           13          14          15          16          17          18
    1  -6.9398747  -6.9398050  -6.9397947  -6.4108661  -0.7575719  -0.7142913
           19          20          21          22          23          24
    1  -0.7142655  -0.3912412  -0.3255952  -0.3255896  -0.2804110  -0.2330456
           25          26          27          28          29          30
    1  -0.2330325  -0.2218382  -0.2218150  -0.2000833   0.1663386   0.1756678
           31          32          33
    1   0.1756756   0.1985013   0.2492432
 Analysis of SCF Wavefunction
 
 --------------------------------------------------------------
                    Orbital Energies (a.u.)
 --------------------------------------------------------------
 
 Alpha MOs
 -- Occupied --
*******-100.240-100.240  -9.093  -9.093  -9.093  -6.946  -6.946
 -6.946  -6.941  -6.941  -6.941  -6.941  -6.940  -6.940  -6.421
 -0.763  -0.718  -0.718  -0.408  -0.331  -0.331  -0.299  -0.234
 -0.234  -0.233  -0.233  -0.201   0.000
 -- Virtual --
  0.167   0.177   0.177   0.201   0.250   0.250   0.255   0.271
  0.271   0.297   0.305   0.305   0.316   0.322   0.340   0.354
  0.354   0.408   0.409   0.477   0.477   0.502   0.529   0.529
  0.586   0.586   0.593   0.593   0.593   0.602   0.632   0.658
  0.670   0.706   0.706   0.714   0.729   0.729   0.754   0.754
  0.821   0.821   0.852   0.897   0.918   0.925   0.926   0.993
  1.017   1.017   1.100   1.100   1.281   1.281   1.315   1.319
  1.335   1.335   1.337   1.337   1.352   1.358   1.358   1.369
  1.369   1.381   1.395   1.408   1.408   1.430   1.452   1.476
  1.476   1.586   1.597   1.597   1.597   1.597   1.597   1.657
  1.668   1.742   1.742   1.844   1.845   1.875   1.875   1.926
  1.927   1.969   2.016   2.118   2.240   2.240   2.392   2.395
  2.395   2.406   2.434   2.510   2.510   2.587   2.587   2.686
  2.686   2.691   2.758   2.758   2.784   2.868   2.868   2.939
  3.137   3.276   3.276   4.573   4.586   4.587   4.587   4.587
  4.618   4.643   4.650   4.650   4.663   4.674   4.674   4.701
  4.796   4.796   4.800   4.805   4.805   4.829   4.829   4.901
  5.224   5.224   5.253   5.275   5.304   5.304   5.390   5.391
  5.402   5.423   5.424   5.611   5.718   5.940   5.942  10.061
 10.098  10.098  15.135  19.145  19.695  19.695  20.736  20.737
 20.737  20.772  20.863  20.863  21.015  21.015  21.062  27.270
 27.292  27.295  27.351  27.362  27.362  27.383  27.396  27.425
 27.425  27.434  27.475  27.489  27.569  27.603  36.135  36.187
 36.720  36.720  36.787  37.015  37.019  37.020  37.020  37.021
 37.021  37.024  37.027  37.027  37.030  37.030  37.031  37.035
 37.044  37.046  37.047  37.047  37.049  37.051  37.053  37.065
216.534 216.585 216.585
 
 Beta MOs
 -- Occupied --
*******-100.240-100.240  -9.093  -9.093  -9.093  -6.946  -6.946
 -6.946  -6.940  -6.940  -6.940  -6.940  -6.940  -6.940  -6.411
 -0.758  -0.714  -0.714  -0.391  -0.326  -0.326  -0.280  -0.233
 -0.233  -0.222  -0.222  -0.200
 -- Virtual --
  0.166   0.176   0.176   0.199   0.249   0.249   0.254   0.254
  0.269   0.269   0.297   0.305   0.305   0.316   0.326   0.354
  0.354   0.360   0.415   0.415   0.484   0.484   0.505   0.532
  0.532   0.588   0.588   0.596   0.604   0.604   0.621   0.635
  0.659   0.680   0.707   0.707   0.729   0.730   0.730   0.757
  0.757   0.827   0.827   0.856   0.898   0.930   0.930   0.932
  1.003   1.030   1.030   1.104   1.104   1.285   1.285   1.316
  1.321   1.338   1.338   1.340   1.340   1.354   1.361   1.361
  1.371   1.371   1.381   1.398   1.412   1.412   1.434   1.454
  1.480   1.480   1.589   1.598   1.599   1.601   1.604   1.604
  1.666   1.683   1.744   1.744   1.848   1.848   1.880   1.880
  1.929   1.929   1.987   2.018   2.158   2.261   2.261   2.398
  2.403   2.403   2.414   2.435   2.541   2.541   2.601   2.601
  2.689   2.689   2.725   2.781   2.781   2.803   2.880   2.880
  2.945   3.143   3.283   3.283   4.577   4.590   4.590   4.590
  4.590   4.621   4.646   4.653   4.654   4.665   4.676   4.676
  4.705   4.798   4.798   4.801   4.808   4.808   4.830   4.830
  4.902   5.226   5.226   5.254   5.277   5.306   5.306   5.393
  5.393   5.404   5.423   5.425   5.613   5.719   5.943   5.944
 10.062  10.100  10.100  15.151  19.164  19.702  19.702  20.736
 20.739  20.739  20.774  20.864  20.864  21.015  21.015  21.062
 27.271  27.293  27.296  27.351  27.362  27.363  27.384  27.396
 27.426  27.426  27.435  27.475  27.489  27.569  27.603  36.152
 36.192  36.734  36.734  36.792  37.015  37.019  37.020  37.020
 37.021  37.022  37.024  37.027  37.028  37.030  37.030  37.032
 37.036  37.044  37.046  37.047  37.048  37.049  37.051  37.053
 37.065 216.535 216.586 216.586
 --------------------------------------------------------------
 
          Ground-State Mulliken Net Atomic Charges

     Atom                 Charge (a.u.)    Spin (a.u.)
  --------------------------------------------------------
      1 B                     0.047624       0.807749
      2 Cl                   -0.348963       0.064112
      3 Cl                   -0.349342       0.064058
      4 Cl                   -0.349319       0.064081
  --------------------------------------------------------
  Sum of atomic charges =    -1.000000
  Sum of spin   charges =     1.000000

 -----------------------------------------------------------------
                    Cartesian Multipole Moments
 -----------------------------------------------------------------
    Charge (ESU x 10^10)
                -4.8032
    Dipole Moment (Debye)
         X       0.0003      Y      -0.0002      Z      -0.0001
       Tot       0.0004
    Quadrupole Moments (Debye-Ang)
        XX     -56.7854     XY       0.0002     YY     -56.7873
        XZ       0.0007     YZ       0.0016     ZZ     -49.2042
    Octapole Moments (Debye-Ang^2)
       XXX      -5.9852    XXY      -0.0007    XYY       5.9874
       YYY      -0.0023    XXZ      -0.0006    XYZ      -0.0028
       YYZ      -0.0030    XZZ       0.0006    YZZ      -0.0005
       ZZZ       0.0005
    Hexadecapole Moments (Debye-Ang^3)
      XXXX    -472.4249   XXXY      -0.0006   XXYY    -157.4816
      XYYY       0.0012   YYYY    -472.4578   XXXZ       0.0059
      XXYZ       0.0060   XYYZ       0.0040   YYYZ       0.0180
      XXZZ     -91.3125   XYZZ       0.0005   YYZZ     -91.3148
      XZZZ       0.0021   YZZZ       0.0053   ZZZZ     -71.0995
 -----------------------------------------------------------------
 Total job time:  185.57s(wall), 175.24s(cpu) 
 Tue Apr 12 21:18:48 2011

        *************************************************************
        *                                                           *
        *  Thank you very much for using Q-Chem.  Have a nice day.  *
        *                                                           *
        *************************************************************


0 sent ACK to 0 
now end server 0 ... 
 
**********************************************************************
Job 2 of 3 
**********************************************************************
 
Process 0 of 1 is on cl248.stfx.acenet.ca - thread support 1
initial socket setup ...start
initial socket setup ...done 
now start server 0 ... 

cmd = /usr/bin/ssh clhead /usr/local/qchem/bin/get_hostid 1456230338 > /globalscratch/itamblyn/bnl/g297_b3lyp_neut_g03Large_worked/g2g71055/omega300/qchem2995/lic.dat
                  Welcome to Q-Chem
     A Quantum Leap Into The Future Of Chemistry

 Y. Shao, L. Fusti-Molnar, Y. Jung, J. Kussmann, C. Ochsenfeld,
 S. T. Brown, A. T. B. Gilbert, L. V. Slipchenko,S. V. Levchenko,
 D. P. O'Neill, R. A. DiStasio Jr., R. C. Lochan, T. Wang,
 G. J. O. Beran, N. A. Besley, J. M. Herbert, C. Y. Lin,
 T. Van Voorhis, S. H. Chien, A. Sodt, R. P. Steele, 
 V. A. Rassolov, P. E. Maslen, P. P. Korambath, R. D. Adamson,
 B. Austin, J. Baker, E. F. C. Byrd, H. Dachsel, R. J. Doerksen,
 A. Dreuw, B. D. Dunietz, A. D. Dutoi, T. R. Furlani,
 S. R. Gwaltney, A. Heyden, S. Hirata, C.-P. Hsu, G. Kedziora,
 R. Z. Khaliullin, P. Klunzinger, A. M. Lee, M. S. Lee, W. Liang,
 I. Lotan, N. Nair, B. Peters, E. I. Proynov, P. A. Pieniazek, 
 Y. M. Rhee, J. Ritchie, E. Rosta, C. D. Sherrill, 
 A. C. Simmonett, J. E. Subotnik, H. L. Woodcock III,
 W. Zhang, A. T. Bell, A. K. Chakraborty, D. M. Chipman,
 F. J. Keil, A. Warshel, W. J. Hehre, H. F. Schaefer III,
 J. Kong, A. I. Krylov, P. M. W. Gill, M. Head-Gordon,
 Q-Chem, Version 3.1, Q-Chem, Inc., Pittsburgh, PA (2007).

 Additional authors for Version 3.1: 
 Z. Gan, Y. Zhao, N. E. Schultz, D. Truhlar, E. Epifanovsky and M. Oana.

 Additional authors for Version 3.2: 
 R. Baer, B. R. Brooks, D. Casanova, J.-D. Chai, C.-L. Cheng, 
 C. Cramer, D. Crittenden, A. Ghysels, G. Hawkins, E. G. Hohenstein, 
 C. Kelley, W. Kurlancheek, D. Liotard, E. Livshits, P. Manohar, 
 A. Marenich, D. Neuhauser, R. Olson, M. A. Rohrdanz, K. S. Thanthiriwatte, 
 A. J. W. Thom, V. Vanovschi, C. F. Williams, Q. Wu and Z.-Q. You. 


 Intel X86 Linux Version

 Q-chem begins on Tue Apr 12 21:18:51 2011  

 Parallel job on  1  processors
Processing $rem in /usr/local/qchem/config/preferences.

theFileMan(): MAXOPENFILES=974 MAX_SUB_FILE_NUM=16
Maximum size of a physical file is 2.0 GB, maximum size of a tmp-file is 32.0 GB


--------------------------------------------------------------
User input:
--------------------------------------------------------------

$molecule
0,1
B
X,1,1.
X,1,1.,2,90.
Cl,1,R2,2,ALPHA,3,0.,0
Cl,1,R2,2,ALPHA,3,120.,0
Cl,1,R2,2,ALPHA,3,-120.,0

 R2=1.75274159
 ALPHA=90.

$end

$comment
neutral
$end

$xc_functional
   X HF 1.0
   X BNL 1.0
   C LYP 1.0
$end

$rem
SYMMETRY_DECOMPOSITION	0
exchange 		general
BASIS                   g3large
omega			300
separate_jk		true
mem_static              760
max_scf_cycles          200
scf_final_print         1
sym_ignore              true
$end

--------------------------------------------------------------
 Writing REM_CC_EA            4
 ----------------------------------------------------
       Standard Nuclear Orientation (Angstroms)
    I     Atom         X            Y            Z
 ----------------------------------------------------
    1      B       0.000000     0.000000     0.000000
    2      Cl      1.752742     0.000000     0.000000
    3      Cl     -0.876371    -1.517919     0.000000
    4      Cl     -0.876371     1.517919     0.000000
 ----------------------------------------------------
 Nuclear Repulsion Energy =   228.1149461282 hartrees
 There are       28 alpha and       28 beta electrons
 Requested basis set is G3large
 There are 67 shells and 240 basis functions

Total QAlloc Memory Limit   2000 MB
Mega-Array Size       743 MB
MEM_STATIC part       760 MB

                       Distance Matrix (Angstroms)
             B (  1)   Cl(  2)   Cl(  3)
   Cl(  2)  1.752742
   Cl(  3)  1.752742  3.035837
   Cl(  4)  1.752742  3.035837  3.035837
 
 A cutoff of  1.0D-08 yielded   1837 shell pairs
 There are  24483 function pairs ( 34446 Cartesian)
Evaluating contribution to one-electron hamiltonian from nuclear
 Smallest overlap matrix eigenvalue = 8.96E-04
 Multipole matrices computed through 2nd order

  Scale SEOQF with 1.000000e-01/1.000000e-01/1.000000e-01

 Standard Electronic Orientation quadrupole field applied
 Nucleus-field energy     =     0.0000000084 hartrees
 Guess from superposition of atomic densities
 Warning:  Energy on first SCF cycle will be non-variational
 A restricted hybrid HF-DFT SCF calculation will be
 performed using Pulay DIIS extrapolation
 Exchange:     1.0000 Hartree-Fock + 1.0000 BNL
 Correlation:  1.0000 LYP
 Using SG-1 standard quadrature grid
 SCF converges when DIIS error is below 1.0E-05
 ---------------------------------------
  Cycle       Energy         DIIS Error
 ---------------------------------------
    1   -1399.9101397625      2.43E-02
    2   -1399.3315943300      2.36E-03
    3   -1399.3375258481      2.60E-03
    4   -1399.3803264859      1.89E-04
    5   -1399.3806368115      5.21E-05
    6   -1399.3806816167      1.88E-05
    7   -1399.3806814744      5.02E-06 Convergence criterion met
 ---------------------------------------
 One-Electron    Energy = -2392.5065727325
 Total Coulomb   Energy =   847.4175498187
 Alpha Exchange  Energy =    -4.4854063276
 Beta  Exchange  Energy =    -4.4854063276
 DFT   Exchange  Energy =   -71.1466365420
 DFT Correlation Energy =    -2.2891555000
 Nuclear Repu.   Energy =   228.1149461366
 Nuclear Attr.   Energy = -3789.6546893989
 Kinetic         Energy =  1397.1481166664
 SCF time:  CPU 141.49 s  wall 153.57 s
 Final Alpha MO Eigenvalues
            1           2           3           4           5           6
    1-100.4635057-100.4634623-100.4633275  -9.3163750  -9.3163522  -9.3162424
            7           8           9          10          11          12
    1  -7.1698155  -7.1696881  -7.1696693  -7.1645448  -7.1645143  -7.1644162
           13          14          15          16          17          18
    1  -7.1622903  -7.1621597  -7.1620278  -6.7242194  -0.9881097  -0.9386064
           19          20          21          22          23          24
    1  -0.9385764  -0.6275273  -0.5540293  -0.5540107  -0.5139575  -0.4466987
           25          26          27          28          29          30
    1  -0.4466784  -0.4396509  -0.4396244  -0.4119805  -0.0017256   0.0298887
           31          32          33
    1   0.0576004   0.0576032   0.0689838
 Analysis of SCF Wavefunction
 
 --------------------------------------------------------------
                    Orbital Energies (a.u.)
 --------------------------------------------------------------
 
 Alpha MOs
 -- Occupied --
*******-100.463-100.463  -9.316  -9.316  -9.316  -7.170  -7.170
 -7.170  -7.165  -7.165  -7.164  -7.162  -7.162  -7.162  -6.724
 -0.988  -0.939  -0.939  -0.628  -0.554  -0.554  -0.514  -0.447
 -0.447  -0.440  -0.440  -0.412
 -- Virtual --
 -0.002   0.030   0.058   0.058   0.069   0.098   0.105   0.105
  0.131   0.131   0.137   0.165   0.165   0.169   0.169   0.186
  0.199   0.199   0.204   0.204   0.276   0.276   0.305   0.331
  0.331   0.392   0.392   0.395   0.399   0.399   0.400   0.450
  0.468   0.492   0.521   0.536   0.537   0.547   0.547   0.568
  0.568   0.614   0.614   0.663   0.705   0.707   0.729   0.729
  0.785   0.810   0.810   0.898   0.898   1.070   1.070   1.107
  1.112   1.128   1.128   1.131   1.131   1.146   1.148   1.148
  1.162   1.162   1.176   1.189   1.204   1.204   1.223   1.251
  1.262   1.262   1.379   1.384   1.384   1.387   1.394   1.394
  1.447   1.452   1.536   1.536   1.634   1.635   1.670   1.671
  1.725   1.726   1.750   1.804   1.879   2.010   2.010   2.177
  2.177   2.178   2.190   2.229   2.268   2.268   2.354   2.354
  2.450   2.477   2.477   2.528   2.528   2.555   2.627   2.627
  2.712   2.906   3.045   3.046   4.355   4.369   4.369   4.369
  4.369   4.401   4.424   4.432   4.432   4.444   4.456   4.456
  4.481   4.576   4.576   4.581   4.585   4.585   4.612   4.612
  4.680   5.004   5.005   5.033   5.056   5.085   5.085   5.167
  5.168   5.178   5.202   5.204   5.389   5.496   5.714   5.715
  9.840   9.878   9.878  14.845  18.843  19.397  19.397  20.515
 20.515  20.515  20.550  20.642  20.643  20.792  20.792  20.838
 27.048  27.069  27.072  27.129  27.139  27.139  27.161  27.174
 27.202  27.202  27.210  27.252  27.267  27.346  27.380  35.829
 35.884  36.415  36.415  36.485  36.792  36.796  36.797  36.797
 36.798  36.799  36.801  36.804  36.804  36.807  36.807  36.808
 36.812  36.821  36.823  36.823  36.824  36.826  36.828  36.829
 36.842 216.311 216.362 216.363
 --------------------------------------------------------------
 
          Ground-State Mulliken Net Atomic Charges

     Atom                 Charge (a.u.)
  ----------------------------------------
      1 B                     0.311658
      2 Cl                   -0.103720
      3 Cl                   -0.103891
      4 Cl                   -0.104047
  ----------------------------------------
  Sum of atomic charges =     0.000000

 -----------------------------------------------------------------
                    Cartesian Multipole Moments
 -----------------------------------------------------------------
    Charge (ESU x 10^10)
                 0.0000
    Dipole Moment (Debye)
         X       0.0004      Y      -0.0007      Z       0.0000
       Tot       0.0008
    Quadrupole Moments (Debye-Ang)
        XX     -43.8430     XY       0.0005     YY     -43.8435
        XZ       0.0003     YZ      -0.0007     ZZ     -42.9974
    Octapole Moments (Debye-Ang^2)
       XXX       3.8868    XXY      -0.0009    XYY      -3.8887
       YYY      -0.0026    XXZ       0.0001    XYZ       0.0002
       YYZ      -0.0001    XZZ      -0.0003    YZZ       0.0000
       ZZZ       0.0000
    Hexadecapole Moments (Debye-Ang^3)
      XXXX    -385.9977   XXXY      -0.0027   XXYY    -128.6717
      XYYY       0.0008   YYYY    -386.0117   XXXZ       0.0025
      XXYZ      -0.0019   XYYZ       0.0008   YYYZ      -0.0058
      XXZZ     -75.8162   XYZZ       0.0000   YYZZ     -75.8168
      XZZZ       0.0005   YZZZ      -0.0010   ZZZZ     -51.3289
 -----------------------------------------------------------------
 Total job time:  155.36s(wall), 141.86s(cpu) 
 Tue Apr 12 21:21:26 2011

        *************************************************************
        *                                                           *
        *  Thank you very much for using Q-Chem.  Have a nice day.  *
        *                                                           *
        *************************************************************


0 sent ACK to 0 
now end server 0 ... 
 
**********************************************************************
Job 3 of 3 
**********************************************************************
 
Process 0 of 1 is on cl248.stfx.acenet.ca - thread support 1
initial socket setup ...start
initial socket setup ...done 
now start server 0 ... 

cmd = /usr/bin/ssh clhead /usr/local/qchem/bin/get_hostid 1725210838 > /globalscratch/itamblyn/bnl/g297_b3lyp_neut_g03Large_worked/g2g71055/omega300/qchem2995/lic.dat
                  Welcome to Q-Chem
     A Quantum Leap Into The Future Of Chemistry

 Y. Shao, L. Fusti-Molnar, Y. Jung, J. Kussmann, C. Ochsenfeld,
 S. T. Brown, A. T. B. Gilbert, L. V. Slipchenko,S. V. Levchenko,
 D. P. O'Neill, R. A. DiStasio Jr., R. C. Lochan, T. Wang,
 G. J. O. Beran, N. A. Besley, J. M. Herbert, C. Y. Lin,
 T. Van Voorhis, S. H. Chien, A. Sodt, R. P. Steele, 
 V. A. Rassolov, P. E. Maslen, P. P. Korambath, R. D. Adamson,
 B. Austin, J. Baker, E. F. C. Byrd, H. Dachsel, R. J. Doerksen,
 A. Dreuw, B. D. Dunietz, A. D. Dutoi, T. R. Furlani,
 S. R. Gwaltney, A. Heyden, S. Hirata, C.-P. Hsu, G. Kedziora,
 R. Z. Khaliullin, P. Klunzinger, A. M. Lee, M. S. Lee, W. Liang,
 I. Lotan, N. Nair, B. Peters, E. I. Proynov, P. A. Pieniazek, 
 Y. M. Rhee, J. Ritchie, E. Rosta, C. D. Sherrill, 
 A. C. Simmonett, J. E. Subotnik, H. L. Woodcock III,
 W. Zhang, A. T. Bell, A. K. Chakraborty, D. M. Chipman,
 F. J. Keil, A. Warshel, W. J. Hehre, H. F. Schaefer III,
 J. Kong, A. I. Krylov, P. M. W. Gill, M. Head-Gordon,
 Q-Chem, Version 3.1, Q-Chem, Inc., Pittsburgh, PA (2007).

 Additional authors for Version 3.1: 
 Z. Gan, Y. Zhao, N. E. Schultz, D. Truhlar, E. Epifanovsky and M. Oana.

 Additional authors for Version 3.2: 
 R. Baer, B. R. Brooks, D. Casanova, J.-D. Chai, C.-L. Cheng, 
 C. Cramer, D. Crittenden, A. Ghysels, G. Hawkins, E. G. Hohenstein, 
 C. Kelley, W. Kurlancheek, D. Liotard, E. Livshits, P. Manohar, 
 A. Marenich, D. Neuhauser, R. Olson, M. A. Rohrdanz, K. S. Thanthiriwatte, 
 A. J. W. Thom, V. Vanovschi, C. F. Williams, Q. Wu and Z.-Q. You. 


 Intel X86 Linux Version

 Q-chem begins on Tue Apr 12 21:21:29 2011  

 Parallel job on  1  processors
Processing $rem in /usr/local/qchem/config/preferences.

theFileMan(): MAXOPENFILES=974 MAX_SUB_FILE_NUM=16
Maximum size of a physical file is 2.0 GB, maximum size of a tmp-file is 32.0 GB


--------------------------------------------------------------
User input:
--------------------------------------------------------------

$molecule
1,2
B
X,1,1.
X,1,1.,2,90.
Cl,1,R2,2,ALPHA,3,0.,0
Cl,1,R2,2,ALPHA,3,120.,0
Cl,1,R2,2,ALPHA,3,-120.,0

 R2=1.75274159
 ALPHA=90.

$end

$comment
positive
$end

$xc_functional
   X HF 1.0
   X BNL 1.0
   C LYP 1.0
$end

$rem
SYMMETRY_DECOMPOSITION	0
exchange 		general
BASIS                   g3large
omega			300
separate_jk		true
mem_static              760
max_scf_cycles          200
scf_final_print         1
sym_ignore              true
$end

--------------------------------------------------------------
 Writing REM_CC_EA            4
 ----------------------------------------------------
       Standard Nuclear Orientation (Angstroms)
    I     Atom         X            Y            Z
 ----------------------------------------------------
    1      B       0.000000     0.000000     0.000000
    2      Cl      1.752742     0.000000     0.000000
    3      Cl     -0.876371    -1.517919     0.000000
    4      Cl     -0.876371     1.517919     0.000000
 ----------------------------------------------------
 Nuclear Repulsion Energy =   228.1149461282 hartrees
 There are       28 alpha and       27 beta electrons
 Requested basis set is G3large
 There are 67 shells and 240 basis functions

Total QAlloc Memory Limit   2000 MB
Mega-Array Size       743 MB
MEM_STATIC part       760 MB

                       Distance Matrix (Angstroms)
             B (  1)   Cl(  2)   Cl(  3)
   Cl(  2)  1.752742
   Cl(  3)  1.752742  3.035837
   Cl(  4)  1.752742  3.035837  3.035837
 
 A cutoff of  1.0D-08 yielded   1837 shell pairs
 There are  24483 function pairs ( 34446 Cartesian)
Evaluating contribution to one-electron hamiltonian from nuclear
 Smallest overlap matrix eigenvalue = 8.96E-04
 Multipole matrices computed through 2nd order

  Scale SEOQF with 1.000000e-01/1.000000e-01/1.000000e-01

 Standard Electronic Orientation quadrupole field applied
 Nucleus-field energy     =     0.0000000084 hartrees
 Guess from superposition of atomic densities
 Warning:  Energy on first SCF cycle will be non-variational
 An unrestricted hybrid HF-DFT SCF calculation will be
 performed using Pulay DIIS extrapolation
 Exchange:     1.0000 Hartree-Fock + 1.0000 BNL
 Correlation:  1.0000 LYP
 Using SG-1 standard quadrature grid
 SCF converges when DIIS error is below 1.0E-05
 Warning!  Inaccurate integrated density:
   Number of electrons =    55
   Numerical integral  =    55.999955102590
   Relative error      =     1.8181001865 %
 ---------------------------------------
  Cycle       Energy         DIIS Error
 ---------------------------------------
    1   -1399.9101397625      2.43E-02
    2   -1398.8617117070      2.94E-03
    3   -1398.8710259892      3.46E-03
    4   -1398.9510873241      4.29E-04
    5   -1398.9527171178      2.24E-04
    6   -1398.9535590617      8.48E-05
    7   -1398.9540374559      8.82E-05
    8   -1398.9544216772      5.85E-05
    9   -1398.9549568500      2.93E-05
   10   -1398.9551533528      2.02E-05
   11   -1398.9552575591      1.25E-05
   12   -1398.9553225930      5.80E-06 Convergence criterion met
 ---------------------------------------
 One-Electron    Energy = -2378.5843089912
 Total Coulomb   Energy =   833.5363627637
 Alpha Exchange  Energy =    -4.4966689611
 Beta  Exchange  Energy =    -4.3073035479
 DFT   Exchange  Energy =   -70.9623705710
 DFT Correlation Energy =    -2.2559794221
 Nuclear Repu.   Energy =   228.1149461366
 Nuclear Attr.   Energy = -3775.2501245743
 Kinetic         Energy =  1396.6658155832
 <S^2> = 0.7554
 SCF time:  CPU 297.36 s  wall 309.05 s
 Final Alpha MO Eigenvalues
            1           2           3           4           5           6
    1-100.7268181-100.7267753-100.7252110  -9.5762101  -9.5761612  -9.5746471
            7           8           9          10          11          12
    1  -7.4285207  -7.4284476  -7.4279443  -7.4277929  -7.4267148  -7.4264435
           13          14          15          16          17          18
    1  -7.4220291  -7.4219730  -7.4205373  -6.9560686  -1.2327119  -1.1861537
           19          20          21          22          23          24
    1  -1.1852516  -0.8635445  -0.7933307  -0.7931991  -0.7440617  -0.6957890
           25          26          27          28          29          30
    1  -0.6953226  -0.6740943  -0.6732754  -0.6681120  -0.2225202  -0.1303844
           31          32          33
    1  -0.1013449  -0.0796625  -0.0795419
 Final Beta MO Eigenvalues
            1           2           3           4           5           6
    1-100.7240576-100.7240239-100.7225278  -9.5733831  -9.5733479  -9.5719014
            7           8           9          10          11          12
    1  -7.4258607  -7.4257717  -7.4243267  -7.4220776  -7.4219359  -7.4205217
           13          14          15          16          17          18
    1  -7.4200170  -7.4199683  -7.4185836  -6.9565143  -1.2225873  -1.1710173
           19          20          21          22          23          24
    1  -1.1704082  -0.8569776  -0.7798872  -0.7793396  -0.7400302  -0.6673615
           25          26          27          28          29          30
    1  -0.6666558  -0.6479201  -0.6478230  -0.4395183  -0.2214725  -0.1278967
           31          32
    1  -0.0985364  -0.0754902
 Analysis of SCF Wavefunction
 
 --------------------------------------------------------------
                    Orbital Energies (a.u.)
 --------------------------------------------------------------
 
 Alpha MOs
 -- Occupied --
*******-100.727-100.725  -9.576  -9.576  -9.575  -7.429  -7.428
 -7.428  -7.428  -7.427  -7.426  -7.422  -7.422  -7.421  -6.956
 -1.233  -1.186  -1.185  -0.864  -0.793  -0.793  -0.744  -0.696
 -0.695  -0.674  -0.673  -0.668
 -- Virtual --
 -0.223  -0.130  -0.101  -0.080  -0.080  -0.069  -0.068  -0.067
 -0.029  -0.013  -0.013   0.007   0.008   0.008   0.017   0.017
  0.024   0.051   0.058   0.058   0.061   0.061   0.105   0.117
  0.117   0.173   0.187   0.187   0.195   0.195   0.212   0.255
  0.261   0.311   0.316   0.348   0.349   0.364   0.364   0.378
  0.379   0.398   0.398   0.472   0.493   0.496   0.531   0.531
  0.563   0.602   0.602   0.684   0.684   0.838   0.839   0.873
  0.889   0.901   0.901   0.906   0.906   0.914   0.920   0.921
  0.933   0.933   0.952   0.964   0.979   0.979   1.008   1.025
  1.029   1.029   1.159   1.159   1.160   1.164   1.178   1.178
  1.228   1.239   1.308   1.308   1.414   1.414   1.460   1.460
  1.504   1.505   1.525   1.569   1.660   1.788   1.788   1.949
  1.949   1.954   1.963   1.988   2.043   2.044   2.123   2.123
  2.223   2.238   2.238   2.303   2.303   2.331   2.395   2.395
  2.479   2.670   2.816   2.816   4.100   4.111   4.111   4.113
  4.113   4.142   4.174   4.181   4.181   4.191   4.201   4.202
  4.236   4.326   4.327   4.328   4.343   4.344   4.358   4.359
  4.433   4.749   4.750   4.777   4.800   4.829   4.830   4.920
  4.921   4.932   4.946   4.948   5.139   5.240   5.465   5.467
  9.587   9.623   9.624  14.613  18.612  19.165  19.165  20.250
 20.258  20.259  20.294  20.377  20.378  20.535  20.536  20.582
 26.787  26.808  26.811  26.867  26.878  26.878  26.899  26.912
 26.945  26.946  26.955  26.993  27.004  27.087  27.121  35.597
 35.652  36.183  36.183  36.253  36.533  36.535  36.536  36.537
 36.537  36.539  36.542  36.546  36.546  36.547  36.548  36.548
 36.555  36.562  36.564  36.566  36.567  36.568  36.569  36.572
 36.584 216.050 216.100 216.101
 
 Beta MOs
 -- Occupied --
*******-100.724-100.723  -9.573  -9.573  -9.572  -7.426  -7.426
 -7.424  -7.422  -7.422  -7.421  -7.420  -7.420  -7.419  -6.957
 -1.223  -1.171  -1.170  -0.857  -0.780  -0.779  -0.740  -0.667
 -0.667  -0.648  -0.648
 -- Virtual --
 -0.440  -0.221  -0.128  -0.099  -0.075  -0.075  -0.067  -0.067
 -0.067  -0.028  -0.012  -0.012   0.008   0.013   0.013   0.019
  0.019   0.026   0.051   0.061   0.061   0.066   0.066   0.109
  0.128   0.129   0.187   0.192   0.192   0.200   0.200   0.212
  0.264   0.268   0.313   0.319   0.355   0.355   0.366   0.366
  0.381   0.381   0.404   0.404   0.474   0.498   0.502   0.534
  0.534   0.568   0.604   0.604   0.690   0.690   0.847   0.847
  0.885   0.895   0.909   0.909   0.913   0.913   0.925   0.927
  0.927   0.943   0.943   0.960   0.971   0.988   0.988   1.011
  1.035   1.038   1.038   1.164   1.164   1.167   1.167   1.183
  1.184   1.231   1.243   1.316   1.316   1.419   1.420   1.463
  1.463   1.513   1.513   1.529   1.578   1.660   1.789   1.789
  1.953   1.953   1.958   1.967   2.003   2.042   2.043   2.125
  2.125   2.223   2.250   2.251   2.304   2.304   2.332   2.397
  2.397   2.484   2.673   2.818   2.818   4.116   4.129   4.130
  4.130   4.130   4.162   4.185   4.193   4.193   4.205   4.216
  4.217   4.244   4.337   4.338   4.340   4.349   4.349   4.373
  4.373   4.442   4.756   4.757   4.785   4.808   4.838   4.838
  4.923   4.923   4.934   4.954   4.956   5.144   5.249   5.470
  5.471   9.593   9.630   9.630  14.613  18.612  19.165  19.165
 20.259  20.261  20.262  20.297  20.386  20.387  20.538  20.539
 20.585  26.792  26.813  26.817  26.872  26.883  26.883  26.905
 26.917  26.947  26.948  26.956  26.996  27.010  27.091  27.125
 35.597  35.652  36.183  36.183  36.253  36.535  36.538  36.539
 36.540  36.540  36.541  36.544  36.547  36.548  36.550  36.550
 36.551  36.556  36.564  36.566  36.568  36.568  36.569  36.571
 36.574  36.585 216.053 216.103 216.104
 --------------------------------------------------------------
 
          Ground-State Mulliken Net Atomic Charges

     Atom                 Charge (a.u.)    Spin (a.u.)
  --------------------------------------------------------
      1 B                     0.332377      -0.042877
      2 Cl                    0.223650       0.349778
      3 Cl                    0.220203       0.342480
      4 Cl                    0.223771       0.350618
  --------------------------------------------------------
  Sum of atomic charges =     1.000000
  Sum of spin   charges =     1.000000

 -----------------------------------------------------------------
                    Cartesian Multipole Moments
 -----------------------------------------------------------------
    Charge (ESU x 10^10)
                 4.8032
    Dipole Moment (Debye)
         X       0.0116      Y       0.0228      Z       0.0001
       Tot       0.0256
    Quadrupole Moments (Debye-Ang)
        XX     -30.5672     XY      -0.0297     YY     -30.5935
        XZ       0.0085     YZ      -0.0152     ZZ     -39.6978
    Octapole Moments (Debye-Ang^2)
       XXX      10.4082    XXY       0.0263    XYY     -10.3586
       YYY       0.0786    XXZ      -0.0192    XYZ      -0.0346
       YYZ       0.0195    XZZ       0.0058    YZZ       0.0107
       ZZZ       0.0001
    Hexadecapole Moments (Debye-Ang^3)
      XXXX    -314.8213   XXXY      -0.1426   XXYY    -104.9481
      XYYY      -0.0537   YYYY    -315.0013   XXXZ       0.0316
      XXYZ      -0.0204   XYYZ       0.0103   YYYZ      -0.0541
      XXZZ     -67.1134   XYZZ      -0.0132   YYZZ     -67.1270
      XZZZ       0.0063   YZZZ      -0.0112   ZZZZ     -43.1235
 -----------------------------------------------------------------
 Total job time:  310.36s(wall), 297.75s(cpu) 
 Tue Apr 12 21:26:39 2011

        *************************************************************
        *                                                           *
        *  Thank you very much for using Q-Chem.  Have a nice day.  *
        *                                                           *
        *************************************************************


0 sent ACK to 0 
now end server 0 ... 
