Process 0 of 1 is on cl253.stfx.acenet.ca - thread support 1
initial socket setup ...start
initial socket setup ...done 
now start server 0 ... 

cmd = /usr/bin/ssh clhead /usr/local/qchem/bin/get_hostid 439293410 > /scratch/tmp/4506634.1.long.q/qchem19069/lic.dat
                  Welcome to Q-Chem
     A Quantum Leap Into The Future Of Chemistry

 Y. Shao, L. Fusti-Molnar, Y. Jung, J. Kussmann, C. Ochsenfeld,
 S. T. Brown, A. T. B. Gilbert, L. V. Slipchenko,S. V. Levchenko,
 D. P. O'Neill, R. A. DiStasio Jr., R. C. Lochan, T. Wang,
 G. J. O. Beran, N. A. Besley, J. M. Herbert, C. Y. Lin,
 T. Van Voorhis, S. H. Chien, A. Sodt, R. P. Steele, 
 V. A. Rassolov, P. E. Maslen, P. P. Korambath, R. D. Adamson,
 B. Austin, J. Baker, E. F. C. Byrd, H. Dachsel, R. J. Doerksen,
 A. Dreuw, B. D. Dunietz, A. D. Dutoi, T. R. Furlani,
 S. R. Gwaltney, A. Heyden, S. Hirata, C.-P. Hsu, G. Kedziora,
 R. Z. Khaliullin, P. Klunzinger, A. M. Lee, M. S. Lee, W. Liang,
 I. Lotan, N. Nair, B. Peters, E. I. Proynov, P. A. Pieniazek, 
 Y. M. Rhee, J. Ritchie, E. Rosta, C. D. Sherrill, 
 A. C. Simmonett, J. E. Subotnik, H. L. Woodcock III,
 W. Zhang, A. T. Bell, A. K. Chakraborty, D. M. Chipman,
 F. J. Keil, A. Warshel, W. J. Hehre, H. F. Schaefer III,
 J. Kong, A. I. Krylov, P. M. W. Gill, M. Head-Gordon,
 Q-Chem, Version 3.1, Q-Chem, Inc., Pittsburgh, PA (2007).

 Additional authors for Version 3.1: 
 Z. Gan, Y. Zhao, N. E. Schultz, D. Truhlar, E. Epifanovsky and M. Oana.

 Additional authors for Version 3.2: 
 R. Baer, B. R. Brooks, D. Casanova, J.-D. Chai, C.-L. Cheng, 
 C. Cramer, D. Crittenden, A. Ghysels, G. Hawkins, E. G. Hohenstein, 
 C. Kelley, W. Kurlancheek, D. Liotard, E. Livshits, P. Manohar, 
 A. Marenich, D. Neuhauser, R. Olson, M. A. Rohrdanz, K. S. Thanthiriwatte, 
 A. J. W. Thom, V. Vanovschi, C. F. Williams, Q. Wu and Z.-Q. You. 


 Intel X86 Linux Version

 Q-chem begins on Sat Apr 23 18:49:51 2011  

 Parallel job on  1  processors
Processing $rem in /usr/local/qchem/config/preferences.

theFileMan(): MAXOPENFILES=974 MAX_SUB_FILE_NUM=16
Maximum size of a physical file is 2.0 GB, maximum size of a tmp-file is 32.0 GB


--------------------------------------------------------------
User input:
--------------------------------------------------------------

$molecule
0,1
X
C,1,r1
C,1,r1,2,60.
C,1,r1,3,60.,2,180.,0
C,1,r1,4,60.,3,180.,0
C,1,r1,5,60.,4,180.,0
C,1,r1,6,60.,5,180.,0
H,2,r2,3,120.,4,180.,0
H,3,r2,4,120.,5,180.,0
H,4,r2,5,120.,6,180.,0
H,5,r2,6,120.,7,180.,0
H,6,r2,7,120.,2,180.,0
H,7,r2,2,120.,3,180.,0

r1=1.39661479
r2=1.08700711

$end

$comment
neutral
$end

$xc_functional
   X HF 1.0
   X BNL 1.0
   C LYP 1.0
$end

$rem
SYMMETRY_DECOMPOSITION	0
exchange 		general
BASIS                   g3large
omega			310 
JOBTYPE                 opt
separate_jk		true
mem_static              760
max_scf_cycles          200
scf_final_print         1
sym_ignore              true
$end


--------------------------------------------------------------
 Writing REM_CC_EA           12
 ----------------------------------------------------
       Standard Nuclear Orientation (Angstroms)
    I     Atom         X            Y            Z
 ----------------------------------------------------
    1      C       0.000000     0.000000     1.396615
    2      C       1.209504     0.000000     0.698307
    3      C       1.209504     0.000000    -0.698307
    4      C       0.000000     0.000000    -1.396615
    5      C      -1.209504     0.000000    -0.698307
    6      C      -1.209504     0.000000     0.698307
    7      H       0.000000     0.000000     2.483622
    8      H       2.150880     0.000000     1.241811
    9      H       2.150880     0.000000    -1.241811
   10      H       0.000000     0.000000    -2.483622
   11      H      -2.150880     0.000000    -1.241811
   12      H      -2.150880     0.000000     1.241811
 ----------------------------------------------------
 Nuclear Repulsion Energy =   203.1870035416 hartrees
 There are       21 alpha and       21 beta electrons
 Requested basis set is G3large
 There are 96 shells and 312 basis functions

Total QAlloc Memory Limit   2000 MB
Mega-Array Size       743 MB
MEM_STATIC part       760 MB
 A cutoff of  1.0D-11 yielded   4305 shell pairs
 There are  46173 function pairs ( 57720 Cartesian)
Evaluating contribution to one-electron hamiltonian from nuclear
 Smallest overlap matrix eigenvalue = 9.33E-07

 Q-Chem warning in module mkSTV.C, line 194:

 Overlap eigenvalue is smaller than square root of threshold

 Linear dependence detected in AO basis
 Number of orthogonalized atomic orbitals = 311
 Maximum deviation from orthogonality = 4.683E-11
 Multipole matrices computed through 2nd order

  Scale SEOQF with 1.000000e-01/1.000000e-01/1.000000e-01

 Standard Electronic Orientation quadrupole field applied
 Nucleus-field energy     =    -0.0000000038 hartrees
 Guess from superposition of atomic densities
 Warning:  Energy on first SCF cycle will be non-variational
 A restricted hybrid HF-DFT SCF calculation will be
 performed using Pulay DIIS extrapolation
 Exchange:     1.0000 Hartree-Fock + 1.0000 BNL
 Correlation:  1.0000 LYP
 Using SG-1 standard quadrature grid
 SCF converges when DIIS error is below 1.0E-08
 ---------------------------------------
  Cycle       Energy         DIIS Error
 ---------------------------------------
    1    -231.3053458895      2.77E-02
    2    -229.2915300179      2.32E-03
    3    -229.3435394799      1.58E-03
    4    -229.3734045806      2.60E-04
    5    -229.3749246632      6.61E-05
    6    -229.3750558798      1.36E-05
    7    -229.3750651034      4.27E-06
    8    -229.3750654149      2.27E-06
    9    -229.3750653112      2.12E-07
   10    -229.3750654144      5.30E-08
   11    -229.3750654329      8.28E-09 Convergence criterion met
 ---------------------------------------
 One-Electron    Energy =  -713.3342368089
 Total Coulomb   Energy =   312.4441268514
 Alpha Exchange  Energy =    -3.3543784221
 Beta  Exchange  Energy =    -3.3543784221
 DFT   Exchange  Energy =   -23.5730899633
 DFT Correlation Energy =    -1.3901122056
 Nuclear Repu.   Energy =   203.1870035378
 Nuclear Attr.   Energy =  -941.4166796173
 Kinetic         Energy =   228.0824428084
 SCF time:  CPU 621.78 s  wall 624.50 s
 Final Alpha MO Eigenvalues
            1           2           3           4           5           6
    1  -9.9307337  -9.9307267  -9.9307260  -9.9303436  -9.9303431  -9.9302422
            7           8           9          10          11          12
    1  -0.9482595  -0.8388742  -0.8388734  -0.6968995  -0.6968983  -0.6259573
           13          14          15          16          17          18
    1  -0.5490462  -0.5447713  -0.5138692  -0.5138673  -0.4819073  -0.4311527
           19          20          21          22          23          24
    1  -0.4311520  -0.3487624  -0.3487620   0.0305495   0.0414682   0.0414756
           25          26
    1   0.0527441   0.0527551
 Analysis of SCF Wavefunction
 
 --------------------------------------------------------------
                    Orbital Energies (a.u.)
 --------------------------------------------------------------
 
 Alpha MOs
 -- Occupied --
 -9.931  -9.931  -9.931  -9.930  -9.930  -9.930  -0.948  -0.839
 -0.839  -0.697  -0.697  -0.626  -0.549  -0.545  -0.514  -0.514
 -0.482  -0.431  -0.431  -0.349  -0.349
 -- Virtual --
  0.031   0.041   0.041   0.053   0.053   0.060   0.060   0.092
  0.107   0.129   0.132   0.132   0.141   0.158   0.158   0.160
  0.160   0.160   0.183   0.183   0.185   0.194   0.194   0.201
  0.201   0.223   0.235   0.235   0.265   0.265   0.266   0.292
  0.293   0.345   0.345   0.357   0.357   0.357   0.416   0.416
  0.421   0.421   0.504   0.509   0.519   0.600   0.601   0.607
  0.607   0.609   0.609   0.615   0.615   0.623   0.627   0.679
  0.679   0.711   0.723   0.723   0.727   0.729   0.732   0.738
  0.738   0.765   0.765   0.841   0.841   0.846   0.846   0.848
  0.848   0.875   0.886   0.895   0.895   0.899   1.008   1.061
  1.061   1.109   1.117   1.117   1.140   1.170   1.170   1.206
  1.253   1.253   1.271   1.271   1.306   1.366   1.366   1.374
  1.374   1.376   1.421   1.421   1.445   1.445   1.461   1.461
  1.483   1.506   1.561   1.577   1.577   1.666   1.668   1.785
  1.803   1.803   1.834   1.834   1.925   2.064   2.064   2.079
  2.079   2.166   2.541   2.588   2.592   2.602   2.654   2.654
  2.716   2.716   2.751   2.751   2.795   2.819   2.819   2.842
  2.860   2.860   2.870   2.915   2.915   2.916   2.929   2.929
  2.945   2.945   2.974   2.999   2.999   3.145   3.173   3.173
  3.178   3.178   3.192   3.237   3.237   3.249   3.260   3.270
  3.270   3.336   3.361   3.361   3.388   3.388   3.411   3.411
  3.424   3.424   3.474   3.484   3.484   3.490   3.581   3.594
  3.654   3.654   3.673   3.761   3.777   3.804   3.804   3.836
  3.875   3.875   3.917   3.917   3.923   3.923   3.971   3.971
  3.990   4.022   4.046   4.130   4.162   4.162   4.212   4.212
  4.270   4.293   4.293   4.440   4.453   4.453   4.499   4.499
  4.532   4.537   4.537   4.551   4.551   4.565   4.679   4.729
  4.729   4.804   4.804   4.807   5.054   5.135   5.135   5.174
  5.174   5.184   5.263   5.436   5.436   5.801   5.801   5.848
  5.863   5.863   6.322   6.547  23.804  24.371  24.371  24.673
 24.673  25.203  27.221  27.371  27.371  27.467  27.467  27.706
 27.929  28.068  28.068  28.226  28.241  28.241  28.487  28.487
 28.570  28.570  28.596  29.092  40.797  40.840  40.851  40.885
 40.921  40.959  40.968  41.005  41.021  41.060  41.138  41.148
 41.161  41.169  41.183  41.183  41.190  41.190  41.224  41.224
 41.234  41.234  41.238  41.257  41.282  41.297  41.361  41.417
 41.500  41.536
 --------------------------------------------------------------
 
          Ground-State Mulliken Net Atomic Charges

     Atom                 Charge (a.u.)
  ----------------------------------------
      1 C                    -0.175581
      2 C                    -0.175719
      3 C                    -0.175718
      4 C                    -0.175581
      5 C                    -0.175719
      6 C                    -0.175718
      7 H                     0.175764
      8 H                     0.175627
      9 H                     0.175627
     10 H                     0.175764
     11 H                     0.175627
     12 H                     0.175627
  ----------------------------------------
  Sum of atomic charges =     0.000000

 -----------------------------------------------------------------
                    Cartesian Multipole Moments
 -----------------------------------------------------------------
    Charge (ESU x 10^10)
                 0.0000
    Dipole Moment (Debye)
         X       0.0000      Y       0.0000      Z       0.0000
       Tot       0.0000
    Quadrupole Moments (Debye-Ang)
        XX     -32.4344     XY       0.0000     YY     -40.8061
        XZ       0.0000     YZ       0.0000     ZZ     -32.4346
    Octapole Moments (Debye-Ang^2)
       XXX       0.0000    XXY       0.0000    XYY       0.0000
       YYY       0.0000    XXZ       0.0000    XYZ       0.0000
       YYZ       0.0000    XZZ       0.0000    YZZ       0.0000
       ZZZ       0.0000
    Hexadecapole Moments (Debye-Ang^3)
      XXXX    -283.4642   XXXY       0.0000   XXYY     -67.1008
      XYYY       0.0000   YYYY     -51.2474   XXXZ       0.0000
      XXYZ       0.0000   XYYZ       0.0000   YYYZ       0.0000
      XXZZ     -94.4887   XYZZ       0.0000   YYZZ     -67.1015
      XZZZ       0.0000   YZZZ       0.0000   ZZZZ    -283.4638
 -----------------------------------------------------------------
 Calculating analytic gradient of the SCF energy
 Gradient of AOints
            1           2           3           4           5           6
    1  -0.0000004  -7.1889772  -7.1889771   0.0000006   7.1889769   7.1889772
    2  -0.0000000  -0.0000043  -0.0000041  -0.0000007   0.0000049   0.0000046
    3  -8.3002548  -4.1524673   4.1524685   8.3002550   4.1524672  -4.1524686
            7           8           9          10          11          12
    1   0.0000000  -3.8164778  -3.8164779  -0.0000001   3.8164778   3.8164779
    2  -0.0000001   0.0000012   0.0000013   0.0000000  -0.0000014  -0.0000014
    3  -4.4076211  -2.2035813   2.2035813   4.4076211   2.2035814  -2.2035812
 Gradient of XC Energy
            1           2           3           4           5           6
    1   0.0000000   0.0569100   0.0569100  -0.0000000  -0.0569100  -0.0569100
    2   0.0000000   0.0000001   0.0000001   0.0000000  -0.0000001  -0.0000001
    3   0.0657760   0.0328845  -0.0328845  -0.0657760  -0.0328845   0.0328845
            7           8           9          10          11          12
    1  -0.0000000   0.1526997   0.1526997   0.0000000  -0.1526997  -0.1526997
    2   0.0000000  -0.0000000  -0.0000000  -0.0000000   0.0000000   0.0000000
    3   0.1763285   0.0881774  -0.0881774  -0.1763285  -0.0881774   0.0881774
 Gradient of SCF Energy
            1           2           3           4           5           6
    1   0.0000000   0.0167247   0.0167247  -0.0000000  -0.0167247  -0.0167247
    2  -0.0000000   0.0000000   0.0000000   0.0000000  -0.0000000  -0.0000000
    3   0.0193886   0.0096253  -0.0096253  -0.0193886  -0.0096253   0.0096253
            7           8           9          10          11          12
    1  -0.0000000  -0.0051355  -0.0051356   0.0000000   0.0051355   0.0051356
    2   0.0000000  -0.0000000  -0.0000000  -0.0000000   0.0000000   0.0000000
    3  -0.0059416  -0.0029505   0.0029505   0.0059416   0.0029505  -0.0029505
 Max gradient component =       1.939E-02
 RMS gradient           =       8.253E-03
 Gradient time:  CPU 392.39 s  wall 392.93 s
 Geometry Optimization Parameters
   NAtoms,    NIC,     NZ,  NCons,   NDum,   NFix, NCnnct, MaxDiis
       12      78      13       0       0       0       0       0


** GEOMETRY OPTIMIZATION IN DELOCALIZED INTERNAL COORDINATES **
   Searching for a Minimum

   Optimization Cycle:   1

                       Coordinates (Angstroms)
     ATOM              X           Y           Z
    1  C           0.000000    0.000000    1.396615
    2  C           1.209504    0.000000    0.698307
    3  C           1.209504    0.000000   -0.698307
    4  C           0.000000    0.000000   -1.396615
    5  C          -1.209504    0.000000   -0.698307
    6  C          -1.209504    0.000000    0.698307
    7  H           0.000000    0.000000    2.483622
    8  H           2.150880    0.000000    1.241811
    9  H           2.150880    0.000000   -1.241811
   10  H           0.000000    0.000000   -2.483622
   11  H          -2.150880    0.000000   -1.241811
   12  H          -2.150880    0.000000    1.241811
   Point Group: c1    Number of degrees of freedom:  30


   Energy is   -229.375065433


 Attempting to Generate Delocalized Internal Coordinates

 22 Hessian modes will be used to form the next step
  Hessian Eigenvalues:
     0.022855    0.022855    0.022855    0.160000    0.160000    0.160000
     0.160000    0.160000    0.160000    0.220000    0.220000    0.220000
     0.351608    0.351608    0.351608    0.351608    0.351608    0.351608
     0.461862    0.461862    0.461862    0.461862

 Minimum Search - Taking Simple RFO Step
 Searching for Lamda that Minimizes Along All modes
 Value Taken    Lamda =  -0.00291226
 Step Taken.  Stepsize is  0.081636

                             Maximum     Tolerance    Cnvgd?
         Gradient           0.029608      0.000300      NO
         Displacement       0.071971      0.001200      NO
         Energy change     *********      0.000001      NO


 New Cartesian Coordinates Obtained by Inverse Iteration

 Displacement from previous Coordinates is:  0.076585
 Writing REM_CC_EA           12
 ----------------------------------------------------
       Standard Nuclear Orientation (Angstroms)
    I     Atom         X            Y            Z
 ----------------------------------------------------
    1      C       0.000000     0.000000     1.381287
    2      C       1.196335     0.000000     0.690680
    3      C       1.196335     0.000000    -0.690680
    4      C       0.000000     0.000000    -1.381287
    5      C      -1.196335     0.000000    -0.690680
    6      C      -1.196335     0.000000     0.690680
    7      H       0.000000     0.000000     2.477163
    8      H       2.145394     0.000000     1.238558
    9      H       2.145394     0.000000    -1.238558
   10      H       0.000000     0.000000    -2.477163
   11      H      -2.145394     0.000000    -1.238558
   12      H      -2.145394     0.000000     1.238558
 ----------------------------------------------------
 Nuclear Repulsion Energy =   204.8418044148 hartrees
 There are       21 alpha and       21 beta electrons
 Applying Cartesian multipole field
    Component          Value
    ---------          -----
     (2,0,0)        1.00000E-11
     (0,2,0)        2.00000E-11
     (0,0,2)       -3.00000E-11
 Nucleus-field energy     =    -0.0000000038 hartrees
 Requested basis set is G3large
 There are 96 shells and 312 basis functions
 A cutoff of  1.0D-11 yielded   4305 shell pairs
 There are  46173 function pairs ( 57720 Cartesian)
Evaluating contribution to one-electron hamiltonian from nuclear
 Smallest overlap matrix eigenvalue = 8.35E-07

 Q-Chem warning in module mkSTV.C, line 194:

 Overlap eigenvalue is smaller than square root of threshold

 Linear dependence detected in AO basis
 Number of orthogonalized atomic orbitals = 311
 Maximum deviation from orthogonality = 1.611E-11
 Multipole matrices computed through 2nd order
 Guess MOs from SCF MO coefficient file
Reading MOs from coefficient file
Reading MOs from coefficient file
 A restricted hybrid HF-DFT SCF calculation will be
 performed using Pulay DIIS extrapolation
 Exchange:     1.0000 Hartree-Fock + 1.0000 BNL
 Correlation:  1.0000 LYP
 Using SG-1 standard quadrature grid
 SCF converges when DIIS error is below 1.0E-08
 ---------------------------------------
  Cycle       Energy         DIIS Error
 ---------------------------------------
    1    -229.3330524423      6.04E-04
    2    -229.3763218573      9.91E-05
    3    -229.3763850818      6.82E-05
    4    -229.3764324816      7.03E-06
    5    -229.3764330401      1.80E-06
    6    -229.3764331368      2.29E-07
    7    -229.3764331898      2.86E-08
    8    -229.3764332151      6.41E-09 Convergence criterion met
 ---------------------------------------
 One-Electron    Energy =  -716.6300584661
 Total Coulomb   Energy =   314.1209453090
 Alpha Exchange  Energy =    -3.3557539490
 Beta  Exchange  Energy =    -3.3557539490
 DFT   Exchange  Energy =   -23.6052691834
 DFT Correlation Energy =    -1.3923473877
 Nuclear Repu.   Energy =   204.8418044110
 Nuclear Attr.   Energy =  -944.8729712264
 Kinetic         Energy =   228.2429127603
 SCF time:  CPU 469.03 s  wall 473.54 s
 Final Alpha MO Eigenvalues
            1           2           3           4           5           6
    1  -9.9274418  -9.9274173  -9.9274167  -9.9269797  -9.9269792  -9.9268535
            7           8           9          10          11          12
    1  -0.9551236  -0.8412947  -0.8412759  -0.6970563  -0.6970557  -0.6278638
           13          14          15          16          17          18
    1  -0.5488740  -0.5428682  -0.5136515  -0.5136189  -0.4871191  -0.4291922
           19          20          21          22          23          24
    1  -0.4291508  -0.3509496  -0.3509406   0.0302466   0.0414682   0.0414732
           25          26
    1   0.0560151   0.0560331
 Analysis of SCF Wavefunction
 
 --------------------------------------------------------------
                    Orbital Energies (a.u.)
 --------------------------------------------------------------
 
 Alpha MOs
 -- Occupied --
 -9.927  -9.927  -9.927  -9.927  -9.927  -9.927  -0.955  -0.841
 -0.841  -0.697  -0.697  -0.628  -0.549  -0.543  -0.514  -0.514
 -0.487  -0.429  -0.429  -0.351  -0.351
 -- Virtual --
  0.030   0.041   0.041   0.056   0.056   0.060   0.060   0.092
  0.106   0.128   0.132   0.132   0.141   0.158   0.159   0.159
  0.160   0.160   0.184   0.184   0.187   0.194   0.194   0.201
  0.201   0.224   0.235   0.235   0.265   0.265   0.272   0.291
  0.294   0.344   0.344   0.358   0.362   0.362   0.417   0.417
  0.428   0.428   0.502   0.508   0.517   0.600   0.606   0.606
  0.607   0.607   0.608   0.620   0.620   0.625   0.639   0.678
  0.678   0.711   0.726   0.726   0.727   0.734   0.737   0.739
  0.739   0.768   0.768   0.843   0.843   0.846   0.846   0.854
  0.854   0.887   0.899   0.899   0.902   0.904   1.005   1.062
  1.062   1.109   1.122   1.122   1.143   1.173   1.173   1.205
  1.257   1.257   1.274   1.274   1.312   1.372   1.375   1.375
  1.377   1.377   1.433   1.433   1.454   1.454   1.465   1.465
  1.486   1.501   1.558   1.577   1.577   1.665   1.677   1.800
  1.812   1.812   1.830   1.830   1.931   2.076   2.076   2.088
  2.088   2.177   2.548   2.584   2.601   2.617   2.663   2.663
  2.722   2.722   2.747   2.747   2.793   2.829   2.829   2.836
  2.864   2.864   2.876   2.903   2.903   2.914   2.929   2.929
  2.943   2.943   2.987   3.011   3.011   3.111   3.162   3.162
  3.188   3.188   3.192   3.231   3.231   3.261   3.276   3.276
  3.290   3.344   3.372   3.372   3.399   3.399   3.411   3.411
  3.436   3.436   3.476   3.481   3.481   3.500   3.582   3.593
  3.647   3.647   3.687   3.751   3.787   3.827   3.827   3.862
  3.875   3.875   3.939   3.939   3.941   3.941   3.997   3.997
  4.012   4.040   4.065   4.116   4.157   4.157   4.203   4.203
  4.269   4.308   4.308   4.457   4.458   4.458   4.531   4.541
  4.541   4.564   4.568   4.568   4.589   4.590   4.696   4.758
  4.758   4.808   4.808   4.855   5.100   5.140   5.140   5.190
  5.190   5.214   5.237   5.448   5.448   5.831   5.831   5.863
  5.863   5.894   6.338   6.626  23.770  24.391  24.391  24.732
 24.732  25.285  27.227  27.380  27.380  27.479  27.479  27.734
 27.987  28.112  28.112  28.267  28.277  28.277  28.480  28.480
 28.551  28.551  28.625  29.100  40.796  40.841  40.853  40.882
 40.923  40.963  40.966  41.005  41.027  41.072  41.139  41.147
 41.182  41.186  41.186  41.193  41.193  41.193  41.233  41.233
 41.244  41.247  41.247  41.271  41.286  41.297  41.371  41.432
 41.523  41.567
 --------------------------------------------------------------
 
          Ground-State Mulliken Net Atomic Charges

     Atom                 Charge (a.u.)
  ----------------------------------------
      1 C                    -0.171866
      2 C                    -0.172103
      3 C                    -0.172102
      4 C                    -0.171866
      5 C                    -0.172102
      6 C                    -0.172102
      7 H                     0.172096
      8 H                     0.171988
      9 H                     0.171988
     10 H                     0.172096
     11 H                     0.171988
     12 H                     0.171988
  ----------------------------------------
  Sum of atomic charges =     0.000000

 -----------------------------------------------------------------
                    Cartesian Multipole Moments
 -----------------------------------------------------------------
    Charge (ESU x 10^10)
                 0.0000
    Dipole Moment (Debye)
         X       0.0000      Y       0.0000      Z       0.0000
       Tot       0.0000
    Quadrupole Moments (Debye-Ang)
        XX     -32.5246     XY       0.0000     YY     -40.6175
        XZ       0.0000     YZ       0.0000     ZZ     -32.5278
    Octapole Moments (Debye-Ang^2)
       XXX       0.0000    XXY       0.0000    XYY       0.0000
       YYY       0.0000    XXZ       0.0000    XYZ       0.0000
       YYZ       0.0000    XZZ       0.0000    YZZ       0.0000
       ZZZ       0.0000
    Hexadecapole Moments (Debye-Ang^3)
      XXXX    -280.3592   XXXY       0.0000   XXYY     -66.1587
      XYYY       0.0000   YYYY     -50.6041   XXXZ       0.0000
      XXYZ       0.0000   XYYZ       0.0000   YYYZ       0.0000
      XXZZ     -93.4535   XYZZ       0.0000   YYZZ     -66.1542
      XZZZ       0.0000   YZZZ       0.0000   ZZZZ    -280.3531
 -----------------------------------------------------------------
 Calculating analytic gradient of the SCF energy
 Gradient of AOints
            1           2           3           4           5           6
    1   0.0000003  -7.2036140  -7.2036137   0.0000001   7.2036138   7.2036134
    2  -0.0000014  -0.0000003   0.0000052  -0.0000021  -0.0000027   0.0000010
    3  -8.3145037  -4.1616715   4.1616714   8.3145038   4.1616713  -4.1616713
            7           8           9          10          11          12
    1   0.0000001  -3.8489813  -3.8489812   0.0000000   3.8489813   3.8489813
    2  -0.0000001  -0.0000004   0.0000001  -0.0000001   0.0000001   0.0000006
    3  -4.4445983  -2.2218976   2.2218975   4.4445983   2.2218976  -2.2218975
 Gradient of XC Energy
            1           2           3           4           5           6
    1  -0.0000000   0.0565023   0.0565023  -0.0000000  -0.0565023  -0.0565023
    2   0.0000000  -0.0000000  -0.0000001   0.0000000   0.0000001   0.0000000
    3   0.0652417   0.0326806  -0.0326806  -0.0652417  -0.0326806   0.0326806
            7           8           9          10          11          12
    1  -0.0000000   0.1528177   0.1528177   0.0000000  -0.1528177  -0.1528177
    2  -0.0000000   0.0000000   0.0000000  -0.0000000  -0.0000000  -0.0000000
    3   0.1764495   0.0882278  -0.0882278  -0.1764495  -0.0882278   0.0882278
 Gradient of SCF Energy
            1           2           3           4           5           6
    1  -0.0000000  -0.0009169  -0.0009169  -0.0000000   0.0009169   0.0009169
    2   0.0000000  -0.0000000  -0.0000000   0.0000000   0.0000000   0.0000000
    3  -0.0010464  -0.0005505   0.0005505   0.0010464   0.0005505  -0.0005505
            7           8           9          10          11          12
    1   0.0000000  -0.0002548  -0.0002548   0.0000000   0.0002548   0.0002548
    2  -0.0000000   0.0000000   0.0000000  -0.0000000  -0.0000000  -0.0000000
    3  -0.0002955  -0.0001465   0.0001465   0.0002955   0.0001465  -0.0001465
 Max gradient component =       1.046E-03
 RMS gradient           =       4.499E-04
 Gradient time:  CPU 414.67 s  wall 415.07 s
 Geometry Optimization Parameters
   NAtoms,    NIC,     NZ,  NCons,   NDum,   NFix, NCnnct, MaxDiis
       12      78      13       0       0       0       0       0

 Cartesian Hessian Update
 Hessian Updated using BFGS Update


** GEOMETRY OPTIMIZATION IN DELOCALIZED INTERNAL COORDINATES **
   Searching for a Minimum

   Optimization Cycle:   2

                       Coordinates (Angstroms)
     ATOM              X           Y           Z
    1  C           0.000000    0.000000    1.381287
    2  C           1.196335    0.000000    0.690680
    3  C           1.196335    0.000000   -0.690680
    4  C           0.000000    0.000000   -1.381287
    5  C          -1.196335    0.000000   -0.690680
    6  C          -1.196335    0.000000    0.690680
    7  H           0.000000    0.000000    2.477163
    8  H           2.145394    0.000000    1.238558
    9  H           2.145394    0.000000   -1.238558
   10  H           0.000000    0.000000   -2.477163
   11  H          -2.145394    0.000000   -1.238558
   12  H          -2.145394    0.000000    1.238558
   Point Group: c1    Number of degrees of freedom:  30


   Energy is   -229.376433215

 Hessian Updated using BFGS Update

  7 Hessian modes will be used to form the next step
  Hessian Eigenvalues:
     0.022855    0.160000    0.219999    0.340966    0.351608    0.461861
     0.513227

 Minimum Search - Taking Simple RFO Step
 Searching for Lamda that Minimizes Along All modes
 Value Taken    Lamda =  -0.00002296
 Step Taken.  Stepsize is  0.006787

                             Maximum     Tolerance    Cnvgd?
         Gradient           0.003205      0.000300      NO
         Displacement       0.006586      0.001200      NO
         Energy change     -0.001368      0.000001      NO


 New Cartesian Coordinates Obtained by Inverse Iteration

 Displacement from previous Coordinates is:  0.010705
 Writing REM_CC_EA           12
 ----------------------------------------------------
       Standard Nuclear Orientation (Angstroms)
    I     Atom         X            Y            Z
 ----------------------------------------------------
    1      C       0.000000     0.000000     1.382673
    2      C       1.197547     0.000000     0.691384
    3      C       1.197547     0.000000    -0.691384
    4      C       0.000000     0.000000    -1.382673
    5      C      -1.197547     0.000000    -0.691384
    6      C      -1.197547     0.000000     0.691384
    7      H       0.000000     0.000000     2.478997
    8      H       2.146991     0.000000     1.239488
    9      H       2.146991     0.000000    -1.239488
   10      H       0.000000     0.000000    -2.478997
   11      H      -2.146991     0.000000    -1.239488
   12      H      -2.146991     0.000000     1.239488
 ----------------------------------------------------
 Nuclear Repulsion Energy =   204.6534564353 hartrees
 There are       21 alpha and       21 beta electrons
 Applying Cartesian multipole field
    Component          Value
    ---------          -----
     (2,0,0)        1.00000E-11
     (0,2,0)        2.00000E-11
     (0,0,2)       -3.00000E-11
 Nucleus-field energy     =    -0.0000000038 hartrees
 Requested basis set is G3large
 There are 96 shells and 312 basis functions
 A cutoff of  1.0D-11 yielded   4305 shell pairs
 There are  46173 function pairs ( 57720 Cartesian)
Evaluating contribution to one-electron hamiltonian from nuclear
 Smallest overlap matrix eigenvalue = 8.43E-07

 Q-Chem warning in module mkSTV.C, line 194:

 Overlap eigenvalue is smaller than square root of threshold

 Linear dependence detected in AO basis
 Number of orthogonalized atomic orbitals = 311
 Maximum deviation from orthogonality = 2.341E-11
 Multipole matrices computed through 2nd order
 Guess MOs from SCF MO coefficient file
Reading MOs from coefficient file
Reading MOs from coefficient file
 A restricted hybrid HF-DFT SCF calculation will be
 performed using Pulay DIIS extrapolation
 Exchange:     1.0000 Hartree-Fock + 1.0000 BNL
 Correlation:  1.0000 LYP
 Using SG-1 standard quadrature grid
 SCF converges when DIIS error is below 1.0E-08
 ---------------------------------------
  Cycle       Energy         DIIS Error
 ---------------------------------------
    1    -229.3795083830      4.41E-05
    2    -229.3764434541      6.98E-06
    3    -229.3764438442      5.19E-06
    4    -229.3764440804      4.26E-07
    5    -229.3764444593      9.75E-08
    6    -229.3764444102      1.85E-08
    7    -229.3764444251      2.32E-09 Convergence criterion met
 ---------------------------------------
 One-Electron    Energy =  -716.2574137961
 Total Coulomb   Energy =   313.9305426875
 Alpha Exchange  Energy =    -3.3555093045
 Beta  Exchange  Energy =    -3.3555093045
 DFT   Exchange  Energy =   -23.5999837093
 DFT Correlation Energy =    -1.3920274297
 Nuclear Repu.   Energy =   204.6534564316
 Nuclear Attr.   Energy =  -944.4752063827
 Kinetic         Energy =   228.2177925866
 SCF time:  CPU 389.19 s  wall 391.04 s
 Final Alpha MO Eigenvalues
            1           2           3           4           5           6
    1  -9.9278969  -9.9278748  -9.9278731  -9.9274427  -9.9274411  -9.9273185
            7           8           9          10          11          12
    1  -0.9544974  -0.8410034  -0.8409875  -0.6968974  -0.6968919  -0.6274688
           13          14          15          16          17          18
    1  -0.5485208  -0.5430983  -0.5135291  -0.5134962  -0.4866612  -0.4292683
           19          20          21          22          23          24
    1  -0.4292179  -0.3507641  -0.3507590   0.0302499   0.0414606   0.0414656
           25          26
    1   0.0557060   0.0557295
 Analysis of SCF Wavefunction
 
 --------------------------------------------------------------
                    Orbital Energies (a.u.)
 --------------------------------------------------------------
 
 Alpha MOs
 -- Occupied --
 -9.928  -9.928  -9.928  -9.927  -9.927  -9.927  -0.954  -0.841
 -0.841  -0.697  -0.697  -0.627  -0.549  -0.543  -0.514  -0.513
 -0.487  -0.429  -0.429  -0.351  -0.351
 -- Virtual --
  0.030   0.041   0.041   0.056   0.056   0.060   0.060   0.092
  0.107   0.128   0.132   0.132   0.141   0.158   0.159   0.159
  0.160   0.160   0.184   0.184   0.187   0.194   0.194   0.201
  0.201   0.224   0.235   0.235   0.265   0.265   0.271   0.291
  0.294   0.344   0.344   0.357   0.361   0.361   0.417   0.417
  0.427   0.427   0.502   0.508   0.517   0.600   0.606   0.606
  0.607   0.607   0.607   0.619   0.619   0.625   0.638   0.678
  0.678   0.711   0.725   0.726   0.727   0.734   0.736   0.739
  0.739   0.767   0.767   0.843   0.843   0.846   0.846   0.853
  0.853   0.886   0.898   0.898   0.900   0.903   1.005   1.061
  1.061   1.109   1.121   1.121   1.142   1.172   1.172   1.205
  1.256   1.256   1.273   1.273   1.312   1.372   1.374   1.374
  1.376   1.377   1.432   1.432   1.453   1.453   1.464   1.464
  1.486   1.501   1.557   1.577   1.577   1.665   1.676   1.799
  1.810   1.810   1.831   1.831   1.930   2.074   2.074   2.087
  2.087   2.177   2.547   2.584   2.601   2.615   2.663   2.663
  2.721   2.721   2.748   2.748   2.793   2.828   2.828   2.837
  2.864   2.864   2.875   2.904   2.904   2.914   2.928   2.928
  2.943   2.943   2.986   3.009   3.009   3.111   3.163   3.163
  3.187   3.187   3.192   3.232   3.232   3.261   3.275   3.275
  3.287   3.343   3.371   3.371   3.396   3.397   3.411   3.411
  3.435   3.435   3.475   3.481   3.481   3.500   3.582   3.593
  3.645   3.645   3.686   3.749   3.785   3.825   3.825   3.859
  3.876   3.876   3.937   3.937   3.938   3.938   3.995   3.995
  4.011   4.038   4.063   4.115   4.155   4.155   4.202   4.202
  4.269   4.306   4.307   4.454   4.456   4.456   4.528   4.537
  4.537   4.562   4.564   4.564   4.585   4.585   4.692   4.754
  4.754   4.805   4.805   4.850   5.094   5.138   5.138   5.186
  5.186   5.210   5.236   5.445   5.445   5.826   5.826   5.859
  5.859   5.888   6.331   6.617  23.771  24.387  24.387  24.725
 24.725  25.276  27.226  27.379  27.379  27.478  27.478  27.732
 27.981  28.108  28.108  28.263  28.273  28.273  28.479  28.479
 28.551  28.551  28.620  29.099  40.796  40.840  40.852  40.882
 40.922  40.962  40.965  41.004  41.026  41.070  41.139  41.147
 41.180  41.185  41.185  41.190  41.192  41.192  41.232  41.232
 41.243  41.246  41.246  41.270  41.285  41.297  41.369  41.430
 41.521  41.564
 --------------------------------------------------------------
 
          Ground-State Mulliken Net Atomic Charges

     Atom                 Charge (a.u.)
  ----------------------------------------
      1 C                    -0.171939
      2 C                    -0.172198
      3 C                    -0.172199
      4 C                    -0.171939
      5 C                    -0.172198
      6 C                    -0.172199
      7 H                     0.172183
      8 H                     0.172076
      9 H                     0.172076
     10 H                     0.172183
     11 H                     0.172076
     12 H                     0.172076
  ----------------------------------------
  Sum of atomic charges =     0.000000

 -----------------------------------------------------------------
                    Cartesian Multipole Moments
 -----------------------------------------------------------------
    Charge (ESU x 10^10)
                 0.0000
    Dipole Moment (Debye)
         X       0.0000      Y       0.0000      Z       0.0000
       Tot       0.0000
    Quadrupole Moments (Debye-Ang)
        XX     -32.5188     XY       0.0000     YY     -40.6437
        XZ       0.0000     YZ       0.0000     ZZ     -32.5222
    Octapole Moments (Debye-Ang^2)
       XXX       0.0000    XXY       0.0000    XYY       0.0000
       YYY       0.0000    XXZ       0.0000    XYZ       0.0000
       YYZ       0.0000    XZZ       0.0000    YZZ       0.0000
       ZZZ       0.0000
    Hexadecapole Moments (Debye-Ang^3)
      XXXX    -280.7699   XXXY       0.0000   XXYY     -66.2906
      XYYY       0.0000   YYYY     -50.6759   XXXZ       0.0000
      XXYZ       0.0000   XYYZ       0.0000   YYYZ       0.0000
      XXZZ     -93.5900   XYZZ       0.0000   YYZZ     -66.2857
      XZZZ       0.0000   YZZZ       0.0000   ZZZZ    -280.7647
 -----------------------------------------------------------------
 Calculating analytic gradient of the SCF energy
 Gradient of AOints
            1           2           3           4           5           6
    1  -0.0000008  -7.2040415  -7.2040416   0.0000004   7.2040420   7.2040415
    2  -0.0000013  -0.0000006   0.0000018  -0.0000016  -0.0000002   0.0000013
    3  -8.3146253  -4.1619420   4.1619427   8.3146255   4.1619420  -4.1619427
            7           8           9          10          11          12
    1   0.0000000  -3.8453833  -3.8453834  -0.0000000   3.8453832   3.8453833
    2   0.0000000   0.0000001   0.0000003  -0.0000000   0.0000000   0.0000003
    3  -4.4403844  -2.2198315   2.2198314   4.4403844   2.2198314  -2.2198315
 Gradient of XC Energy
            1           2           3           4           5           6
    1   0.0000000   0.0566944   0.0566944  -0.0000000  -0.0566944  -0.0566944
    2   0.0000000   0.0000000  -0.0000000   0.0000000   0.0000000  -0.0000000
    3   0.0654519   0.0327911  -0.0327911  -0.0654520  -0.0327911   0.0327911
            7           8           9          10          11          12
    1  -0.0000000   0.1527179   0.1527179   0.0000000  -0.1527179  -0.1527179
    2  -0.0000000  -0.0000000  -0.0000000  -0.0000000  -0.0000000  -0.0000000
    3   0.1763329   0.0881708  -0.0881708  -0.1763329  -0.0881708   0.0881708
 Gradient of SCF Energy
            1           2           3           4           5           6
    1  -0.0000000   0.0000393   0.0000393   0.0000000  -0.0000393  -0.0000393
    2   0.0000000   0.0000000  -0.0000000   0.0000000   0.0000000  -0.0000000
    3   0.0000490   0.0000194  -0.0000194  -0.0000490  -0.0000194   0.0000194
            7           8           9          10          11          12
    1  -0.0000000   0.0000178   0.0000178  -0.0000000  -0.0000178  -0.0000178
    2  -0.0000000  -0.0000000   0.0000000  -0.0000000  -0.0000000  -0.0000000
    3   0.0000200   0.0000107  -0.0000106  -0.0000200  -0.0000106   0.0000107
 Max gradient component =       4.900E-05
 RMS gradient           =       2.042E-05
 Gradient time:  CPU 417.85 s  wall 418.23 s
 Geometry Optimization Parameters
   NAtoms,    NIC,     NZ,  NCons,   NDum,   NFix, NCnnct, MaxDiis
       12      78      13       0       0       0       0       0

 Cartesian Hessian Update
 Hessian Updated using BFGS Update


** GEOMETRY OPTIMIZATION IN DELOCALIZED INTERNAL COORDINATES **
   Searching for a Minimum

   Optimization Cycle:   3

                       Coordinates (Angstroms)
     ATOM              X           Y           Z
    1  C           0.000000    0.000000    1.382673
    2  C           1.197547    0.000000    0.691384
    3  C           1.197547    0.000000   -0.691384
    4  C           0.000000    0.000000   -1.382673
    5  C          -1.197547    0.000000   -0.691384
    6  C          -1.197547    0.000000    0.691384
    7  H           0.000000    0.000000    2.478997
    8  H           2.146991    0.000000    1.239488
    9  H           2.146991    0.000000   -1.239488
   10  H           0.000000    0.000000   -2.478997
   11  H          -2.146991    0.000000   -1.239488
   12  H          -2.146991    0.000000    1.239488
   Point Group: c1    Number of degrees of freedom:  30


   Energy is   -229.376444425

 Hessian Updated using BFGS Update

  8 Hessian modes will be used to form the next step
  Hessian Eigenvalues:
     0.160000    0.219996    0.220000    0.342563    0.351608    0.351608
     0.461857    0.536420

 Minimum Search - Taking Simple RFO Step
 Searching for Lamda that Minimizes Along All modes
 Value Taken    Lamda =   0.00000000
 Step Taken.  Stepsize is  0.000330

                             Maximum     Tolerance    Cnvgd?
         Gradient           0.000164      0.000300     YES
         Displacement       0.000327      0.001200     YES
         Energy change     -0.000011      0.000001      NO


                       Distance Matrix (Angstroms)
             C (  1)   C (  2)   C (  3)   C (  4)   C (  5)   C (  6)
   C (  2)  1.382750
   C (  3)  2.394959  1.382769
   C (  4)  2.765345  2.394959  1.382750
   C (  5)  2.394959  2.765596  2.395093  1.382750
   C (  6)  1.382750  2.395093  2.765596  2.394959  1.382769
   H (  7)  1.096325  2.151669  3.389017  3.861670  3.389017  2.151669
   H (  8)  2.151760  1.096294  2.151676  3.388996  3.861890  3.389152
   H (  9)  3.388996  2.151676  1.096294  2.151760  3.389152  3.861890
   H ( 10)  3.861670  3.389017  2.151669  1.096325  2.151669  3.389017
   H ( 11)  3.388996  3.861890  3.389152  2.151760  1.096294  2.151676
   H ( 12)  2.151760  3.389152  3.861890  3.388996  2.151676  1.096294
             H (  7)   H (  8)   H (  9)   H ( 10)   H ( 11)
   H (  8)  2.479103
   H (  9)  4.293798  2.478975
   H ( 10)  4.957994  4.293798  2.479103
   H ( 11)  4.293798  4.958185  4.293982  2.479103
   H ( 12)  2.479103  4.293982  4.958185  4.293798  2.478975
 


 ******************************
 **  OPTIMIZATION CONVERGED  **
 ******************************
 Analysis of SCF Wavefunction
 
 --------------------------------------------------------------
                    Orbital Energies (a.u.)
 --------------------------------------------------------------
 
 Alpha MOs
 -- Occupied --
 -9.928  -9.928  -9.928  -9.927  -9.927  -9.927  -0.954  -0.841
 -0.841  -0.697  -0.697  -0.627  -0.549  -0.543  -0.514  -0.513
 -0.487  -0.429  -0.429  -0.351  -0.351
 -- Virtual --
  0.030   0.041   0.041   0.056   0.056   0.060   0.060   0.092
  0.107   0.128   0.132   0.132   0.141   0.158   0.159   0.159
  0.160   0.160   0.184   0.184   0.187   0.194   0.194   0.201
  0.201   0.224   0.235   0.235   0.265   0.265   0.271   0.291
  0.294   0.344   0.344   0.357   0.361   0.361   0.417   0.417
  0.427   0.427   0.502   0.508   0.517   0.600   0.606   0.606
  0.607   0.607   0.607   0.619   0.619   0.625   0.638   0.678
  0.678   0.711   0.725   0.726   0.727   0.734   0.736   0.739
  0.739   0.767   0.767   0.843   0.843   0.846   0.846   0.853
  0.853   0.886   0.898   0.898   0.900   0.903   1.005   1.061
  1.061   1.109   1.121   1.121   1.142   1.172   1.172   1.205
  1.256   1.256   1.273   1.273   1.312   1.372   1.374   1.374
  1.376   1.377   1.432   1.432   1.453   1.453   1.464   1.464
  1.486   1.501   1.557   1.577   1.577   1.665   1.676   1.799
  1.810   1.810   1.831   1.831   1.930   2.074   2.074   2.087
  2.087   2.177   2.547   2.584   2.601   2.615   2.663   2.663
  2.721   2.721   2.748   2.748   2.793   2.828   2.828   2.837
  2.864   2.864   2.875   2.904   2.904   2.914   2.928   2.928
  2.943   2.943   2.986   3.009   3.009   3.111   3.163   3.163
  3.187   3.187   3.192   3.232   3.232   3.261   3.275   3.275
  3.287   3.343   3.371   3.371   3.396   3.397   3.411   3.411
  3.435   3.435   3.475   3.481   3.481   3.500   3.582   3.593
  3.645   3.645   3.686   3.749   3.785   3.825   3.825   3.859
  3.876   3.876   3.937   3.937   3.938   3.938   3.995   3.995
  4.011   4.038   4.063   4.115   4.155   4.155   4.202   4.202
  4.269   4.306   4.307   4.454   4.456   4.456   4.528   4.537
  4.537   4.562   4.564   4.564   4.585   4.585   4.692   4.754
  4.754   4.805   4.805   4.850   5.094   5.138   5.138   5.186
  5.186   5.210   5.236   5.445   5.445   5.826   5.826   5.859
  5.859   5.888   6.331   6.617  23.771  24.387  24.387  24.725
 24.725  25.276  27.226  27.379  27.379  27.478  27.478  27.732
 27.981  28.108  28.108  28.263  28.273  28.273  28.479  28.479
 28.551  28.551  28.620  29.099  40.796  40.840  40.852  40.882
 40.922  40.962  40.965  41.004  41.026  41.070  41.139  41.147
 41.180  41.185  41.185  41.190  41.192  41.192  41.232  41.232
 41.243  41.246  41.246  41.270  41.285  41.297  41.369  41.430
 41.521  41.564
 --------------------------------------------------------------
 
          Ground-State Mulliken Net Atomic Charges

     Atom                 Charge (a.u.)
  ----------------------------------------
      1 C                    -0.171939
      2 C                    -0.172198
      3 C                    -0.172199
      4 C                    -0.171939
      5 C                    -0.172198
      6 C                    -0.172199
      7 H                     0.172183
      8 H                     0.172076
      9 H                     0.172076
     10 H                     0.172183
     11 H                     0.172076
     12 H                     0.172076
  ----------------------------------------
  Sum of atomic charges =     0.000000

 -----------------------------------------------------------------
                    Cartesian Multipole Moments
 -----------------------------------------------------------------
    Charge (ESU x 10^10)
                 0.0000
    Dipole Moment (Debye)
         X       0.0000      Y       0.0000      Z       0.0000
       Tot       0.0000
    Quadrupole Moments (Debye-Ang)
        XX     -32.5188     XY       0.0000     YY     -40.6437
        XZ       0.0000     YZ       0.0000     ZZ     -32.5222
    Octapole Moments (Debye-Ang^2)
       XXX       0.0000    XXY       0.0000    XYY       0.0000
       YYY       0.0000    XXZ       0.0000    XYZ       0.0000
       YYZ       0.0000    XZZ       0.0000    YZZ       0.0000
       ZZZ       0.0000
    Hexadecapole Moments (Debye-Ang^3)
      XXXX    -280.7699   XXXY       0.0000   XXYY     -66.2906
      XYYY       0.0000   YYYY     -50.6759   XXXZ       0.0000
      XXYZ       0.0000   XYYZ       0.0000   YYYZ       0.0000
      XXZZ     -93.5900   XYZZ       0.0000   YYZZ     -66.2857
      XZZZ       0.0000   YZZZ       0.0000   ZZZZ    -280.7647
 -----------------------------------------------------------------
 Total job time:  2717.45s(wall), 2706.92s(cpu) 
 Sat Apr 23 19:35:09 2011

        *************************************************************
        *                                                           *
        *  Thank you very much for using Q-Chem.  Have a nice day.  *
        *                                                           *
        *************************************************************


0 sent ACK to 0 
now end server 0 ... 
 
**********************************************************************
Job 2 of 2 
**********************************************************************
 
Process 0 of 1 is on cl253.stfx.acenet.ca - thread support 1
initial socket setup ...start
initial socket setup ...done 
now start server 0 ... 

cmd = /usr/bin/ssh clhead /usr/local/qchem/bin/get_hostid 1057161696 > /scratch/tmp/4506634.1.long.q/qchem19069/lic.dat
                  Welcome to Q-Chem
     A Quantum Leap Into The Future Of Chemistry

 Y. Shao, L. Fusti-Molnar, Y. Jung, J. Kussmann, C. Ochsenfeld,
 S. T. Brown, A. T. B. Gilbert, L. V. Slipchenko,S. V. Levchenko,
 D. P. O'Neill, R. A. DiStasio Jr., R. C. Lochan, T. Wang,
 G. J. O. Beran, N. A. Besley, J. M. Herbert, C. Y. Lin,
 T. Van Voorhis, S. H. Chien, A. Sodt, R. P. Steele, 
 V. A. Rassolov, P. E. Maslen, P. P. Korambath, R. D. Adamson,
 B. Austin, J. Baker, E. F. C. Byrd, H. Dachsel, R. J. Doerksen,
 A. Dreuw, B. D. Dunietz, A. D. Dutoi, T. R. Furlani,
 S. R. Gwaltney, A. Heyden, S. Hirata, C.-P. Hsu, G. Kedziora,
 R. Z. Khaliullin, P. Klunzinger, A. M. Lee, M. S. Lee, W. Liang,
 I. Lotan, N. Nair, B. Peters, E. I. Proynov, P. A. Pieniazek, 
 Y. M. Rhee, J. Ritchie, E. Rosta, C. D. Sherrill, 
 A. C. Simmonett, J. E. Subotnik, H. L. Woodcock III,
 W. Zhang, A. T. Bell, A. K. Chakraborty, D. M. Chipman,
 F. J. Keil, A. Warshel, W. J. Hehre, H. F. Schaefer III,
 J. Kong, A. I. Krylov, P. M. W. Gill, M. Head-Gordon,
 Q-Chem, Version 3.1, Q-Chem, Inc., Pittsburgh, PA (2007).

 Additional authors for Version 3.1: 
 Z. Gan, Y. Zhao, N. E. Schultz, D. Truhlar, E. Epifanovsky and M. Oana.

 Additional authors for Version 3.2: 
 R. Baer, B. R. Brooks, D. Casanova, J.-D. Chai, C.-L. Cheng, 
 C. Cramer, D. Crittenden, A. Ghysels, G. Hawkins, E. G. Hohenstein, 
 C. Kelley, W. Kurlancheek, D. Liotard, E. Livshits, P. Manohar, 
 A. Marenich, D. Neuhauser, R. Olson, M. A. Rohrdanz, K. S. Thanthiriwatte, 
 A. J. W. Thom, V. Vanovschi, C. F. Williams, Q. Wu and Z.-Q. You. 


 Intel X86 Linux Version

 Q-chem begins on Sat Apr 23 19:35:11 2011  

 Parallel job on  1  processors
Processing $rem in /usr/local/qchem/config/preferences.

theFileMan(): MAXOPENFILES=974 MAX_SUB_FILE_NUM=16
Maximum size of a physical file is 2.0 GB, maximum size of a tmp-file is 32.0 GB


--------------------------------------------------------------
User input:
--------------------------------------------------------------

$molecule 
READ 
$end 

$xc_functional
   X HF 1.0
   X BNL 1.0
   C LYP 1.0
$end

$rem
SYMMETRY_DECOMPOSITION	0
exchange 		general
BASIS                   g3large
omega			310 
JOBTYPE                 freq
IDERIV 1
SCF_GUESS READ
separate_jk		true
mem_static              760
max_scf_cycles          200
scf_final_print         1
sym_ignore              true
$end

--------------------------------------------------------------
 Writing REM_CC_EA           12
 ----------------------------------------------------
       Standard Nuclear Orientation (Angstroms)
    I     Atom         X            Y            Z
 ----------------------------------------------------
    1      C       0.000000     0.000000     1.382673
    2      C       1.197547     0.000000     0.691384
    3      C       1.197547     0.000000    -0.691384
    4      C       0.000000     0.000000    -1.382673
    5      C      -1.197547     0.000000    -0.691384
    6      C      -1.197547     0.000000     0.691384
    7      H       0.000000     0.000000     2.478997
    8      H       2.146991     0.000000     1.239488
    9      H       2.146991     0.000000    -1.239488
   10      H       0.000000     0.000000    -2.478997
   11      H      -2.146991     0.000000    -1.239488
   12      H      -2.146991     0.000000     1.239488
 ----------------------------------------------------
 Nuclear Repulsion Energy =   204.6534564353 hartrees
 There are       21 alpha and       21 beta electrons
 Requested basis set is G3large
 There are 96 shells and 312 basis functions

Total QAlloc Memory Limit   2000 MB
Mega-Array Size       759 MB
MEM_STATIC part       760 MB

                       Distance Matrix (Angstroms)
             C (  1)   C (  2)   C (  3)   C (  4)   C (  5)   C (  6)
   C (  2)  1.382750
   C (  3)  2.394959  1.382769
   C (  4)  2.765345  2.394959  1.382750
   C (  5)  2.394959  2.765596  2.395093  1.382750
   C (  6)  1.382750  2.395093  2.765596  2.394959  1.382769
   H (  7)  1.096325  2.151669  3.389017  3.861670  3.389017  2.151669
   H (  8)  2.151760  1.096294  2.151676  3.388996  3.861890  3.389152
   H (  9)  3.388996  2.151676  1.096294  2.151760  3.389152  3.861890
   H ( 10)  3.861670  3.389017  2.151669  1.096325  2.151669  3.389017
   H ( 11)  3.388996  3.861890  3.389152  2.151760  1.096294  2.151676
   H ( 12)  2.151760  3.389152  3.861890  3.388996  2.151676  1.096294
             H (  7)   H (  8)   H (  9)   H ( 10)   H ( 11)
   H (  8)  2.479103
   H (  9)  4.293798  2.478975
   H ( 10)  4.957994  4.293798  2.479103
   H ( 11)  4.293798  4.958185  4.293982  2.479103
   H ( 12)  2.479103  4.293982  4.958185  4.293798  2.478975
 
 A cutoff of  1.0D-11 yielded   4305 shell pairs
 There are  46173 function pairs ( 57720 Cartesian)
Evaluating contribution to one-electron hamiltonian from nuclear
 Smallest overlap matrix eigenvalue = 8.43E-07

 Q-Chem warning in module mkSTV.C, line 194:

 Overlap eigenvalue is smaller than square root of threshold

 Linear dependence detected in AO basis
 Number of orthogonalized atomic orbitals = 311
 Maximum deviation from orthogonality = 1.366E-11
 Multipole matrices computed through 2nd order
 Guess MOs from SCF MO coefficient file
Reading MOs from coefficient file
Reading MOs from coefficient file
 A restricted hybrid HF-DFT SCF calculation will be
 performed using Pulay DIIS extrapolation
 Exchange:     1.0000 Hartree-Fock + 1.0000 BNL
 Correlation:  1.0000 LYP
 Using SG-1 standard quadrature grid
 SCF converges when DIIS error is below 1.0E-08
 ---------------------------------------
  Cycle       Energy         DIIS Error
 ---------------------------------------
    1    -229.3764440228      6.52E-10
    2    -229.3764440236      2.99E-10 Convergence criterion met
 ---------------------------------------
 One-Electron    Energy =  -716.2574142560
 Total Coulomb   Energy =   313.9305432033
 Alpha Exchange  Energy =    -3.3555092949
 Beta  Exchange  Energy =    -3.3555092949
 DFT   Exchange  Energy =   -23.5999834228
 DFT Correlation Energy =    -1.3920273936
 Nuclear Repu.   Energy =   204.6534564353
 Nuclear Attr.   Energy =  -944.4752077621
 Kinetic         Energy =   228.2177935062
 SCF time:  CPU 132.66 s  wall 133.21 s
 Final Alpha MO Eigenvalues
            1           2           3           4           5           6
    1  -9.9278969  -9.9278748  -9.9278731  -9.9274427  -9.9274411  -9.9273186
            7           8           9          10          11          12
    1  -0.9544974  -0.8410034  -0.8409875  -0.6968974  -0.6968919  -0.6274688
           13          14          15          16          17          18
    1  -0.5485208  -0.5430983  -0.5135291  -0.5134962  -0.4866612  -0.4292683
           19          20          21          22          23          24
    1  -0.4292179  -0.3507641  -0.3507590   0.0302500   0.0414605   0.0414656
           25          26
    1   0.0557060   0.0557295
 Analysis of SCF Wavefunction
 
 --------------------------------------------------------------
                    Orbital Energies (a.u.)
 --------------------------------------------------------------
 
 Alpha MOs
 -- Occupied --
 -9.928  -9.928  -9.928  -9.927  -9.927  -9.927  -0.954  -0.841
 -0.841  -0.697  -0.697  -0.627  -0.549  -0.543  -0.514  -0.513
 -0.487  -0.429  -0.429  -0.351  -0.351
 -- Virtual --
  0.030   0.041   0.041   0.056   0.056   0.060   0.060   0.092
  0.107   0.128   0.132   0.132   0.141   0.158   0.159   0.159
  0.160   0.160   0.184   0.184   0.187   0.194   0.194   0.201
  0.201   0.224   0.235   0.235   0.265   0.265   0.271   0.291
  0.294   0.344   0.344   0.357   0.361   0.361   0.417   0.417
  0.427   0.427   0.502   0.508   0.517   0.600   0.606   0.606
  0.607   0.607   0.607   0.619   0.619   0.625   0.638   0.678
  0.678   0.711   0.725   0.726   0.727   0.734   0.736   0.739
  0.739   0.767   0.767   0.843   0.843   0.846   0.846   0.853
  0.853   0.886   0.898   0.898   0.900   0.903   1.005   1.061
  1.061   1.109   1.121   1.121   1.142   1.172   1.172   1.205
  1.256   1.256   1.273   1.273   1.312   1.372   1.374   1.374
  1.376   1.377   1.432   1.432   1.453   1.453   1.464   1.464
  1.486   1.501   1.557   1.577   1.577   1.665   1.676   1.799
  1.810   1.810   1.831   1.831   1.930   2.074   2.074   2.087
  2.087   2.177   2.547   2.584   2.601   2.615   2.663   2.663
  2.721   2.721   2.748   2.748   2.793   2.828   2.828   2.837
  2.864   2.864   2.875   2.904   2.904   2.914   2.928   2.928
  2.943   2.943   2.986   3.009   3.009   3.111   3.163   3.163
  3.187   3.187   3.192   3.232   3.232   3.261   3.275   3.275
  3.287   3.343   3.371   3.371   3.396   3.397   3.411   3.411
  3.435   3.435   3.475   3.481   3.481   3.500   3.582   3.593
  3.645   3.645   3.686   3.749   3.785   3.825   3.825   3.859
  3.876   3.876   3.937   3.937   3.938   3.938   3.995   3.995
  4.011   4.038   4.063   4.115   4.155   4.155   4.202   4.202
  4.269   4.306   4.307   4.454   4.456   4.456   4.528   4.537
  4.537   4.562   4.564   4.564   4.585   4.585   4.692   4.754
  4.754   4.805   4.805   4.850   5.094   5.138   5.138   5.186
  5.186   5.210   5.236   5.445   5.445   5.826   5.826   5.859
  5.859   5.888   6.331   6.617  23.771  24.387  24.387  24.725
 24.725  25.276  27.226  27.379  27.379  27.478  27.478  27.732
 27.981  28.108  28.108  28.263  28.273  28.273  28.479  28.479
 28.551  28.551  28.620  29.099  40.796  40.840  40.852  40.882
 40.922  40.962  40.965  41.004  41.026  41.070  41.139  41.147
 41.180  41.185  41.185  41.190  41.192  41.192  41.232  41.232
 41.243  41.246  41.246  41.270  41.285  41.297  41.369  41.430
 41.521  41.564
 --------------------------------------------------------------
 
          Ground-State Mulliken Net Atomic Charges

     Atom                 Charge (a.u.)
  ----------------------------------------
      1 C                    -0.171939
      2 C                    -0.172198
      3 C                    -0.172198
      4 C                    -0.171939
      5 C                    -0.172198
      6 C                    -0.172198
      7 H                     0.172183
      8 H                     0.172076
      9 H                     0.172076
     10 H                     0.172183
     11 H                     0.172076
     12 H                     0.172076
  ----------------------------------------
  Sum of atomic charges =     0.000000

 -----------------------------------------------------------------
                    Cartesian Multipole Moments
 -----------------------------------------------------------------
    Charge (ESU x 10^10)
                 0.0000
    Dipole Moment (Debye)
         X       0.0000      Y       0.0000      Z       0.0000
       Tot       0.0000
    Quadrupole Moments (Debye-Ang)
        XX     -32.5188     XY       0.0000     YY     -40.6437
        XZ       0.0000     YZ       0.0000     ZZ     -32.5222
    Octapole Moments (Debye-Ang^2)
       XXX       0.0000    XXY       0.0000    XYY       0.0000
       YYY       0.0000    XXZ       0.0000    XYZ       0.0000
       YYZ       0.0000    XZZ       0.0000    YZZ       0.0000
       ZZZ       0.0000
    Hexadecapole Moments (Debye-Ang^3)
      XXXX    -280.7699   XXXY       0.0000   XXYY     -66.2906
      XYYY       0.0000   YYYY     -50.6759   XXXZ       0.0000
      XXYZ       0.0000   XYYZ       0.0000   YYYZ       0.0000
      XXZZ     -93.5900   XYZZ       0.0000   YYZZ     -66.2857
      XZZZ       0.0000   YZZZ       0.0000   ZZZZ    -280.7647
 -----------------------------------------------------------------
 Calculating analytic gradient of the SCF energy
 Gradient of AOints
            1           2           3           4           5           6
    1  -0.0000000  -7.2040416  -7.2040414  -0.0000000   7.2040416   7.2040414
    2  -0.0000013  -0.0000005   0.0000018  -0.0000016  -0.0000003   0.0000014
    3  -8.3146295  -4.1619445   4.1619445   8.3146295   4.1619445  -4.1619445
            7           8           9          10          11          12
    1   0.0000000  -3.8453836  -3.8453836   0.0000000   3.8453836   3.8453835
    2  -0.0000000   0.0000000   0.0000002  -0.0000000   0.0000000   0.0000003
    3  -4.4403846  -2.2198310   2.2198310   4.4403846   2.2198310  -2.2198310
 Gradient of XC Energy
            1           2           3           4           5           6
    1   0.0000000   0.0566944   0.0566944  -0.0000000  -0.0566944  -0.0566944
    2   0.0000000   0.0000000  -0.0000000   0.0000000   0.0000000  -0.0000000
    3   0.0654520   0.0327912  -0.0327912  -0.0654521  -0.0327912   0.0327912
            7           8           9          10          11          12
    1  -0.0000000   0.1527180   0.1527180  -0.0000000  -0.1527180  -0.1527180
    2  -0.0000000  -0.0000000  -0.0000000  -0.0000000  -0.0000000  -0.0000000
    3   0.1763329   0.0881708  -0.0881708  -0.1763329  -0.0881708   0.0881708
 Gradient of SCF Energy
            1           2           3           4           5           6
    1  -0.0000000   0.0000393   0.0000393   0.0000000  -0.0000393  -0.0000393
    2   0.0000000   0.0000000  -0.0000000   0.0000000   0.0000000  -0.0000000
    3   0.0000490   0.0000194  -0.0000194  -0.0000490  -0.0000194   0.0000194
            7           8           9          10          11          12
    1  -0.0000000   0.0000178   0.0000178  -0.0000000  -0.0000178  -0.0000178
    2  -0.0000000  -0.0000000   0.0000000  -0.0000000  -0.0000000  -0.0000000
    3   0.0000200   0.0000106  -0.0000106  -0.0000200  -0.0000106   0.0000107
 Max gradient component =       4.900E-05
 RMS gradient           =       2.042E-05
 Gradient time:  CPU 429.16 s  wall 429.51 s
 ######################################################
 ######################################################
 # Starting finite difference calculation for IDERIV  #
 Finite diff step size: 1.89e-03 a.u.
 Writing REM_CC_EA           12
 ----------------------------------------------------
       Standard Nuclear Orientation (Angstroms)
    I     Atom         X            Y            Z
 ----------------------------------------------------
    1      C       0.001000     0.000000     1.382673
    2      C       1.197547     0.000000     0.691384
    3      C       1.197547     0.000000    -0.691384
    4      C       0.000000     0.000000    -1.382673
    5      C      -1.197547     0.000000    -0.691384
    6      C      -1.197547     0.000000     0.691384
    7      H       0.000000     0.000000     2.478997
    8      H       2.146991     0.000000     1.239488
    9      H       2.146991     0.000000    -1.239488
   10      H       0.000000     0.000000    -2.478997
   11      H      -2.146991     0.000000    -1.239488
   12      H      -2.146991     0.000000     1.239488
 ----------------------------------------------------
 Nuclear Repulsion Energy =   204.6534640641 hartrees
 There are       21 alpha and       21 beta electrons

                       Distance Matrix (Angstroms)
             C (  1)   C (  2)   C (  3)   C (  4)   C (  5)   C (  6)
   C (  2)  1.381884
   C (  3)  2.394460  1.382769
   C (  4)  2.765345  2.394959  1.382750
   C (  5)  2.395460  2.765596  2.395093  1.382750
   C (  6)  1.383616  2.395093  2.765596  2.394959  1.382769
   H (  7)  1.096325  2.151669  3.389017  3.861670  3.389017  2.151669
   H (  8)  2.150762  1.096294  2.151676  3.388996  3.861890  3.389152
   H (  9)  3.388362  2.151676  1.096294  2.151760  3.389152  3.861890
   H ( 10)  3.861670  3.389017  2.151669  1.096325  2.151669  3.389017
   H ( 11)  3.389629  3.861890  3.389152  2.151760  1.096294  2.151676
   H ( 12)  2.152758  3.389152  3.861890  3.388996  2.151676  1.096294
             H (  7)   H (  8)   H (  9)   H ( 10)   H ( 11)
   H (  8)  2.479103
   H (  9)  4.293798  2.478975
   H ( 10)  4.957994  4.293798  2.479103
   H ( 11)  4.293798  4.958185  4.293982  2.479103
   H ( 12)  2.479103  4.293982  4.958185  4.293798  2.478975
 
 Requested basis set is G3large
 There are 96 shells and 312 basis functions
 A cutoff of  1.0D-11 yielded   4305 shell pairs
 There are  46173 function pairs ( 57720 Cartesian)
Evaluating contribution to one-electron hamiltonian from nuclear
 Smallest overlap matrix eigenvalue = 8.43E-07

 Q-Chem warning in module mkSTV.C, line 194:

 Overlap eigenvalue is smaller than square root of threshold

 Linear dependence detected in AO basis
 Number of orthogonalized atomic orbitals = 311
 Maximum deviation from orthogonality = 2.733E-11
 Multipole matrices computed through 2nd order
 Guess MOs from SCF MO coefficient file
Reading MOs from coefficient file
Reading MOs from coefficient file
 A restricted hybrid HF-DFT SCF calculation will be
 performed using Pulay DIIS extrapolation
 Exchange:     1.0000 Hartree-Fock + 1.0000 BNL
 Correlation:  1.0000 LYP
 Using SG-1 standard quadrature grid
 SCF converges when DIIS error is below 1.0E-08
 ---------------------------------------
  Cycle       Energy         DIIS Error
 ---------------------------------------
    1    -229.3764429359      2.37E-05
    2    -229.3764426398      2.96E-06
    3    -229.3764426907      2.90E-06
    4    -229.3764427901      4.44E-07
    5    -229.3764427960      2.06E-07
    6    -229.3764427989      1.30E-07
    7    -229.3764427998      3.53E-08
    8    -229.3764428003      4.82E-09 Convergence criterion met
 ---------------------------------------
 One-Electron    Energy =  -716.2574273954
 Total Coulomb   Energy =   313.9305505983
 Alpha Exchange  Energy =    -3.3555093012
 Beta  Exchange  Energy =    -3.3555093012
 DFT   Exchange  Energy =   -23.5999840514
 DFT Correlation Energy =    -1.3920274136
 Nuclear Repu.   Energy =   204.6534640641
 Nuclear Attr.   Energy =  -944.4752262952
 Kinetic         Energy =   228.2177988999
 SCF time:  CPU 429.70 s  wall 431.45 s
 Final Alpha MO Eigenvalues
            1           2           3           4           5           6
    1  -9.9279234  -9.9278810  -9.9278462  -9.9274657  -9.9274214  -9.9273092
            7           8           9          10          11          12
    1  -0.9544974  -0.8410823  -0.8409088  -0.6969562  -0.6968330  -0.6274688
           13          14          15          16          17          18
    1  -0.5485214  -0.5430980  -0.5135889  -0.5134363  -0.4866613  -0.4293587
           19          20          21          22          23          24
    1  -0.4291272  -0.3508593  -0.3506640   0.0302499   0.0414602   0.0414659
           25          26
    1   0.0556317   0.0558039
 Analysis of SCF Wavefunction
 
 --------------------------------------------------------------
                    Orbital Energies (a.u.)
 --------------------------------------------------------------
 
 Alpha MOs
 -- Occupied --
 -9.928  -9.928  -9.928  -9.927  -9.927  -9.927  -0.954  -0.841
 -0.841  -0.697  -0.697  -0.627  -0.549  -0.543  -0.514  -0.513
 -0.487  -0.429  -0.429  -0.351  -0.351
 -- Virtual --
  0.030   0.041   0.041   0.056   0.056   0.060   0.060   0.092
  0.107   0.128   0.132   0.132   0.141   0.158   0.159   0.159
  0.160   0.160   0.184   0.184   0.187   0.194   0.194   0.201
  0.201   0.224   0.235   0.235   0.265   0.265   0.271   0.291
  0.294   0.344   0.344   0.357   0.361   0.361   0.417   0.417
  0.427   0.427   0.502   0.508   0.517   0.600   0.606   0.606
  0.607   0.607   0.607   0.619   0.620   0.625   0.638   0.678
  0.678   0.711   0.725   0.726   0.727   0.734   0.736   0.739
  0.739   0.767   0.767   0.843   0.843   0.846   0.846   0.853
  0.853   0.886   0.898   0.898   0.900   0.903   1.005   1.061
  1.061   1.109   1.121   1.121   1.142   1.172   1.172   1.205
  1.256   1.256   1.273   1.273   1.312   1.372   1.374   1.374
  1.376   1.377   1.432   1.432   1.453   1.453   1.464   1.464
  1.486   1.501   1.557   1.577   1.577   1.665   1.676   1.799
  1.810   1.810   1.831   1.831   1.930   2.074   2.074   2.087
  2.087   2.177   2.547   2.584   2.601   2.615   2.663   2.663
  2.721   2.721   2.748   2.748   2.793   2.828   2.829   2.837
  2.864   2.864   2.875   2.904   2.904   2.914   2.928   2.928
  2.943   2.944   2.986   3.009   3.009   3.111   3.163   3.163
  3.186   3.187   3.192   3.232   3.232   3.261   3.275   3.275
  3.287   3.343   3.371   3.371   3.396   3.397   3.411   3.411
  3.434   3.435   3.475   3.481   3.481   3.500   3.582   3.593
  3.645   3.645   3.686   3.749   3.785   3.825   3.825   3.859
  3.876   3.876   3.937   3.937   3.938   3.938   3.995   3.995
  4.011   4.038   4.063   4.115   4.155   4.155   4.202   4.202
  4.269   4.306   4.307   4.454   4.455   4.456   4.528   4.536
  4.538   4.562   4.564   4.564   4.585   4.586   4.692   4.754
  4.755   4.805   4.806   4.850   5.094   5.137   5.138   5.186
  5.186   5.210   5.236   5.444   5.446   5.825   5.826   5.858
  5.859   5.888   6.331   6.617  23.771  24.386  24.388  24.724
 24.726  25.276  27.226  27.379  27.379  27.477  27.478  27.732
 27.981  28.107  28.108  28.262  28.272  28.273  28.478  28.479
 28.551  28.552  28.620  29.099  40.796  40.840  40.852  40.882
 40.922  40.962  40.965  41.004  41.026  41.070  41.139  41.147
 41.180  41.185  41.185  41.190  41.192  41.192  41.232  41.232
 41.243  41.246  41.246  41.270  41.285  41.297  41.369  41.430
 41.521  41.564
 --------------------------------------------------------------
 
          Ground-State Mulliken Net Atomic Charges

     Atom                 Charge (a.u.)
  ----------------------------------------
      1 C                    -0.171938
      2 C                    -0.172297
      3 C                    -0.172231
      4 C                    -0.171939
      5 C                    -0.172166
      6 C                    -0.172100
      7 H                     0.172183
      8 H                     0.172047
      9 H                     0.172070
     10 H                     0.172183
     11 H                     0.172082
     12 H                     0.172106
  ----------------------------------------
  Sum of atomic charges =     0.000000

 -----------------------------------------------------------------
                    Cartesian Multipole Moments
 -----------------------------------------------------------------
    Charge (ESU x 10^10)
                 0.0000
    Dipole Moment (Debye)
         X      -0.0004      Y       0.0000      Z       0.0000
       Tot       0.0004
    Quadrupole Moments (Debye-Ang)
        XX     -32.5188     XY       0.0000     YY     -40.6437
        XZ      -0.0009     YZ       0.0000     ZZ     -32.5222
    Octapole Moments (Debye-Ang^2)
       XXX      -0.0156    XXY       0.0000    XYY      -0.0026
       YYY       0.0000    XXZ       0.0000    XYZ       0.0000
       YYZ       0.0000    XZZ      -0.0105    YZZ       0.0000
       ZZZ       0.0000
    Hexadecapole Moments (Debye-Ang^3)
      XXXX    -280.7700   XXXY       0.0000   XXYY     -66.2906
      XYYY       0.0000   YYYY     -50.6759   XXXZ      -0.0269
      XXYZ       0.0000   XYYZ      -0.0043   YYYZ       0.0000
      XXZZ     -93.5900   XYZZ       0.0000   YYZZ     -66.2857
      XZZZ      -0.0270   YZZZ       0.0000   ZZZZ    -280.7647
 -----------------------------------------------------------------
 Calculating analytic gradient of the SCF energy
 Gradient of AOints
            1           2           3           4           5           6
    1  -0.0004764  -7.2072926  -7.2060730   0.0052091   7.2020073   7.2007882
    2  -0.0000012  -0.0000006   0.0000018  -0.0000016  -0.0000002   0.0000013
    3  -8.3146287  -4.1523389   4.1562544   8.3146331   4.1676314  -4.1715491
            7           8           9          10          11          12
    1   0.0053620  -3.8450588  -3.8454697   0.0000051   3.8452975   3.8457012
    2   0.0000000   0.0000001   0.0000002   0.0000000   0.0000001   0.0000002
    3  -4.4403858  -2.2207637   2.2200948   4.4403848   2.2195667  -2.2188990
 Gradient of XC Energy
            1           2           3           4           5           6
    1  -0.0000379   0.0568228   0.0567601  -0.0001228  -0.0566288  -0.0565658
    2   0.0000000   0.0000000  -0.0000000   0.0000000   0.0000000  -0.0000000
    3   0.0654522   0.0324757  -0.0326109  -0.0654522  -0.0329714   0.0331066
            7           8           9          10          11          12
    1  -0.0002076   0.1527017   0.1527237   0.0000009  -0.1527122  -0.1527340
    2  -0.0000000  -0.0000000  -0.0000000  -0.0000000  -0.0000000  -0.0000000
    3   0.1763328   0.0881963  -0.0881791  -0.1763329  -0.0881625   0.0881452
 Gradient of SCF Energy
            1           2           3           4           5           6
    1   0.0012940  -0.0005267   0.0001178  -0.0001564   0.0000392  -0.0006025
    2   0.0000000   0.0000000  -0.0000000   0.0000000   0.0000000  -0.0000000
    3   0.0000468   0.0001336   0.0001452  -0.0000490  -0.0001840  -0.0000929
            7           8           9          10          11          12
    1  -0.0001055  -0.0000140   0.0000212  -0.0000031  -0.0000144  -0.0000496
    2  -0.0000000  -0.0000000   0.0000000  -0.0000000  -0.0000000  -0.0000000
    3   0.0000202   0.0000372  -0.0000117  -0.0000200  -0.0000096  -0.0000158
 Max gradient component =       1.294E-03
 RMS gradient           =       2.613E-04
 Gradient time:  CPU 396.63 s  wall 396.95 s
 Writing REM_CC_EA           12
 ----------------------------------------------------
       Standard Nuclear Orientation (Angstroms)
    I     Atom         X            Y            Z
 ----------------------------------------------------
    1      C      -0.001000     0.000000     1.382673
    2      C       1.197547     0.000000     0.691384
    3      C       1.197547     0.000000    -0.691384
    4      C       0.000000     0.000000    -1.382673
    5      C      -1.197547     0.000000    -0.691384
    6      C      -1.197547     0.000000     0.691384
    7      H       0.000000     0.000000     2.478997
    8      H       2.146991     0.000000     1.239488
    9      H       2.146991     0.000000    -1.239488
   10      H       0.000000     0.000000    -2.478997
   11      H      -2.146991     0.000000    -1.239488
   12      H      -2.146991     0.000000     1.239488
 ----------------------------------------------------
 Nuclear Repulsion Energy =   204.6534640643 hartrees
 There are       21 alpha and       21 beta electrons

                       Distance Matrix (Angstroms)
             C (  1)   C (  2)   C (  3)   C (  4)   C (  5)   C (  6)
   C (  2)  1.383616
   C (  3)  2.395460  1.382769
   C (  4)  2.765345  2.394959  1.382750
   C (  5)  2.394460  2.765596  2.395093  1.382750
   C (  6)  1.381884  2.395093  2.765596  2.394959  1.382769
   H (  7)  1.096325  2.151669  3.389017  3.861670  3.389017  2.151669
   H (  8)  2.152758  1.096294  2.151676  3.388996  3.861890  3.389152
   H (  9)  3.389629  2.151676  1.096294  2.151760  3.389152  3.861890
   H ( 10)  3.861670  3.389017  2.151669  1.096325  2.151669  3.389017
   H ( 11)  3.388362  3.861890  3.389152  2.151760  1.096294  2.151676
   H ( 12)  2.150762  3.389152  3.861890  3.388996  2.151676  1.096294
             H (  7)   H (  8)   H (  9)   H ( 10)   H ( 11)
   H (  8)  2.479103
   H (  9)  4.293798  2.478975
   H ( 10)  4.957994  4.293798  2.479103
   H ( 11)  4.293798  4.958185  4.293982  2.479103
   H ( 12)  2.479103  4.293982  4.958185  4.293798  2.478975
 
 Requested basis set is G3large
 There are 96 shells and 312 basis functions
 A cutoff of  1.0D-11 yielded   4305 shell pairs
 There are  46173 function pairs ( 57720 Cartesian)
Evaluating contribution to one-electron hamiltonian from nuclear
 Smallest overlap matrix eigenvalue = 8.43E-07

 Q-Chem warning in module mkSTV.C, line 194:

 Overlap eigenvalue is smaller than square root of threshold

 Linear dependence detected in AO basis
 Number of orthogonalized atomic orbitals = 311
 Maximum deviation from orthogonality = 2.044E-11
 Multipole matrices computed through 2nd order
 Guess MOs from SCF MO coefficient file
Reading MOs from coefficient file
Reading MOs from coefficient file
 A restricted hybrid HF-DFT SCF calculation will be
 performed using Pulay DIIS extrapolation
 Exchange:     1.0000 Hartree-Fock + 1.0000 BNL
 Correlation:  1.0000 LYP
 Using SG-1 standard quadrature grid
 SCF converges when DIIS error is below 1.0E-08
 ---------------------------------------
  Cycle       Energy         DIIS Error
 ---------------------------------------
    1    -229.3764524116      4.75E-05
    2    -229.3764421599      5.93E-06
    3    -229.3764423643      5.79E-06
    4    -229.3764427587      8.87E-07
    5    -229.3764427846      4.12E-07
    6    -229.3764427977      2.60E-07
    7    -229.3764428007      7.07E-08
    8    -229.3764428007      9.64E-09 Convergence criterion met
 ---------------------------------------
 One-Electron    Energy =  -716.2574276008
 Total Coulomb   Energy =   313.9305508166
 Alpha Exchange  Energy =    -3.3555093015
 Beta  Exchange  Energy =    -3.3555093015
 DFT   Exchange  Energy =   -23.5999840634
 DFT Correlation Energy =    -1.3920274142
 Nuclear Repu.   Energy =   204.6534640643
 Nuclear Attr.   Energy =  -944.4752265893
 Kinetic         Energy =   228.2177989884
 SCF time:  CPU 440.25 s  wall 441.99 s
 Final Alpha MO Eigenvalues
            1           2           3           4           5           6
    1  -9.9279234  -9.9278810  -9.9278462  -9.9274657  -9.9274214  -9.9273092
            7           8           9          10          11          12
    1  -0.9544974  -0.8410823  -0.8409088  -0.6969562  -0.6968330  -0.6274688
           13          14          15          16          17          18
    1  -0.5485214  -0.5430980  -0.5135889  -0.5134363  -0.4866613  -0.4293587
           19          20          21          22          23          24
    1  -0.4291272  -0.3508593  -0.3506639   0.0302500   0.0414602   0.0414659
           25          26
    1   0.0556317   0.0558039
 Analysis of SCF Wavefunction
 
 --------------------------------------------------------------
                    Orbital Energies (a.u.)
 --------------------------------------------------------------
 
 Alpha MOs
 -- Occupied --
 -9.928  -9.928  -9.928  -9.927  -9.927  -9.927  -0.954  -0.841
 -0.841  -0.697  -0.697  -0.627  -0.549  -0.543  -0.514  -0.513
 -0.487  -0.429  -0.429  -0.351  -0.351
 -- Virtual --
  0.030   0.041   0.041   0.056   0.056   0.060   0.060   0.092
  0.107   0.128   0.132   0.132   0.141   0.158   0.159   0.159
  0.160   0.160   0.184   0.184   0.187   0.194   0.194   0.201
  0.201   0.224   0.235   0.235   0.265   0.265   0.271   0.291
  0.294   0.344   0.344   0.357   0.361   0.361   0.417   0.417
  0.427   0.427   0.502   0.508   0.517   0.600   0.606   0.606
  0.607   0.607   0.607   0.619   0.620   0.625   0.638   0.678
  0.678   0.711   0.725   0.726   0.727   0.734   0.736   0.739
  0.739   0.767   0.767   0.843   0.843   0.846   0.846   0.853
  0.853   0.886   0.898   0.898   0.900   0.903   1.005   1.061
  1.061   1.109   1.121   1.121   1.142   1.172   1.172   1.205
  1.256   1.256   1.273   1.273   1.312   1.372   1.374   1.374
  1.376   1.377   1.432   1.432   1.453   1.453   1.464   1.464
  1.486   1.501   1.557   1.577   1.577   1.665   1.676   1.799
  1.810   1.810   1.831   1.831   1.930   2.074   2.074   2.087
  2.087   2.177   2.547   2.584   2.601   2.615   2.663   2.663
  2.721   2.721   2.748   2.748   2.793   2.828   2.829   2.837
  2.864   2.864   2.875   2.904   2.904   2.914   2.928   2.928
  2.943   2.944   2.986   3.009   3.009   3.111   3.163   3.163
  3.186   3.187   3.192   3.232   3.232   3.261   3.275   3.275
  3.287   3.343   3.371   3.371   3.396   3.397   3.411   3.411
  3.434   3.435   3.475   3.481   3.481   3.500   3.582   3.593
  3.645   3.645   3.686   3.749   3.785   3.825   3.825   3.859
  3.876   3.876   3.937   3.937   3.938   3.938   3.995   3.995
  4.011   4.038   4.063   4.115   4.155   4.155   4.202   4.202
  4.269   4.306   4.307   4.454   4.455   4.456   4.528   4.536
  4.538   4.562   4.564   4.564   4.585   4.586   4.692   4.754
  4.755   4.805   4.806   4.850   5.094   5.137   5.138   5.186
  5.186   5.210   5.236   5.444   5.446   5.825   5.826   5.858
  5.859   5.888   6.331   6.617  23.771  24.386  24.388  24.724
 24.726  25.276  27.226  27.379  27.379  27.477  27.478  27.732
 27.981  28.107  28.108  28.262  28.272  28.273  28.478  28.479
 28.551  28.552  28.620  29.099  40.796  40.840  40.852  40.882
 40.922  40.962  40.965  41.004  41.026  41.070  41.139  41.147
 41.180  41.185  41.185  41.190  41.192  41.192  41.232  41.232
[...]
Order 1, Length 36
  -0.0000050   0.0038763  -0.0000049   0.0000004   0.0070870  -0.0000059   0.0000016  -0.0007632   0.0000038  -0.0000017   0.0070893   0.0000013   0.0000046   0.0038873   0.0000008   0.0000048  -0.0368486   0.0000012  -0.0000000  -0.0040118   0.0000047   0.0000013   0.0000938   0.0000021  -0.0000011  -0.0011597   0.0000027  -0.0000003   0.0000934  -0.0000007  -0.0000021  -0.0040055   0.0000003  -0.0000024   0.0246762   0.0000034
Order 1, Length 36
  -0.0140369  -0.0000027   0.0112501  -0.0031925  -0.0000029  -0.0003952  -0.0010065  -0.0000002  -0.0010319  -0.0005569  -0.0000040  -0.0052301   0.0269132  -0.0000023  -0.0095145   0.1154413   0.0000027  -0.1224544   0.0003902   0.0000016   0.0008003  -0.0006509  -0.0000000   0.0003079   0.0000811   0.0000022   0.0000510   0.0011533   0.0000007  -0.0005621  -0.0003564   0.0000027   0.0009231  -0.1241793   0.0000034   0.1258635


 # Finishing finite difference calculation for IDERIV #
 ######################################################
 ######################################################
 Requested basis set is G3large
 There are 96 shells and 312 basis functions
 **********************************************************************
 **                                                                  **
 **                       VIBRATIONAL ANALYSIS                       **
 **                       --------------------                       **
 **                                                                  **
 **        VIBRATIONAL FREQUENCIES (CM**-1) AND NORMAL MODES         **
 **     FORCE CONSTANTS (mDYN/ANGSTROM) AND REDUCED MASSES (AMU)     **
 **                  INFRARED INTENSITIES (KM/MOL)                   **
 **                                                                  **
 **********************************************************************
 

 Mode:                 1                      2                      3
 Frequency:       407.60                 408.53                 616.29
 Force Cnst:      0.2693                 0.2721                 1.3389
 Red. Mass:       2.7508                 2.7671                 5.9829
 IR Active:          YES                    YES                    YES
 IR Intens:        0.000                  0.003                  0.000
 Raman Active:       YES                    YES                    YES
               X      Y      Z        X      Y      Z        X      Y      Z
 C          0.000  0.000  0.000    0.000  0.231  0.000   -0.003  0.000  0.358
 C          0.000  0.199  0.000    0.000 -0.115  0.000   -0.224  0.000  0.020
 C          0.000 -0.199  0.000    0.000 -0.115  0.000   -0.216  0.000 -0.028
 C          0.000  0.000  0.000    0.000  0.231  0.000    0.003  0.000 -0.358
 C          0.000  0.199  0.000    0.000 -0.115  0.000    0.224  0.000 -0.020
 C          0.000 -0.199  0.000    0.000 -0.115  0.000    0.216  0.000  0.028
 H          0.000  0.000  0.000    0.000  0.526  0.000    0.004  0.000  0.358
 H          0.000  0.459  0.000    0.000 -0.268  0.000   -0.060  0.000 -0.265
 H          0.000 -0.459  0.000    0.000 -0.268  0.000   -0.049  0.000  0.263
 H          0.000  0.000  0.000    0.000  0.526  0.000   -0.004  0.000 -0.358
 H          0.000  0.459  0.000    0.000 -0.268  0.000    0.060  0.000  0.265
 H          0.000 -0.459  0.000    0.000 -0.268  0.000    0.049  0.000 -0.263
 TransDip   0.000  0.000  0.000    0.000 -0.002  0.000    0.000  0.000  0.000

 Mode:                 4                      5                      6
 Frequency:       616.90                 670.06                 732.24
 Force Cnst:      1.3418                 0.2870                 0.9255
 Red. Mass:       5.9842                 1.0849                 2.9295
 IR Active:          YES                    YES                    YES
 IR Intens:        0.000                119.062                  0.000
 Raman Active:       YES                    YES                    YES
               X      Y      Z        X      Y      Z        X      Y      Z
 C          0.152  0.000  0.006    0.000 -0.033  0.000    0.000 -0.172  0.000
 C          0.227  0.000  0.221    0.000 -0.035  0.000    0.000  0.170  0.000
 C         -0.234  0.000  0.220    0.000 -0.035  0.000    0.000 -0.170  0.000
 C         -0.152  0.000 -0.006    0.000 -0.033  0.000    0.000  0.172  0.000
 C         -0.227  0.000 -0.221    0.000 -0.035  0.000    0.000 -0.170  0.000
 C          0.234  0.000 -0.220    0.000 -0.035  0.000    0.000  0.170  0.000
 H         -0.232  0.000  0.006    0.000  0.404  0.000    0.000 -0.365  0.000
 H          0.326  0.000  0.050    0.000  0.408  0.000    0.000  0.374  0.000
 H         -0.328  0.000  0.059    0.000  0.408  0.000    0.000 -0.374  0.000
 H          0.232  0.000 -0.006    0.000  0.404  0.000    0.000  0.365  0.000
 H         -0.326  0.000 -0.050    0.000  0.408  0.000    0.000 -0.374  0.000
 H          0.328  0.000 -0.059    0.000  0.408  0.000    0.000  0.374  0.000
 TransDip   0.000  0.000  0.000    0.000  0.349  0.000    0.000  0.000  0.000

 Mode:                 7                      8                      9
 Frequency:       852.17                 855.84                 982.65
 Force Cnst:      0.5355                 0.5402                 0.7990
 Red. Mass:       1.2515                 1.2517                 1.4044
 IR Active:          YES                    YES                    YES
 IR Intens:        0.000                  0.000                  0.000
 Raman Active:       YES                    YES                    YES
               X      Y      Z        X      Y      Z        X      Y      Z
 C          0.000  0.000  0.000    0.000  0.084  0.000    0.000  0.000  0.000
 C          0.000  0.074  0.000    0.000  0.045  0.000    0.000 -0.095  0.000
 C          0.000  0.074  0.000    0.000 -0.045  0.000    0.000  0.095  0.000
 C          0.000  0.000  0.000    0.000 -0.084  0.000    0.000  0.000  0.000
 C          0.000 -0.074  0.000    0.000 -0.045  0.000    0.000 -0.095  0.000
 C          0.000 -0.074  0.000    0.000  0.045  0.000    0.000  0.095  0.000
 H          0.000  0.000  0.000    0.000 -0.567  0.000    0.000  0.000  0.000
 H          0.000 -0.494  0.000    0.000 -0.289  0.000    0.000  0.491  0.000
 H          0.000 -0.494  0.000    0.000  0.289  0.000    0.000 -0.491  0.000
 H          0.000  0.000  0.000    0.000  0.567  0.000    0.000  0.000  0.000
 H          0.000  0.494  0.000    0.000  0.289  0.000    0.000  0.491  0.000
 H          0.000  0.494  0.000    0.000 -0.289  0.000    0.000 -0.491  0.000
 TransDip   0.000  0.000  0.000    0.000  0.000  0.000    0.000  0.000  0.000

 Mode:                10                     11                     12
 Frequency:       985.73                1012.82                1018.90
 Force Cnst:      0.8015                 3.9097                 0.8330
 Red. Mass:       1.4001                 6.4689                 1.3618
 IR Active:          YES                    YES                    YES
 IR Intens:        0.007                  0.000                  0.000
 Raman Active:       YES                    YES                    YES
               X      Y      Z        X      Y      Z        X      Y      Z
 C          0.000 -0.109  0.000    0.000  0.000  0.287    0.000  0.075  0.000
 C          0.000  0.054  0.000   -0.250  0.000 -0.144    0.000 -0.073  0.000
 C          0.000  0.054  0.000    0.250  0.000 -0.144    0.000  0.073  0.000
 C          0.000 -0.109  0.000    0.000  0.000  0.287    0.000 -0.075  0.000
 C          0.000  0.054  0.000   -0.250  0.000 -0.144    0.000  0.073  0.000
 C          0.000  0.054  0.000    0.250  0.000 -0.144    0.000 -0.073  0.000
 H          0.000  0.571  0.000    0.000  0.000  0.289    0.000 -0.410  0.000
 H          0.000 -0.280  0.000   -0.253  0.000 -0.142    0.000  0.397  0.000
 H          0.000 -0.280  0.000    0.253 -0.001 -0.142    0.000 -0.397  0.000
 H          0.000  0.571  0.000    0.000  0.001  0.289    0.000  0.410  0.000
 H          0.000 -0.280  0.000   -0.253 -0.001 -0.142    0.000 -0.397  0.000
 H          0.000 -0.280  0.000    0.253  0.000 -0.142    0.000  0.397  0.000
 TransDip   0.000  0.003  0.000    0.000  0.000  0.000    0.000  0.000  0.000

 Mode:                13                     14                     15
 Frequency:      1038.30                1057.35                1058.14
 Force Cnst:      3.7833                 0.9936                 0.9942
 Red. Mass:       5.9564                 1.5085                 1.5071
 IR Active:          YES                    YES                    YES
 IR Intens:        0.000                  8.626                  8.625
 Raman Active:       YES                    YES                    YES
               X      Y      Z        X      Y      Z        X      Y      Z
 C          0.000  0.000 -0.274    0.067  0.000  0.000    0.000  0.000 -0.104
 C         -0.237  0.000 -0.137   -0.061  0.000 -0.073   -0.073  0.000  0.024
 C         -0.237  0.000  0.137   -0.061  0.000  0.073    0.073  0.000  0.024
 C          0.000  0.000  0.274    0.067  0.000  0.000    0.000  0.000 -0.104
 C          0.237  0.000  0.137   -0.061  0.000 -0.074   -0.073  0.000  0.024
 C          0.237  0.000 -0.137   -0.061  0.000  0.074    0.073  0.000  0.024
 H          0.001  0.000 -0.303    0.553  0.000  0.000    0.000  0.000 -0.113
 H         -0.263  0.000 -0.151    0.054  0.000 -0.288   -0.288  0.000  0.386
 H         -0.263  0.000  0.151    0.054  0.000  0.288    0.288  0.000  0.387
 H          0.001  0.000  0.303    0.553  0.000  0.000    0.000  0.000 -0.113
 H          0.263  0.000  0.150    0.054  0.000 -0.288   -0.288  0.000  0.386
 H          0.263  0.000 -0.151    0.053  0.000  0.288    0.288  0.000  0.387
 TransDip   0.000  0.000  0.000    0.094  0.000  0.000    0.000  0.000  0.094

 Mode:                16                     17                     18
 Frequency:      1138.17                1167.48                1167.91
 Force Cnst:      0.8172                 0.8799                 0.8809
 Red. Mass:       1.0707                 1.0957                 1.0961
 IR Active:          YES                    YES                    YES
 IR Intens:        0.000                  0.000                  0.000
 Raman Active:       YES                    YES                    YES
               X      Y      Z        X      Y      Z        X      Y      Z
 C          0.031  0.000  0.000    0.000  0.000 -0.009   -0.051  0.000  0.000
 C         -0.015  0.000  0.027    0.026  0.000 -0.036    0.006  0.000 -0.026
 C         -0.015  0.000 -0.027    0.026  0.000  0.036   -0.006  0.000 -0.026
 C          0.031  0.000  0.000    0.000  0.000  0.009    0.051  0.000  0.000
 C         -0.015  0.000  0.027   -0.026  0.000  0.036   -0.006  0.000  0.026
 C         -0.015  0.000 -0.027   -0.026  0.000 -0.036    0.006  0.000  0.026
 H          0.407  0.000  0.000   -0.004  0.000 -0.009   -0.575  0.000  0.000
 H         -0.204  0.000  0.353    0.254  0.000 -0.431    0.135  0.000 -0.249
 H         -0.203  0.000 -0.353    0.252  0.000  0.427   -0.139  0.000 -0.256
 H          0.406  0.000  0.000    0.004  0.000  0.009    0.576  0.000  0.000
 H         -0.204  0.000  0.353   -0.254  0.000  0.431   -0.135  0.000  0.250
 H         -0.204  0.000 -0.353   -0.252  0.000 -0.427    0.138  0.000  0.255
 TransDip   0.000  0.000  0.000    0.000  0.000  0.000    0.000  0.000  0.000

 Mode:                19                     20                     21
 Frequency:      1336.76                1350.70                1499.28
 Force Cnst:      1.3176                 7.5908                 3.1295
 Red. Mass:       1.2515                 7.0619                 2.3630
 IR Active:          YES                    YES                    YES
 IR Intens:        0.000                  0.000                  9.839
 Raman Active:       YES                    YES                    YES
               X      Y      Z        X      Y      Z        X      Y      Z
 C          0.061  0.000  0.000    0.303  0.000  0.000    0.168  0.000  0.001
 C          0.030  0.000 -0.053   -0.151  0.000  0.262   -0.042  0.000 -0.123
 C         -0.030  0.000 -0.052   -0.151  0.000 -0.262   -0.043  0.000  0.122
 C         -0.061  0.000  0.000    0.303  0.000  0.000    0.168  0.000  0.001
 C         -0.030  0.000  0.052   -0.152  0.000  0.262   -0.042  0.000 -0.123
 C          0.030  0.000  0.053   -0.151  0.000 -0.262   -0.043  0.000  0.122
 H         -0.403  0.000  0.000   -0.279  0.000  0.000   -0.522  0.000  0.001
 H         -0.202  0.000  0.350    0.135  0.000 -0.235   -0.236  0.000  0.168
 H          0.202  0.000  0.350    0.136  0.000  0.236   -0.234  0.000 -0.163
 H          0.404  0.000  0.000   -0.276  0.000  0.000   -0.522  0.000  0.001
 H          0.202  0.000 -0.350    0.136  0.000 -0.236   -0.236  0.000  0.168
 H         -0.202  0.000 -0.350    0.135  0.000  0.235   -0.234  0.000 -0.163
 TransDip   0.000  0.000  0.000    0.000  0.000  0.000   -0.100  0.000  0.001

 Mode:                22                     23                     24
 Frequency:      1500.43                1673.57                1673.60
 Force Cnst:      3.1387                10.7021                10.7296
 Red. Mass:       2.3662                 6.4853                 6.5018
 IR Active:          YES                    YES                    YES
 IR Intens:        9.769                  0.000                  0.000
 Raman Active:       YES                    YES                    YES
               X      Y      Z        X      Y      Z        X      Y      Z
 C         -0.001  0.000  0.113   -0.371  0.000  0.021   -0.048  0.000 -0.161
 C          0.122  0.000 -0.098    0.225  0.000 -0.133   -0.064  0.000  0.307
 C         -0.122  0.000 -0.099   -0.201  0.000 -0.050   -0.119  0.000 -0.331
 C         -0.001  0.000  0.113    0.371  0.000 -0.021    0.048  0.000  0.161
 C          0.122  0.000 -0.098   -0.225  0.000  0.133    0.064  0.000 -0.307
 C         -0.122  0.000 -0.099    0.201  0.000  0.050    0.119  0.000  0.331
 H          0.003  0.000  0.140    0.357  0.000  0.025    0.046  0.000 -0.190
 H         -0.164  0.000  0.426    0.022  0.000  0.267    0.244  0.000 -0.190
 H          0.167  0.000  0.427   -0.083  0.000  0.210    0.230  0.000  0.252
 H          0.003  0.000  0.140   -0.357  0.000 -0.025   -0.046  0.000  0.190
 H         -0.164  0.000  0.426   -0.022  0.000 -0.267   -0.244  0.000  0.190
 H          0.167  0.000  0.427    0.083  0.000 -0.210   -0.230  0.000 -0.252
 TransDip   0.001  0.000  0.100    0.000  0.000  0.000    0.000  0.000  0.000

 Mode:                25                     26                     27
 Frequency:      3095.96                3105.15                3105.78
 Force Cnst:      6.1318                 6.1918                 6.1940
 Red. Mass:       1.0858                 1.0899                 1.0899
 IR Active:          YES                    YES                    YES
 IR Intens:        0.003                  0.000                  0.000
 Raman Active:       YES                    YES                    YES
               X      Y      Z        X      Y      Z        X      Y      Z
 C          0.000  0.000 -0.033    0.003  0.000  0.001    0.000  0.000 -0.049
 C          0.030  0.000  0.017   -0.039  0.000 -0.021    0.020  0.000  0.015
 C         -0.030  0.000  0.017    0.038  0.000 -0.020    0.022  0.000 -0.015
 C          0.000  0.000 -0.033   -0.003  0.000 -0.001    0.000  0.000  0.049
 C          0.030  0.000  0.017    0.039  0.000  0.021   -0.020  0.000 -0.015
 C         -0.030  0.000  0.017   -0.038  0.000  0.020   -0.022  0.000  0.015
 H          0.000  0.000  0.396   -0.003  0.000 -0.014    0.000  0.000  0.568
 H         -0.357  0.000 -0.206    0.438  0.000  0.251   -0.244  0.000 -0.144
 H          0.357  0.000 -0.206   -0.426  0.000  0.244   -0.264  0.000  0.155
 H          0.000  0.000  0.396    0.003  0.000  0.013    0.000  0.000 -0.568
 H         -0.357  0.000 -0.206   -0.438  0.000 -0.251    0.244  0.000  0.144
 H          0.357  0.000 -0.206    0.426  0.000 -0.244    0.265  0.000 -0.155
 TransDip   0.000  0.000  0.002    0.000  0.000  0.000    0.000  0.000  0.000

 Mode:                28                     29                     30
 Frequency:      3120.07                3120.67                3130.20
 Force Cnst:      6.2941                 6.2967                 6.3601
 Red. Mass:       1.0974                 1.0974                 1.1017
 IR Active:          YES                    YES                    YES
 IR Intens:       10.738                 10.772                  0.000
 Raman Active:       YES                    YES                    YES
               X      Y      Z        X      Y      Z        X      Y      Z
 C          0.004  0.000  0.001    0.000  0.000 -0.053    0.000  0.000 -0.039
 C         -0.038  0.000 -0.024   -0.024  0.000 -0.010   -0.032  0.000 -0.019
 C         -0.038  0.000  0.024    0.023  0.000 -0.009   -0.032  0.000  0.019
 C          0.004  0.000  0.001    0.000  0.000 -0.053    0.000  0.000  0.039
 C         -0.038  0.000 -0.024   -0.024  0.000 -0.010    0.032  0.000  0.019
 C         -0.038  0.000  0.024    0.023  0.000 -0.009    0.032  0.000 -0.019
 H         -0.005  0.000 -0.007    0.000  0.000  0.582    0.000  0.000  0.417
 H          0.427  0.000  0.249    0.249  0.000  0.139    0.348  0.000  0.201
 H          0.433  0.000 -0.252   -0.239  0.000  0.134    0.348  0.000 -0.201
 H         -0.005  0.000 -0.007    0.000  0.000  0.582    0.000  0.000 -0.417
 H          0.427  0.000  0.249    0.250  0.000  0.139   -0.347  0.000 -0.200
 H          0.433  0.000 -0.253   -0.239  0.000  0.133   -0.347  0.000  0.200
 TransDip  -0.105  0.000  0.001   -0.001  0.000 -0.105    0.000  0.000  0.000

 STANDARD THERMODYNAMIC QUANTITIES AT   298.18 K  AND     1.00 ATM

   This Molecule has  0 Imaginary Frequencies
   Zero point vibrational energy:       62.185 kcal/mol

   Atom    1 Element C  Has Mass   12.00000
   Atom    2 Element C  Has Mass   12.00000
   Atom    3 Element C  Has Mass   12.00000
   Atom    4 Element C  Has Mass   12.00000
   Atom    5 Element C  Has Mass   12.00000
   Atom    6 Element C  Has Mass   12.00000
   Atom    7 Element H  Has Mass    1.00783
   Atom    8 Element H  Has Mass    1.00783
   Atom    9 Element H  Has Mass    1.00783
   Atom   10 Element H  Has Mass    1.00783
   Atom   11 Element H  Has Mass    1.00783
   Atom   12 Element H  Has Mass    1.00783
   Molecular Mass:    78.046980 amu
   Principal axes and moments of inertia in atomic units:
                             1           2           3
    Eigenvalues --      312.13936   312.18364   624.32300
          X               1.00000    -0.00001     0.00000
          Y               0.00000     0.00000     1.00000
          Z               0.00001     1.00000     0.00000
   Rotational Symmetry Number is   1
   The Molecule is an Asymmetric Top
   Translational Enthalpy:        0.889 kcal/mol
   Rotational Enthalpy:           0.889 kcal/mol
   Vibrational Enthalpy:         63.184 kcal/mol
   gas constant (RT):             0.593 kcal/mol
   Translational Entropy:        38.980  cal/mol.K
   Rotational Entropy:           25.612  cal/mol.K
   Vibrational Entropy:           4.492  cal/mol.K

   Total Enthalpy:               65.554 kcal/mol
   Total Entropy:                69.084  cal/mol.K
 Total job time:  59201.07s(wall), 58617.40s(cpu) 
 Sun Apr 24 12:01:53 2011

        *************************************************************
        *                                                           *
        *  Thank you very much for using Q-Chem.  Have a nice day.  *
        *                                                           *
        *************************************************************


0 sent ACK to 0 
now end server 0 ... 
