Process 0 of 1 is on cl263.stfx.acenet.ca - thread support 1
initial socket setup ...start
initial socket setup ...done 
now start server 0 ... 

cmd = /usr/bin/ssh clhead /usr/local/qchem/bin/get_hostid 1712849759 > /globalscratch/itamblyn/bnl/g297_b3lyp_neut_g03Large_worked/g2g71005/omega900/qchem22235/lic.dat
                  Welcome to Q-Chem
     A Quantum Leap Into The Future Of Chemistry

 Y. Shao, L. Fusti-Molnar, Y. Jung, J. Kussmann, C. Ochsenfeld,
 S. T. Brown, A. T. B. Gilbert, L. V. Slipchenko,S. V. Levchenko,
 D. P. O'Neill, R. A. DiStasio Jr., R. C. Lochan, T. Wang,
 G. J. O. Beran, N. A. Besley, J. M. Herbert, C. Y. Lin,
 T. Van Voorhis, S. H. Chien, A. Sodt, R. P. Steele, 
 V. A. Rassolov, P. E. Maslen, P. P. Korambath, R. D. Adamson,
 B. Austin, J. Baker, E. F. C. Byrd, H. Dachsel, R. J. Doerksen,
 A. Dreuw, B. D. Dunietz, A. D. Dutoi, T. R. Furlani,
 S. R. Gwaltney, A. Heyden, S. Hirata, C.-P. Hsu, G. Kedziora,
 R. Z. Khaliullin, P. Klunzinger, A. M. Lee, M. S. Lee, W. Liang,
 I. Lotan, N. Nair, B. Peters, E. I. Proynov, P. A. Pieniazek, 
 Y. M. Rhee, J. Ritchie, E. Rosta, C. D. Sherrill, 
 A. C. Simmonett, J. E. Subotnik, H. L. Woodcock III,
 W. Zhang, A. T. Bell, A. K. Chakraborty, D. M. Chipman,
 F. J. Keil, A. Warshel, W. J. Hehre, H. F. Schaefer III,
 J. Kong, A. I. Krylov, P. M. W. Gill, M. Head-Gordon,
 Q-Chem, Version 3.1, Q-Chem, Inc., Pittsburgh, PA (2007).

 Additional authors for Version 3.1: 
 Z. Gan, Y. Zhao, N. E. Schultz, D. Truhlar, E. Epifanovsky and M. Oana.

 Additional authors for Version 3.2: 
 R. Baer, B. R. Brooks, D. Casanova, J.-D. Chai, C.-L. Cheng, 
 C. Cramer, D. Crittenden, A. Ghysels, G. Hawkins, E. G. Hohenstein, 
 C. Kelley, W. Kurlancheek, D. Liotard, E. Livshits, P. Manohar, 
 A. Marenich, D. Neuhauser, R. Olson, M. A. Rohrdanz, K. S. Thanthiriwatte, 
 A. J. W. Thom, V. Vanovschi, C. F. Williams, Q. Wu and Z.-Q. You. 


 Intel X86 Linux Version

 Q-chem begins on Tue Apr 12 20:22:41 2011  

 Parallel job on  1  processors
Processing $rem in /usr/local/qchem/config/preferences.

theFileMan(): MAXOPENFILES=974 MAX_SUB_FILE_NUM=16
Maximum size of a physical file is 2.0 GB, maximum size of a tmp-file is 32.0 GB


--------------------------------------------------------------
User input:
--------------------------------------------------------------

$molecule
-1,1
C
H,1,CH
H,1,CH,2,120.
H,1,CH,2,120.,3,180.,0

CH=1.08274368

$end

$comment
negative
$end

$xc_functional
   X HF 1.0
   X BNL 1.0
   C LYP 1.0
$end

$rem
SYMMETRY_DECOMPOSITION	0
exchange 		general
BASIS                   g3large
omega			900
separate_jk		true
mem_static              760
max_scf_cycles          200
scf_final_print         1
sym_ignore              true
$end

--------------------------------------------------------------
 Writing REM_CC_EA            4
 ----------------------------------------------------
       Standard Nuclear Orientation (Angstroms)
    I     Atom         X            Y            Z
 ----------------------------------------------------
    1      C       0.000000     0.000000     0.000000
    2      H       0.000000     0.000000     1.082744
    3      H       0.937684     0.000000    -0.541372
    4      H      -0.937684     0.000000    -0.541372
 ----------------------------------------------------
 Nuclear Repulsion Energy =     9.6437890173 hartrees
 There are        5 alpha and        5 beta electrons
 Requested basis set is G3large
 There are 28 shells and 72 basis functions

Total QAlloc Memory Limit   2000 MB
Mega-Array Size       743 MB
MEM_STATIC part       760 MB

                       Distance Matrix (Angstroms)
             C (  1)   H (  2)   H (  3)
   H (  2)  1.082744
   H (  3)  1.082744  1.875367
   H (  4)  1.082744  1.875367  1.875367
 
 A cutoff of  1.0D-08 yielded    406 shell pairs
 There are   2724 function pairs (  3216 Cartesian)
Evaluating contribution to one-electron hamiltonian from nuclear
 Smallest overlap matrix eigenvalue = 2.92E-03
 Multipole matrices computed through 2nd order

  Scale SEOQF with 1.000000e-01/1.000000e-01/1.000000e-01

 Standard Electronic Orientation quadrupole field applied
 Nucleus-field energy     =    -0.0000000001 hartrees
 Guess from superposition of atomic densities
 Warning:  Energy on first SCF cycle will be non-variational
 A restricted hybrid HF-DFT SCF calculation will be
 performed using Pulay DIIS extrapolation
 Exchange:     1.0000 Hartree-Fock + 1.0000 BNL
 Correlation:  1.0000 LYP
 Using SG-1 standard quadrature grid
 SCF converges when DIIS error is below 1.0E-05
 Warning!  Inaccurate integrated density:
   Number of electrons =    10
   Numerical integral  =     8.999995709326
   Relative error      =   -10.0000429067 %
 ---------------------------------------
  Cycle       Energy         DIIS Error
 ---------------------------------------
    1     -39.4094409764      4.04E-02
    2     -39.3669400766      1.03E-02
    3     -39.4310715306      6.70E-03
    4     -39.4604883557      6.82E-04
    5     -39.4617110114      2.83E-04
    6     -39.4619986993      7.04E-05
    7     -39.4620272532      1.42E-05
    8     -39.4620290627      4.87E-06 Convergence criterion met
 ---------------------------------------
 One-Electron    Energy =   -74.2199338500
 Total Coulomb   Energy =    31.3778275321
 Alpha Exchange  Energy =    -1.5680529327
 Beta  Exchange  Energy =    -1.5680529327
 DFT   Exchange  Energy =    -2.8382005023
 DFT Correlation Energy =    -0.2894053942
 Nuclear Repu.   Energy =     9.6437890172
 Nuclear Attr.   Energy =  -113.3470708518
 Kinetic         Energy =    39.1271370018
 SCF time:  CPU 7.81 s  wall 9.84 s
 Final Alpha MO Eigenvalues
            1           2           3           4           5           6
    1  -9.9508131  -0.6094425  -0.3041331  -0.3041285  -0.0255926   0.1806748
            7           8           9          10
    1   0.2023412   0.2023428   0.3120224   0.3120299
 Analysis of SCF Wavefunction
 
 --------------------------------------------------------------
                    Orbital Energies (a.u.)
 --------------------------------------------------------------
 
 Alpha MOs
 -- Occupied --
 -9.951  -0.609  -0.304  -0.304  -0.026
 -- Virtual --
  0.181   0.202   0.202   0.312   0.312   0.316   0.358   0.449
  0.481   0.481   0.773   0.773   0.873   0.964   0.964   0.970
  0.975   0.975   1.020   1.231   1.324   1.357   1.357   1.391
  1.507   1.507   1.740   1.740   1.864   1.864   1.992   2.892
  2.971   2.971   3.215   3.391   3.391   3.439   3.554   3.618
  3.618   3.660   3.708   3.708   3.906   3.906   4.254   4.254
  4.506   4.651   4.651   4.690   4.690   4.700   5.348   5.820
  6.077   6.077  24.833  27.845  28.721  28.721  41.509  41.556
 41.743  41.743  41.860
 --------------------------------------------------------------
 
          Ground-State Mulliken Net Atomic Charges

     Atom                 Charge (a.u.)
  ----------------------------------------
      1 C                    -1.141955
      2 H                     0.047314
      3 H                     0.047318
      4 H                     0.047323
  ----------------------------------------
  Sum of atomic charges =    -1.000000

 -----------------------------------------------------------------
                    Cartesian Multipole Moments
 -----------------------------------------------------------------
    Charge (ESU x 10^10)
                -4.8032
    Dipole Moment (Debye)
         X       0.0000      Y       0.0003      Z       0.0000
       Tot       0.0003
    Quadrupole Moments (Debye-Ang)
        XX     -12.2009     XY       0.0051     YY     -20.0612
        XZ       0.0000     YZ      -0.0002     ZZ     -12.2009
    Octapole Moments (Debye-Ang^2)
       XXX       0.0000    XXY       0.0005    XYY       0.0000
       YYY       0.0016    XXZ      -0.3821    XYZ      -0.0016
       YYZ       0.0000    XZZ       0.0000    YZZ       0.0004
       ZZZ       0.3820
    Hexadecapole Moments (Debye-Ang^3)
      XXXX     -32.2714   XXXY       0.0289   XXYY     -17.8781
      XYYY       0.0278   YYYY     -72.7786   XXXZ       0.0000
      XXYZ      -0.0004   XYYZ       0.0000   YYYZ      -0.0011
      XXZZ     -10.7571   XYZZ       0.0096   YYZZ     -17.8781
      XZZZ       0.0000   YZZZ      -0.0012   ZZZZ     -32.2714
 -----------------------------------------------------------------
 Total job time:  10.46s(wall), 7.89s(cpu) 
 Tue Apr 12 20:22:52 2011

        *************************************************************
        *                                                           *
        *  Thank you very much for using Q-Chem.  Have a nice day.  *
        *                                                           *
        *************************************************************


0 sent ACK to 0 
now end server 0 ... 
 
**********************************************************************
Job 2 of 3 
**********************************************************************
 
Process 0 of 1 is on cl263.stfx.acenet.ca - thread support 1
initial socket setup ...start
initial socket setup ...done 
now start server 0 ... 

cmd = /usr/bin/ssh clhead /usr/local/qchem/bin/get_hostid 978143703 > /globalscratch/itamblyn/bnl/g297_b3lyp_neut_g03Large_worked/g2g71005/omega900/qchem22235/lic.dat
                  Welcome to Q-Chem
     A Quantum Leap Into The Future Of Chemistry

 Y. Shao, L. Fusti-Molnar, Y. Jung, J. Kussmann, C. Ochsenfeld,
 S. T. Brown, A. T. B. Gilbert, L. V. Slipchenko,S. V. Levchenko,
 D. P. O'Neill, R. A. DiStasio Jr., R. C. Lochan, T. Wang,
 G. J. O. Beran, N. A. Besley, J. M. Herbert, C. Y. Lin,
 T. Van Voorhis, S. H. Chien, A. Sodt, R. P. Steele, 
 V. A. Rassolov, P. E. Maslen, P. P. Korambath, R. D. Adamson,
 B. Austin, J. Baker, E. F. C. Byrd, H. Dachsel, R. J. Doerksen,
 A. Dreuw, B. D. Dunietz, A. D. Dutoi, T. R. Furlani,
 S. R. Gwaltney, A. Heyden, S. Hirata, C.-P. Hsu, G. Kedziora,
 R. Z. Khaliullin, P. Klunzinger, A. M. Lee, M. S. Lee, W. Liang,
 I. Lotan, N. Nair, B. Peters, E. I. Proynov, P. A. Pieniazek, 
 Y. M. Rhee, J. Ritchie, E. Rosta, C. D. Sherrill, 
 A. C. Simmonett, J. E. Subotnik, H. L. Woodcock III,
 W. Zhang, A. T. Bell, A. K. Chakraborty, D. M. Chipman,
 F. J. Keil, A. Warshel, W. J. Hehre, H. F. Schaefer III,
 J. Kong, A. I. Krylov, P. M. W. Gill, M. Head-Gordon,
 Q-Chem, Version 3.1, Q-Chem, Inc., Pittsburgh, PA (2007).

 Additional authors for Version 3.1: 
 Z. Gan, Y. Zhao, N. E. Schultz, D. Truhlar, E. Epifanovsky and M. Oana.

 Additional authors for Version 3.2: 
 R. Baer, B. R. Brooks, D. Casanova, J.-D. Chai, C.-L. Cheng, 
 C. Cramer, D. Crittenden, A. Ghysels, G. Hawkins, E. G. Hohenstein, 
 C. Kelley, W. Kurlancheek, D. Liotard, E. Livshits, P. Manohar, 
 A. Marenich, D. Neuhauser, R. Olson, M. A. Rohrdanz, K. S. Thanthiriwatte, 
 A. J. W. Thom, V. Vanovschi, C. F. Williams, Q. Wu and Z.-Q. You. 


 Intel X86 Linux Version

 Q-chem begins on Tue Apr 12 20:22:55 2011  

 Parallel job on  1  processors
Processing $rem in /usr/local/qchem/config/preferences.

theFileMan(): MAXOPENFILES=974 MAX_SUB_FILE_NUM=16
Maximum size of a physical file is 2.0 GB, maximum size of a tmp-file is 32.0 GB


--------------------------------------------------------------
User input:
--------------------------------------------------------------

$molecule
0,2
C
H,1,CH
H,1,CH,2,120.
H,1,CH,2,120.,3,180.,0

CH=1.08274368

$end

$comment
neutral
$end

$xc_functional
   X HF 1.0
   X BNL 1.0
   C LYP 1.0
$end

$rem
SYMMETRY_DECOMPOSITION	0
exchange 		general
BASIS                   g3large
omega			900
separate_jk		true
mem_static              760
max_scf_cycles          200
scf_final_print         1
sym_ignore              true
$end

--------------------------------------------------------------
 Writing REM_CC_EA            4
 ----------------------------------------------------
       Standard Nuclear Orientation (Angstroms)
    I     Atom         X            Y            Z
 ----------------------------------------------------
    1      C       0.000000     0.000000     0.000000
    2      H       0.000000     0.000000     1.082744
    3      H       0.937684     0.000000    -0.541372
    4      H      -0.937684     0.000000    -0.541372
 ----------------------------------------------------
 Nuclear Repulsion Energy =     9.6437890173 hartrees
 There are        5 alpha and        4 beta electrons
 Requested basis set is G3large
 There are 28 shells and 72 basis functions

Total QAlloc Memory Limit   2000 MB
Mega-Array Size       743 MB
MEM_STATIC part       760 MB

                       Distance Matrix (Angstroms)
             C (  1)   H (  2)   H (  3)
   H (  2)  1.082744
   H (  3)  1.082744  1.875367
   H (  4)  1.082744  1.875367  1.875367
 
 A cutoff of  1.0D-08 yielded    406 shell pairs
 There are   2724 function pairs (  3216 Cartesian)
Evaluating contribution to one-electron hamiltonian from nuclear
 Smallest overlap matrix eigenvalue = 2.92E-03
 Multipole matrices computed through 2nd order

  Scale SEOQF with 1.000000e-01/1.000000e-01/1.000000e-01

 Standard Electronic Orientation quadrupole field applied
 Nucleus-field energy     =    -0.0000000001 hartrees
 Guess from superposition of atomic densities
 Warning:  Energy on first SCF cycle will be non-variational
 An unrestricted hybrid HF-DFT SCF calculation will be
 performed using Pulay DIIS extrapolation
 Exchange:     1.0000 Hartree-Fock + 1.0000 BNL
 Correlation:  1.0000 LYP
 Using SG-1 standard quadrature grid
 SCF converges when DIIS error is below 1.0E-05
 ---------------------------------------
  Cycle       Energy         DIIS Error
 ---------------------------------------
    1     -39.4094409764      4.04E-02
    2     -39.4541262382      3.42E-03
    3     -39.4754259962      1.15E-03
    4     -39.4806168665      5.75E-04
    5     -39.4821288680      2.33E-04
    6     -39.4826335049      5.67E-05
    7     -39.4826666568      1.58E-05
    8     -39.4826689242      4.11E-06 Convergence criterion met
 ---------------------------------------
 One-Electron    Energy =   -71.6145365800
 Total Coulomb   Energy =    28.5939755327
 Alpha Exchange  Energy =    -1.6525435621
 Beta  Exchange  Energy =    -1.3545604721
 DFT   Exchange  Energy =    -2.8410829330
 DFT Correlation Energy =    -0.2577099269
 Nuclear Repu.   Energy =     9.6437890172
 Nuclear Attr.   Energy =  -110.7385847587
 Kinetic         Energy =    39.1240481787
 <S^2> = 0.7556
 SCF time:  CPU 9.04 s  wall 12.08 s
 Final Alpha MO Eigenvalues
            1           2           3           4           5           6
    1 -10.2610358  -0.9295380  -0.5953044  -0.5952955  -0.3957679   0.0391912
            7           8           9          10
    1   0.0692290   0.0692371   0.1211820   0.1446005
 Final Beta MO Eigenvalues
            1           2           3           4           5           6
    1 -10.2448118  -0.8639450  -0.5837642  -0.5837569   0.0327418   0.0385422
            7           8           9
    1   0.0684222   0.0684311   0.1418011
 Analysis of SCF Wavefunction
 
 --------------------------------------------------------------
                    Orbital Energies (a.u.)
 --------------------------------------------------------------
 
 Alpha MOs
 -- Occupied --
-10.261  -0.930  -0.595  -0.595  -0.396
 -- Virtual --
  0.039   0.069   0.069   0.121   0.145   0.145   0.180   0.236
  0.273   0.273   0.534   0.534   0.610   0.668   0.691   0.691
  0.714   0.714   0.770   0.979   1.039   1.100   1.100   1.125
  1.229   1.229   1.483   1.483   1.602   1.602   1.722   2.618
  2.686   2.686   2.877   3.081   3.081   3.156   3.234   3.306
  3.306   3.329   3.418   3.418   3.579   3.579   3.970   3.970
  4.220   4.372   4.372   4.400   4.400   4.413   5.068   5.528
  5.792   5.792  24.522  27.526  28.417  28.417  41.189  41.251
 41.426  41.427  41.555
 
 Beta MOs
 -- Occupied --
-10.245  -0.864  -0.584  -0.584
 -- Virtual --
  0.033   0.039   0.068   0.068   0.142   0.142   0.170   0.176
  0.246   0.276   0.276   0.532   0.532   0.634   0.720   0.720
  0.725   0.725   0.730   0.778   0.977   1.061   1.099   1.099
  1.130   1.241   1.241   1.485   1.485   1.608   1.608   1.732
  2.618   2.694   2.694   2.928   3.108   3.108   3.160   3.261
  3.329   3.329   3.378   3.427   3.427   3.621   3.621   3.976
  3.976   4.224   4.374   4.374   4.409   4.409   4.416   5.069
  5.539   5.798   5.798  24.541  27.550  28.426  28.426  41.218
 41.261  41.450  41.451  41.565
 --------------------------------------------------------------
 
          Ground-State Mulliken Net Atomic Charges

     Atom                 Charge (a.u.)    Spin (a.u.)
  --------------------------------------------------------
      1 C                    -0.297640       1.122333
      2 H                     0.099224      -0.040748
      3 H                     0.099198      -0.040792
      4 H                     0.099217      -0.040793
  --------------------------------------------------------
  Sum of atomic charges =     0.000000
  Sum of spin   charges =     1.000000

 -----------------------------------------------------------------
                    Cartesian Multipole Moments
 -----------------------------------------------------------------
    Charge (ESU x 10^10)
                 0.0000
    Dipole Moment (Debye)
         X       0.0000      Y       0.0000      Z       0.0000
       Tot       0.0001
    Quadrupole Moments (Debye-Ang)
        XX      -7.1265     XY      -0.0001     YY      -9.0087
        XZ       0.0000     YZ       0.0000     ZZ      -7.1265
    Octapole Moments (Debye-Ang^2)
       XXX      -0.0001    XXY       0.0000    XYY       0.0000
       YYY      -0.0001    XXZ      -1.0074    XYZ       0.0001
       YYZ       0.0000    XZZ       0.0000    YZZ       0.0000
       ZZZ       1.0074
    Hexadecapole Moments (Debye-Ang^3)
      XXXX     -14.5944   XXXY      -0.0002   XXYY      -4.7460
      XYYY      -0.0002   YYYY     -11.1839   XXXZ       0.0000
      XXYZ       0.0000   XYYZ       0.0000   YYYZ       0.0000
      XXZZ      -4.8648   XYZZ      -0.0001   YYZZ      -4.7460
      XZZZ       0.0000   YZZZ       0.0000   ZZZZ     -14.5943
 -----------------------------------------------------------------
 Total job time:  12.82s(wall), 9.12s(cpu) 
 Tue Apr 12 20:23:07 2011

        *************************************************************
        *                                                           *
        *  Thank you very much for using Q-Chem.  Have a nice day.  *
        *                                                           *
        *************************************************************


0 sent ACK to 0 
now end server 0 ... 
 
**********************************************************************
Job 3 of 3 
**********************************************************************
 
Process 0 of 1 is on cl263.stfx.acenet.ca - thread support 1
initial socket setup ...start
initial socket setup ...done 
now start server 0 ... 

cmd = /usr/bin/ssh clhead /usr/local/qchem/bin/get_hostid 1484630622 > /globalscratch/itamblyn/bnl/g297_b3lyp_neut_g03Large_worked/g2g71005/omega900/qchem22235/lic.dat
                  Welcome to Q-Chem
     A Quantum Leap Into The Future Of Chemistry

 Y. Shao, L. Fusti-Molnar, Y. Jung, J. Kussmann, C. Ochsenfeld,
 S. T. Brown, A. T. B. Gilbert, L. V. Slipchenko,S. V. Levchenko,
 D. P. O'Neill, R. A. DiStasio Jr., R. C. Lochan, T. Wang,
 G. J. O. Beran, N. A. Besley, J. M. Herbert, C. Y. Lin,
 T. Van Voorhis, S. H. Chien, A. Sodt, R. P. Steele, 
 V. A. Rassolov, P. E. Maslen, P. P. Korambath, R. D. Adamson,
 B. Austin, J. Baker, E. F. C. Byrd, H. Dachsel, R. J. Doerksen,
 A. Dreuw, B. D. Dunietz, A. D. Dutoi, T. R. Furlani,
 S. R. Gwaltney, A. Heyden, S. Hirata, C.-P. Hsu, G. Kedziora,
 R. Z. Khaliullin, P. Klunzinger, A. M. Lee, M. S. Lee, W. Liang,
 I. Lotan, N. Nair, B. Peters, E. I. Proynov, P. A. Pieniazek, 
 Y. M. Rhee, J. Ritchie, E. Rosta, C. D. Sherrill, 
 A. C. Simmonett, J. E. Subotnik, H. L. Woodcock III,
 W. Zhang, A. T. Bell, A. K. Chakraborty, D. M. Chipman,
 F. J. Keil, A. Warshel, W. J. Hehre, H. F. Schaefer III,
 J. Kong, A. I. Krylov, P. M. W. Gill, M. Head-Gordon,
 Q-Chem, Version 3.1, Q-Chem, Inc., Pittsburgh, PA (2007).

 Additional authors for Version 3.1: 
 Z. Gan, Y. Zhao, N. E. Schultz, D. Truhlar, E. Epifanovsky and M. Oana.

 Additional authors for Version 3.2: 
 R. Baer, B. R. Brooks, D. Casanova, J.-D. Chai, C.-L. Cheng, 
 C. Cramer, D. Crittenden, A. Ghysels, G. Hawkins, E. G. Hohenstein, 
 C. Kelley, W. Kurlancheek, D. Liotard, E. Livshits, P. Manohar, 
 A. Marenich, D. Neuhauser, R. Olson, M. A. Rohrdanz, K. S. Thanthiriwatte, 
 A. J. W. Thom, V. Vanovschi, C. F. Williams, Q. Wu and Z.-Q. You. 


 Intel X86 Linux Version

 Q-chem begins on Tue Apr 12 20:23:10 2011  

 Parallel job on  1  processors
Processing $rem in /usr/local/qchem/config/preferences.

theFileMan(): MAXOPENFILES=974 MAX_SUB_FILE_NUM=16
Maximum size of a physical file is 2.0 GB, maximum size of a tmp-file is 32.0 GB


--------------------------------------------------------------
User input:
--------------------------------------------------------------

$molecule
1,1
C
H,1,CH
H,1,CH,2,120.
H,1,CH,2,120.,3,180.,0

CH=1.08274368

$end

$comment
positive
$end

$xc_functional
   X HF 1.0
   X BNL 1.0
   C LYP 1.0
$end

$rem
SYMMETRY_DECOMPOSITION	0
exchange 		general
BASIS                   g3large
omega			900
separate_jk		true
mem_static              760
max_scf_cycles          200
scf_final_print         1
sym_ignore              true
$end

--------------------------------------------------------------
 Writing REM_CC_EA            4
 ----------------------------------------------------
       Standard Nuclear Orientation (Angstroms)
    I     Atom         X            Y            Z
 ----------------------------------------------------
    1      C       0.000000     0.000000     0.000000
    2      H       0.000000     0.000000     1.082744
    3      H       0.937684     0.000000    -0.541372
    4      H      -0.937684     0.000000    -0.541372
 ----------------------------------------------------
 Nuclear Repulsion Energy =     9.6437890173 hartrees
 There are        4 alpha and        4 beta electrons
 Requested basis set is G3large
 There are 28 shells and 72 basis functions

Total QAlloc Memory Limit   2000 MB
Mega-Array Size       743 MB
MEM_STATIC part       760 MB

                       Distance Matrix (Angstroms)
             C (  1)   H (  2)   H (  3)
   H (  2)  1.082744
   H (  3)  1.082744  1.875367
   H (  4)  1.082744  1.875367  1.875367
 
 A cutoff of  1.0D-08 yielded    406 shell pairs
 There are   2724 function pairs (  3216 Cartesian)
Evaluating contribution to one-electron hamiltonian from nuclear
 Smallest overlap matrix eigenvalue = 2.92E-03
 Multipole matrices computed through 2nd order

  Scale SEOQF with 1.000000e-01/1.000000e-01/1.000000e-01

 Standard Electronic Orientation quadrupole field applied
 Nucleus-field energy     =    -0.0000000001 hartrees
 Guess from superposition of atomic densities
 Warning:  Energy on first SCF cycle will be non-variational
 A restricted hybrid HF-DFT SCF calculation will be
 performed using Pulay DIIS extrapolation
 Exchange:     1.0000 Hartree-Fock + 1.0000 BNL
 Correlation:  1.0000 LYP
 Using SG-1 standard quadrature grid
 SCF converges when DIIS error is below 1.0E-05
 Warning!  Inaccurate integrated density:
   Number of electrons =     8
   Numerical integral  =     8.999995709326
   Relative error      =    12.4999463666 %
 ---------------------------------------
  Cycle       Energy         DIIS Error
 ---------------------------------------
    1     -39.4094409764      4.04E-02
    2     -39.0492975192      7.09E-03
    3     -39.1076133321      2.73E-03
    4     -39.1160234251      1.05E-03
    5     -39.1198428770      4.99E-04
    6     -39.1209815207      9.42E-05
    7     -39.1210105902      7.99E-06 Convergence criterion met
 ---------------------------------------
 One-Electron    Energy =   -68.1131203205
 Total Coulomb   Energy =    25.1441330645
 Alpha Exchange  Energy =    -1.3862404218
 Beta  Exchange  Energy =    -1.3862404218
 DFT   Exchange  Energy =    -2.7886486383
 DFT Correlation Energy =    -0.2346828694
 Nuclear Repu.   Energy =     9.6437890172
 Nuclear Attr.   Energy =  -106.9330241592
 Kinetic         Energy =    38.8199038387
 SCF time:  CPU 6.88 s  wall 10.47 s
 Final Alpha MO Eigenvalues
            1           2           3           4           5           6
    1 -10.7141411  -1.2765210  -0.9699329  -0.9699264  -0.3348382  -0.1414864
            7           8           9
    1  -0.0920977  -0.0920958  -0.0607186
 Analysis of SCF Wavefunction
 
 --------------------------------------------------------------
                    Orbital Energies (a.u.)
 --------------------------------------------------------------
 
 Alpha MOs
 -- Occupied --
-10.714  -1.277  -0.970  -0.970
 -- Virtual --
 -0.335  -0.141  -0.092  -0.092  -0.061  -0.051  -0.051  -0.014
  0.008   0.042   0.042   0.259   0.259   0.333   0.376   0.376
  0.377   0.423   0.423   0.485   0.675   0.720   0.791   0.791
  0.814   0.909   0.909   1.174   1.174   1.281   1.281   1.396
  2.273   2.334   2.334   2.475   2.701   2.701   2.793   2.849
  2.920   2.920   2.944   3.043   3.043   3.183   3.183   3.601
  3.601   3.854   4.013   4.013   4.035   4.035   4.053   4.710
  5.157   5.422   5.422  24.077  27.067  27.969  27.969  40.731
 40.802  40.970  40.971  41.106
 --------------------------------------------------------------
 
          Ground-State Mulliken Net Atomic Charges

     Atom                 Charge (a.u.)
  ----------------------------------------
      1 C                     0.364404
      2 H                     0.211861
      3 H                     0.211867
      4 H                     0.211867
  ----------------------------------------
  Sum of atomic charges =     1.000000

 -----------------------------------------------------------------
                    Cartesian Multipole Moments
 -----------------------------------------------------------------
    Charge (ESU x 10^10)
                 4.8032
    Dipole Moment (Debye)
         X       0.0000      Y       0.0000      Z      -0.0001
       Tot       0.0001
    Quadrupole Moments (Debye-Ang)
        XX      -3.9937     XY      -0.0001     YY      -5.0062
        XZ       0.0000     YZ       0.0000     ZZ      -3.9938
    Octapole Moments (Debye-Ang^2)
       XXX       0.0000    XXY       0.0000    XYY       0.0000
       YYY       0.0000    XXZ      -1.8045    XYZ       0.0000
       YYZ       0.0000    XZZ       0.0000    YZZ       0.0000
       ZZZ       1.8043
    Hexadecapole Moments (Debye-Ang^3)
      XXXX      -7.6566   XXXY      -0.0001   XXYY      -2.4709
      XYYY       0.0000   YYYY      -3.4094   XXXZ       0.0000
      XXYZ       0.0000   XYYZ       0.0000   YYYZ       0.0000
      XXZZ      -2.5523   XYZZ       0.0000   YYZZ      -2.4710
      XZZZ       0.0000   YZZZ       0.0000   ZZZZ      -7.6572
 -----------------------------------------------------------------
 Total job time:  11.28s(wall), 6.96s(cpu) 
 Tue Apr 12 20:23:21 2011

        *************************************************************
        *                                                           *
        *  Thank you very much for using Q-Chem.  Have a nice day.  *
        *                                                           *
        *************************************************************


0 sent ACK to 0 
now end server 0 ... 
