Process 0 of 1 is on cl165.stfx.acenet.ca - thread support 1
initial socket setup ...start
initial socket setup ...done 
now start server 0 ... 

cmd = /usr/bin/ssh clhead /usr/local/qchem/bin/get_hostid 1462847967 > /scratch/tmp/5954420.1.medium.q/qchem31049/lic.dat
                  Welcome to Q-Chem
     A Quantum Leap Into The Future Of Chemistry

 Y. Shao, L. Fusti-Molnar, Y. Jung, J. Kussmann, C. Ochsenfeld,
 S. T. Brown, A. T. B. Gilbert, L. V. Slipchenko,S. V. Levchenko,
 D. P. O'Neill, R. A. DiStasio Jr., R. C. Lochan, T. Wang,
 G. J. O. Beran, N. A. Besley, J. M. Herbert, C. Y. Lin,
 T. Van Voorhis, S. H. Chien, A. Sodt, R. P. Steele, 
 V. A. Rassolov, P. E. Maslen, P. P. Korambath, R. D. Adamson,
 B. Austin, J. Baker, E. F. C. Byrd, H. Dachsel, R. J. Doerksen,
 A. Dreuw, B. D. Dunietz, A. D. Dutoi, T. R. Furlani,
 S. R. Gwaltney, A. Heyden, S. Hirata, C.-P. Hsu, G. Kedziora,
 R. Z. Khaliullin, P. Klunzinger, A. M. Lee, M. S. Lee, W. Liang,
 I. Lotan, N. Nair, B. Peters, E. I. Proynov, P. A. Pieniazek, 
 Y. M. Rhee, J. Ritchie, E. Rosta, C. D. Sherrill, 
 A. C. Simmonett, J. E. Subotnik, H. L. Woodcock III,
 W. Zhang, A. T. Bell, A. K. Chakraborty, D. M. Chipman,
 F. J. Keil, A. Warshel, W. J. Hehre, H. F. Schaefer III,
 J. Kong, A. I. Krylov, P. M. W. Gill, M. Head-Gordon,
 Q-Chem, Version 3.1, Q-Chem, Inc., Pittsburgh, PA (2007).

 Additional authors for Version 3.1: 
 Z. Gan, Y. Zhao, N. E. Schultz, D. Truhlar, E. Epifanovsky and M. Oana.

 Additional authors for Version 3.2: 
 R. Baer, B. R. Brooks, D. Casanova, J.-D. Chai, C.-L. Cheng, 
 C. Cramer, D. Crittenden, A. Ghysels, G. Hawkins, E. G. Hohenstein, 
 C. Kelley, W. Kurlancheek, D. Liotard, E. Livshits, P. Manohar, 
 A. Marenich, D. Neuhauser, R. Olson, M. A. Rohrdanz, K. S. Thanthiriwatte, 
 A. J. W. Thom, V. Vanovschi, C. F. Williams, Q. Wu and Z.-Q. You. 


 Intel X86 Linux Version

 Q-chem begins on Wed Apr 24 15:03:49 2013  

 Parallel job on  1  processors
Processing $rem in /usr/local/qchem/config/preferences.

theFileMan(): MAXOPENFILES=974 MAX_SUB_FILE_NUM=16
Maximum size of a physical file is 2.0 GB, maximum size of a tmp-file is 32.0 GB


--------------------------------------------------------------
User input:
--------------------------------------------------------------

$molecule
-1,2
S
O,1,SO
O,1,SO,2,OSO

SO=1.46359695
OSO=119.10217046

$end

$comment
negative
$end

$xc_functional
C PBE   1.00
X wPBE  1.00
$end

$rem
SYMMETRY_DECOMPOSITION	0
exchange 		general
LRC_DFT                 true
BASIS                   g3large
omega			700
mem_static              760
max_scf_cycles          200
scf_final_print         1
sym_ignore              true
$end

--------------------------------------------------------------
 Writing REM_CC_EA            3
 ----------------------------------------------------
       Standard Nuclear Orientation (Angstroms)
    I     Atom         X            Y            Z
 ----------------------------------------------------
    1      S       0.000000     0.000000     0.000000
    2      O       0.000000     0.000000     1.463597
    3      O       1.278823     0.000000    -0.711847
 ----------------------------------------------------
 Nuclear Repulsion Energy =   105.9800937865 hartrees
 There are       17 alpha and       16 beta electrons
 Requested basis set is G3large
 There are 39 shells and 150 basis functions

Total QAlloc Memory Limit   2000 MB
Mega-Array Size       743 MB
MEM_STATIC part       760 MB

                       Distance Matrix (Angstroms)
             S (  1)   O (  2)
   O (  2)  1.463597
   O (  3)  1.463597  2.523479
 
 A cutoff of  1.0D-08 yielded    717 shell pairs
 There are  10801 function pairs ( 14764 Cartesian)
Evaluating contribution to one-electron hamiltonian from nuclear
 Smallest overlap matrix eigenvalue = 5.33E-04
 Multipole matrices computed through 2nd order

  Scale SEOQF with 1.000000e-01/1.000000e-01/1.000000e-01

 Standard Electronic Orientation quadrupole field applied
 Nucleus-field energy     =    -0.0000000018 hartrees
 Guess from superposition of atomic densities
 Warning:  Energy on first SCF cycle will be non-variational
 Long-range K will be added via erf
 Coulomb attenuation parameter = 0.7 bohr**(-1)
 An unrestricted Kohn-Sham SCF calculation will be
 performed using Pulay DIIS extrapolation
 Exchange:  wPBE + LR-HF      Correlation:  PBE
 Using SG-1 standard quadrature grid
 SCF converges when DIIS error is below 1.0E-05
 Requested basis set is G3large
 There are 39 shells and 150 basis functions
 A cutoff of  1.0D-08 yielded    717 shell pairs
 There are  10801 function pairs ( 14764 Cartesian)
 Warning!  Inaccurate integrated density:
   Number of electrons =    33
   Numerical integral  =    32.000059195192
   Relative error      =    -3.0301236509 %
 ---------------------------------------
  Cycle       Energy         DIIS Error
 ---------------------------------------
    1    -549.2091427200      4.24E-02
    2    -548.3946966702      8.07E-03
    3    -548.4402383936      7.42E-03
    4    -548.5435706346      6.11E-04
    5    -548.5456688781      1.88E-04
    6    -548.5463586355      7.86E-05
    7    -548.5465428464      5.85E-05
    8    -548.5466120713      2.95E-05
    9    -548.5466596318      1.20E-05
   10    -548.5466677642      5.14E-06 Convergence criterion met
 ---------------------------------------
 One-Electron    Energy =  -976.0936657653
 Total Coulomb   Energy =   364.6055292188
 Alpha Exchange  Energy =    -5.5388119997
 Beta  Exchange  Energy =    -5.2155526833
 DFT   Exchange  Energy =   -31.0828760713
 DFT Correlation Energy =    -1.2013842482
 Nuclear Repu.   Energy =   105.9800937847
 Nuclear Attr.   Energy = -1523.8224794789
 Kinetic         Energy =   547.7288137136
 <S^2> = 0.7658
 SCF time:  CPU 62.21 s  wall 62.72 s
 Final Alpha MO Eigenvalues
            1           2           3           4           5           6
    1 -88.2950563 -18.8681092 -18.8680931  -7.9195353  -5.9159130  -5.9157751
            7           8           9          10          11          12
    1  -5.9112936  -1.1051520  -1.0041527  -0.5788012  -0.4196180  -0.3996630
           13          14          15          16          17          18
    1  -0.3976766  -0.3011922  -0.2533407  -0.2213683  -0.0907974   0.2270723
           19          20          21          22
    1   0.2440352   0.2454961   0.2459923   0.4067123
 Final Beta MO Eigenvalues
            1           2           3           4           5           6
    1 -88.2920000 -18.8620786 -18.8620506  -7.9164234  -5.9141941  -5.9100614
            7           8           9          10          11          12
    1  -5.9060116  -1.0907629  -0.9899104  -0.5388620  -0.3911642  -0.3894763
           13          14          15          16          17          18
    1  -0.3549336  -0.2479990  -0.2310791  -0.2007680   0.2286000   0.2368604
           19          20          21
    1   0.2444087   0.2465928   0.2906262
 Analysis of SCF Wavefunction
 
 --------------------------------------------------------------
                    Orbital Energies (a.u.)
 --------------------------------------------------------------
 
 Alpha MOs
 -- Occupied --
-88.295 -18.868 -18.868  -7.920  -5.916  -5.916  -5.911  -1.105
 -1.004  -0.579  -0.420  -0.400  -0.398  -0.301  -0.253  -0.221
 -0.091
 -- Virtual --
  0.227   0.244   0.245   0.246   0.407   0.410   0.434   0.450
  0.464   0.471   0.482   0.513   0.535   0.571   0.589   0.648
  0.680   0.688   0.695   0.814   0.868   0.988   1.173   1.198
  1.242   1.279   1.281   1.303   1.328   1.360   1.368   1.386
  1.402   1.429   1.447   1.454   1.474   1.496   1.569   1.652
  1.771   1.935   1.943   1.982   2.101   2.104   2.172   2.211
  2.431   2.487   2.518   2.532   2.639   2.644   3.024   3.041
  3.812   3.818   3.832   3.837   3.837   3.949   4.030   4.913
  4.921   4.940   5.058   5.073   5.356   5.360   5.382   5.408
  5.475   5.494   5.495   5.499   5.508   5.546   5.582   5.624
  5.763   5.868   5.991   6.001   6.165   6.200   6.705   6.928
  7.211   7.256   7.299   7.338   7.618   7.623   7.675   7.752
  7.833   8.008   9.680  17.401  17.762  18.169  23.852  23.891
 23.970  24.171  24.257  31.216  31.219  31.244  31.248  31.268
 31.275  31.345  44.118  44.141  44.163  44.203  44.261  44.288
 44.294  44.322  44.340  44.376  46.007  46.012  46.034  46.053
 46.586  46.620  50.208  50.219 189.808
 
 Beta MOs
 -- Occupied --
-88.292 -18.862 -18.862  -7.916  -5.914  -5.910  -5.906  -1.091
 -0.990  -0.539  -0.391  -0.389  -0.355  -0.248  -0.231  -0.201
 -- Virtual --
  0.229   0.237   0.244   0.247   0.291   0.411   0.418   0.444
  0.454   0.469   0.482   0.488   0.514   0.541   0.571   0.614
  0.659   0.691   0.715   0.721   0.817   0.872   0.993   1.184
  1.210   1.245   1.285   1.293   1.319   1.357   1.380   1.386
  1.399   1.403   1.433   1.459   1.462   1.494   1.499   1.573
  1.656   1.785   1.942   1.955   1.995   2.114   2.138   2.178
  2.225   2.437   2.502   2.533   2.536   2.640   2.646   3.032
  3.048   3.830   3.832   3.834   3.863   3.871   3.977   4.035
  4.917   4.930   4.949   5.066   5.077   5.382   5.388   5.388
  5.414   5.486   5.508   5.508   5.513   5.521   5.554   5.594
  5.634   5.770   5.875   5.996   6.017   6.169   6.214   6.714
  6.934   7.235   7.280   7.321   7.362   7.642   7.646   7.680
  7.758   7.845   8.018   9.684  17.415  17.763  18.170  23.860
 23.898  23.978  24.175  24.258  31.218  31.221  31.247  31.250
 31.270  31.276  31.346  44.133  44.156  44.177  44.218  44.263
 44.303  44.309  44.325  44.346  44.382  46.023  46.028  46.038
 46.057  46.590  46.624  50.214  50.225 189.811
 --------------------------------------------------------------
 
          Ground-State Mulliken Net Atomic Charges

     Atom                 Charge (a.u.)    Spin (a.u.)
  --------------------------------------------------------
      1 S                     0.342026       0.629396
      2 O                    -0.671104       0.185324
      3 O                    -0.670922       0.185280
  --------------------------------------------------------
  Sum of atomic charges =    -1.000000
  Sum of spin   charges =     1.000000

 -----------------------------------------------------------------
                    Cartesian Multipole Moments
 -----------------------------------------------------------------
    Charge (ESU x 10^10)
                -4.8032
    Dipole Moment (Debye)
         X      -2.6482      Y      -0.0009      Z      -1.5569
       Tot       3.0720
    Quadrupole Moments (Debye-Ang)
        XX     -30.9275     XY       0.0023     YY     -25.7279
        XZ       2.5780     YZ       0.0014     ZZ     -33.7973
    Octapole Moments (Debye-Ang^2)
       XXX     -30.0449    XXY      -0.0001    XYY      -6.8121
       YYY      -0.0021    XXZ      -0.2691    XYZ      -0.0014
       YYZ      -4.0043    XZZ      -9.8404    YZZ      -0.0012
       ZZZ     -23.1772
    Hexadecapole Moments (Debye-Ang^3)
      XXXX    -102.2424   XXXY       0.0061   XXYY     -20.9937
      XYYY       0.0036   YYYY     -31.7391   XXXZ      21.1779
      XXYZ       0.0006   XYYZ       5.5152   YYYZ       0.0028
      XXZZ     -40.1111   XYZZ       0.0028   YYZZ     -27.1336
      XZZZ      18.1236   YZZZ       0.0022   ZZZZ    -145.9968
 -----------------------------------------------------------------
 Total job time:  62.90s(wall), 62.38s(cpu) 
 Wed Apr 24 15:04:52 2013

        *************************************************************
        *                                                           *
        *  Thank you very much for using Q-Chem.  Have a nice day.  *
        *                                                           *
        *************************************************************


0 sent ACK to 0 
now end server 0 ... 
 
**********************************************************************
Job 2 of 3 
**********************************************************************
 
Process 0 of 1 is on cl165.stfx.acenet.ca - thread support 1
initial socket setup ...start
initial socket setup ...done 
now start server 0 ... 

cmd = /usr/bin/ssh clhead /usr/local/qchem/bin/get_hostid 1781376981 > /scratch/tmp/5954420.1.medium.q/qchem31049/lic.dat
                  Welcome to Q-Chem
     A Quantum Leap Into The Future Of Chemistry

 Y. Shao, L. Fusti-Molnar, Y. Jung, J. Kussmann, C. Ochsenfeld,
 S. T. Brown, A. T. B. Gilbert, L. V. Slipchenko,S. V. Levchenko,
 D. P. O'Neill, R. A. DiStasio Jr., R. C. Lochan, T. Wang,
 G. J. O. Beran, N. A. Besley, J. M. Herbert, C. Y. Lin,
 T. Van Voorhis, S. H. Chien, A. Sodt, R. P. Steele, 
 V. A. Rassolov, P. E. Maslen, P. P. Korambath, R. D. Adamson,
 B. Austin, J. Baker, E. F. C. Byrd, H. Dachsel, R. J. Doerksen,
 A. Dreuw, B. D. Dunietz, A. D. Dutoi, T. R. Furlani,
 S. R. Gwaltney, A. Heyden, S. Hirata, C.-P. Hsu, G. Kedziora,
 R. Z. Khaliullin, P. Klunzinger, A. M. Lee, M. S. Lee, W. Liang,
 I. Lotan, N. Nair, B. Peters, E. I. Proynov, P. A. Pieniazek, 
 Y. M. Rhee, J. Ritchie, E. Rosta, C. D. Sherrill, 
 A. C. Simmonett, J. E. Subotnik, H. L. Woodcock III,
 W. Zhang, A. T. Bell, A. K. Chakraborty, D. M. Chipman,
 F. J. Keil, A. Warshel, W. J. Hehre, H. F. Schaefer III,
 J. Kong, A. I. Krylov, P. M. W. Gill, M. Head-Gordon,
 Q-Chem, Version 3.1, Q-Chem, Inc., Pittsburgh, PA (2007).

 Additional authors for Version 3.1: 
 Z. Gan, Y. Zhao, N. E. Schultz, D. Truhlar, E. Epifanovsky and M. Oana.

 Additional authors for Version 3.2: 
 R. Baer, B. R. Brooks, D. Casanova, J.-D. Chai, C.-L. Cheng, 
 C. Cramer, D. Crittenden, A. Ghysels, G. Hawkins, E. G. Hohenstein, 
 C. Kelley, W. Kurlancheek, D. Liotard, E. Livshits, P. Manohar, 
 A. Marenich, D. Neuhauser, R. Olson, M. A. Rohrdanz, K. S. Thanthiriwatte, 
 A. J. W. Thom, V. Vanovschi, C. F. Williams, Q. Wu and Z.-Q. You. 


 Intel X86 Linux Version

 Q-chem begins on Wed Apr 24 15:04:55 2013  

 Parallel job on  1  processors
Processing $rem in /usr/local/qchem/config/preferences.

theFileMan(): MAXOPENFILES=974 MAX_SUB_FILE_NUM=16
Maximum size of a physical file is 2.0 GB, maximum size of a tmp-file is 32.0 GB


--------------------------------------------------------------
User input:
--------------------------------------------------------------

$molecule
0,1
S
O,1,SO
O,1,SO,2,OSO

SO=1.46359695
OSO=119.10217046

$end

$comment
neutral
$end

$xc_functional
C PBE   1.00
X wPBE  1.00
$end


$rem
SYMMETRY_DECOMPOSITION	0
LRC_DFT                 true
exchange 		general
BASIS                   g3large
omega			700
mem_static              760
max_scf_cycles          200
scf_final_print         1
sym_ignore              true
$end

--------------------------------------------------------------
 Writing REM_CC_EA            3
 ----------------------------------------------------
       Standard Nuclear Orientation (Angstroms)
    I     Atom         X            Y            Z
 ----------------------------------------------------
    1      S       0.000000     0.000000     0.000000
    2      O       0.000000     0.000000     1.463597
    3      O       1.278823     0.000000    -0.711847
 ----------------------------------------------------
 Nuclear Repulsion Energy =   105.9800937865 hartrees
 There are       16 alpha and       16 beta electrons
 Requested basis set is G3large
 There are 39 shells and 150 basis functions

Total QAlloc Memory Limit   2000 MB
Mega-Array Size       743 MB
MEM_STATIC part       760 MB

                       Distance Matrix (Angstroms)
             S (  1)   O (  2)
   O (  2)  1.463597
   O (  3)  1.463597  2.523479
 
 A cutoff of  1.0D-08 yielded    717 shell pairs
 There are  10801 function pairs ( 14764 Cartesian)
Evaluating contribution to one-electron hamiltonian from nuclear
 Smallest overlap matrix eigenvalue = 5.33E-04
 Multipole matrices computed through 2nd order

  Scale SEOQF with 1.000000e-01/1.000000e-01/1.000000e-01

 Standard Electronic Orientation quadrupole field applied
 Nucleus-field energy     =    -0.0000000018 hartrees
 Guess from superposition of atomic densities
 Warning:  Energy on first SCF cycle will be non-variational
 Long-range K will be added via erf
 Coulomb attenuation parameter = 0.7 bohr**(-1)
 A restricted Kohn-Sham SCF calculation will be
 performed using Pulay DIIS extrapolation
 Exchange:  wPBE + LR-HF      Correlation:  PBE
 Using SG-1 standard quadrature grid
 SCF converges when DIIS error is below 1.0E-05
 Requested basis set is G3large
 There are 39 shells and 150 basis functions
 A cutoff of  1.0D-08 yielded    717 shell pairs
 There are  10801 function pairs ( 14764 Cartesian)
 ---------------------------------------
  Cycle       Energy         DIIS Error
 ---------------------------------------
    1    -549.2091427200      4.24E-02
    2    -548.3263729289      8.10E-03
    3    -548.3563905350      8.10E-03
    4    -548.4767716521      8.05E-04
    5    -548.4788070566      2.52E-04
    6    -548.4794708186      1.39E-04
    7    -548.4796057342      9.76E-05
    8    -548.4796861901      3.68E-05
    9    -548.4797100503      1.26E-05
   10    -548.4797134976      3.45E-06 Convergence criterion met
 ---------------------------------------
 One-Electron    Energy =  -966.1710446491
 Total Coulomb   Energy =   354.3507739955
 Alpha Exchange  Energy =    -5.2496160123
 Beta  Exchange  Energy =    -5.2496160123
 DFT   Exchange  Energy =   -30.9703831924
 DFT Correlation Energy =    -1.1699214116
 Nuclear Repu.   Energy =   105.9800937847
 Nuclear Attr.   Energy = -1513.3406738758
 Kinetic         Energy =   547.1696292266
 SCF time:  CPU 51.77 s  wall 52.57 s
 Final Alpha MO Eigenvalues
            1           2           3           4           5           6
    1 -88.6412657 -19.1812885 -19.1812529  -8.2590646  -6.2589212  -6.2538565
            7           8           9          10          11          12
    1  -6.2493330  -1.4014460  -1.2967353  -0.8532704  -0.6878086  -0.6854717
           13          14          15          16          17          18
    1  -0.6753927  -0.5401975  -0.5367613  -0.5051849  -0.0443296   0.0635380
           19          20          21
    1   0.0798575   0.0843430   0.0890453
 Analysis of SCF Wavefunction
 
 --------------------------------------------------------------
                    Orbital Energies (a.u.)
 --------------------------------------------------------------
 
 Alpha MOs
 -- Occupied --
-88.641 -19.181 -19.181  -8.259  -6.259  -6.254  -6.249  -1.401
 -1.297  -0.853  -0.688  -0.685  -0.675  -0.540  -0.537  -0.505
 -- Virtual --
 -0.044   0.064   0.080   0.084   0.089   0.171   0.205   0.242
  0.247   0.265   0.283   0.287   0.326   0.335   0.348   0.380
  0.417   0.434   0.436   0.471   0.570   0.613   0.734   0.907
  0.933   0.983   1.002   1.018   1.037   1.045   1.083   1.107
  1.128   1.144   1.181   1.190   1.198   1.224   1.249   1.293
  1.377   1.492   1.669   1.674   1.711   1.817   1.829   1.899
  1.942   2.145   2.208   2.240   2.249   2.359   2.369   2.748
  2.768   3.503   3.510   3.525   3.526   3.528   3.640   3.725
  4.594   4.596   4.619   4.749   4.767   5.068   5.072   5.092
  5.120   5.186   5.205   5.208   5.213   5.220   5.258   5.293
  5.333   5.467   5.573   5.694   5.704   5.871   5.899   6.398
  6.624   6.920   6.965   7.008   7.048   7.326   7.331   7.383
  7.460   7.539   7.719   9.361  17.063  17.426  17.833  23.514
 23.551  23.631  23.834  23.921  30.874  30.877  30.902  30.908
 30.925  30.939  31.009  43.809  43.832  43.854  43.894  43.950
 43.979  43.984  44.012  44.030  44.066  45.696  45.702  45.723
 45.742  46.274  46.308  49.897  49.908 189.464
 --------------------------------------------------------------
 
          Ground-State Mulliken Net Atomic Charges

     Atom                 Charge (a.u.)
  ----------------------------------------
      1 S                     0.781187
      2 O                    -0.390659
      3 O                    -0.390528
  ----------------------------------------
  Sum of atomic charges =     0.000000

 -----------------------------------------------------------------
                    Cartesian Multipole Moments
 -----------------------------------------------------------------
    Charge (ESU x 10^10)
                 0.0000
    Dipole Moment (Debye)
         X      -1.7472      Y      -0.0001      Z      -1.0275
       Tot       2.0270
    Quadrupole Moments (Debye-Ang)
        XX     -24.9868     XY       0.0003     YY     -20.7025
        XZ       1.4566     YZ       0.0001     ZZ     -26.6086
    Octapole Moments (Debye-Ang^2)
       XXX     -24.4149    XXY       0.0003    XYY      -6.8357
       YYY      -0.0002    XXZ      -2.3014    XYZ      -0.0001
       YYZ      -4.0184    XZZ      -8.0613    YZZ       0.0003
       ZZZ     -16.7909
    Hexadecapole Moments (Debye-Ang^3)
      XXXX     -79.9099   XXXY       0.0009   XXYY     -15.6520
      XYYY       0.0003   YYYY     -18.7736   XXXZ      16.5874
      XXYZ       0.0000   XYYZ       5.0113   YYYZ       0.0001
      XXZZ     -32.3218   XYZZ       0.0004   YYZZ     -21.2313
      XZZZ      15.8012   YZZZ       0.0003   ZZZZ    -115.9705
 -----------------------------------------------------------------
 Total job time:  52.73s(wall), 51.92s(cpu) 
 Wed Apr 24 15:05:47 2013

        *************************************************************
        *                                                           *
        *  Thank you very much for using Q-Chem.  Have a nice day.  *
        *                                                           *
        *************************************************************


0 sent ACK to 0 
now end server 0 ... 
 
**********************************************************************
Job 3 of 3 
**********************************************************************
 
Process 0 of 1 is on cl165.stfx.acenet.ca - thread support 1
initial socket setup ...start
initial socket setup ...done 
now start server 0 ... 

cmd = /usr/bin/ssh clhead /usr/local/qchem/bin/get_hostid 856982540 > /scratch/tmp/5954420.1.medium.q/qchem31049/lic.dat
                  Welcome to Q-Chem
     A Quantum Leap Into The Future Of Chemistry

 Y. Shao, L. Fusti-Molnar, Y. Jung, J. Kussmann, C. Ochsenfeld,
 S. T. Brown, A. T. B. Gilbert, L. V. Slipchenko,S. V. Levchenko,
 D. P. O'Neill, R. A. DiStasio Jr., R. C. Lochan, T. Wang,
 G. J. O. Beran, N. A. Besley, J. M. Herbert, C. Y. Lin,
 T. Van Voorhis, S. H. Chien, A. Sodt, R. P. Steele, 
 V. A. Rassolov, P. E. Maslen, P. P. Korambath, R. D. Adamson,
 B. Austin, J. Baker, E. F. C. Byrd, H. Dachsel, R. J. Doerksen,
 A. Dreuw, B. D. Dunietz, A. D. Dutoi, T. R. Furlani,
 S. R. Gwaltney, A. Heyden, S. Hirata, C.-P. Hsu, G. Kedziora,
 R. Z. Khaliullin, P. Klunzinger, A. M. Lee, M. S. Lee, W. Liang,
 I. Lotan, N. Nair, B. Peters, E. I. Proynov, P. A. Pieniazek, 
 Y. M. Rhee, J. Ritchie, E. Rosta, C. D. Sherrill, 
 A. C. Simmonett, J. E. Subotnik, H. L. Woodcock III,
 W. Zhang, A. T. Bell, A. K. Chakraborty, D. M. Chipman,
 F. J. Keil, A. Warshel, W. J. Hehre, H. F. Schaefer III,
 J. Kong, A. I. Krylov, P. M. W. Gill, M. Head-Gordon,
 Q-Chem, Version 3.1, Q-Chem, Inc., Pittsburgh, PA (2007).

 Additional authors for Version 3.1: 
 Z. Gan, Y. Zhao, N. E. Schultz, D. Truhlar, E. Epifanovsky and M. Oana.

 Additional authors for Version 3.2: 
 R. Baer, B. R. Brooks, D. Casanova, J.-D. Chai, C.-L. Cheng, 
 C. Cramer, D. Crittenden, A. Ghysels, G. Hawkins, E. G. Hohenstein, 
 C. Kelley, W. Kurlancheek, D. Liotard, E. Livshits, P. Manohar, 
 A. Marenich, D. Neuhauser, R. Olson, M. A. Rohrdanz, K. S. Thanthiriwatte, 
 A. J. W. Thom, V. Vanovschi, C. F. Williams, Q. Wu and Z.-Q. You. 


 Intel X86 Linux Version

 Q-chem begins on Wed Apr 24 15:05:50 2013  

 Parallel job on  1  processors
Processing $rem in /usr/local/qchem/config/preferences.

theFileMan(): MAXOPENFILES=974 MAX_SUB_FILE_NUM=16
Maximum size of a physical file is 2.0 GB, maximum size of a tmp-file is 32.0 GB


--------------------------------------------------------------
User input:
--------------------------------------------------------------

$molecule
1,2
S
O,1,SO
O,1,SO,2,OSO

SO=1.46359695
OSO=119.10217046

$end

$comment
positive
$end

$xc_functional
C PBE   1.00
X wPBE  1.00
$end

$rem
SYMMETRY_DECOMPOSITION	0
LRC_DFT                 true
exchange 		general
BASIS                   g3large
omega			700
mem_static              760
max_scf_cycles          200
scf_final_print         1
sym_ignore              true
$end

--------------------------------------------------------------
 Writing REM_CC_EA            3
 ----------------------------------------------------
       Standard Nuclear Orientation (Angstroms)
    I     Atom         X            Y            Z
 ----------------------------------------------------
    1      S       0.000000     0.000000     0.000000
    2      O       0.000000     0.000000     1.463597
    3      O       1.278823     0.000000    -0.711847
 ----------------------------------------------------
 Nuclear Repulsion Energy =   105.9800937865 hartrees
 There are       16 alpha and       15 beta electrons
 Requested basis set is G3large
 There are 39 shells and 150 basis functions

Total QAlloc Memory Limit   2000 MB
Mega-Array Size       743 MB
MEM_STATIC part       760 MB

                       Distance Matrix (Angstroms)
             S (  1)   O (  2)
   O (  2)  1.463597
   O (  3)  1.463597  2.523479
 
 A cutoff of  1.0D-08 yielded    717 shell pairs
 There are  10801 function pairs ( 14764 Cartesian)
Evaluating contribution to one-electron hamiltonian from nuclear
 Smallest overlap matrix eigenvalue = 5.33E-04
 Multipole matrices computed through 2nd order

  Scale SEOQF with 1.000000e-01/1.000000e-01/1.000000e-01

 Standard Electronic Orientation quadrupole field applied
 Nucleus-field energy     =    -0.0000000018 hartrees
 Guess from superposition of atomic densities
 Warning:  Energy on first SCF cycle will be non-variational
 Long-range K will be added via erf
 Coulomb attenuation parameter = 0.7 bohr**(-1)
 An unrestricted Kohn-Sham SCF calculation will be
 performed using Pulay DIIS extrapolation
 Exchange:  wPBE + LR-HF      Correlation:  PBE
 Using SG-1 standard quadrature grid
 SCF converges when DIIS error is below 1.0E-05
 Requested basis set is G3large
 There are 39 shells and 150 basis functions
 A cutoff of  1.0D-08 yielded    717 shell pairs
 There are  10801 function pairs ( 14764 Cartesian)
 Warning!  Inaccurate integrated density:
   Number of electrons =    31
   Numerical integral  =    32.000059195192
   Relative error      =     3.2259974038 %
 ---------------------------------------
  Cycle       Energy         DIIS Error
 ---------------------------------------
    1    -549.2091427200      4.24E-02
    2    -547.8221110418      7.56E-03
    3    -547.9063473611      6.66E-03
    4    -547.9905715836      1.41E-03
    5    -547.9953193243      2.45E-04
    6    -547.9965063421      1.82E-04
    7    -547.9968386635      1.11E-04
    8    -547.9971133489      7.39E-05
    9    -547.9972921693      5.25E-05
   10    -547.9974202987      5.22E-05
   11    -547.9974549472      5.29E-05
   12    -547.9971333063      4.24E-05
   13    -547.9968639808      2.85E-05
   14    -547.9968097706      1.18E-05
   15    -547.9968017738      8.06E-06 Convergence criterion met
 ---------------------------------------
 One-Electron    Energy =  -955.3001018841
 Total Coulomb   Energy =   343.5401784076
 Alpha Exchange  Energy =    -5.2986381797
 Beta  Exchange  Energy =    -4.9316108888
 DFT   Exchange  Energy =   -30.8563504589
 DFT Correlation Energy =    -1.1303725546
 Nuclear Repu.   Energy =   105.9800937847
 Nuclear Attr.   Energy = -1502.0429368639
 Kinetic         Energy =   546.7428349798
 <S^2> = 0.7871
 SCF time:  CPU 92.50 s  wall 94.83 s
 Final Alpha MO Eigenvalues
            1           2           3           4           5           6
    1 -88.9957231 -19.5485182 -19.5483934  -8.6125566  -6.6118306  -6.6069454
            7           8           9          10          11          12
    1  -6.6048274  -1.7472691  -1.6474733  -1.1968923  -1.0340787  -1.0209402
           13          14          15          16          17          18
    1  -0.9974624  -0.8812653  -0.8751617  -0.8684048  -0.3610279  -0.1678772
           19          20          21
    1  -0.1413323  -0.1075789  -0.0752427
 Final Beta MO Eigenvalues
            1           2           3           4           5           6
    1 -88.9948161 -19.5377491 -19.5372759  -8.6113129  -6.6110389  -6.6052263
            7           8           9          10          11          12
    1  -6.6028634  -1.7223598  -1.6128138  -1.1382839  -0.9897639  -0.9875603
           13          14          15          16          17          18
    1  -0.9598043  -0.8560711  -0.8189027  -0.4603048  -0.3414687  -0.1553138
           19          20
    1  -0.1130086  -0.1042102
 Analysis of SCF Wavefunction
 
 --------------------------------------------------------------
                    Orbital Energies (a.u.)
 --------------------------------------------------------------
 
 Alpha MOs
 -- Occupied --
-88.996 -19.549 -19.548  -8.613  -6.612  -6.607  -6.605  -1.747
 -1.647  -1.197  -1.034  -1.021  -0.997  -0.881  -0.875  -0.868
 -- Virtual --
 -0.361  -0.168  -0.141  -0.108  -0.075  -0.053  -0.033   0.044
  0.050   0.059   0.069   0.074   0.107   0.119   0.151   0.156
  0.157   0.180   0.205   0.239   0.324   0.332   0.473   0.621
  0.650   0.703   0.713   0.722   0.736   0.763   0.782   0.832
  0.853   0.859   0.914   0.917   0.932   0.951   0.967   0.983
  1.078   1.187   1.371   1.375   1.401   1.512   1.528   1.581
  1.637   1.840   1.901   1.933   1.937   2.037   2.062   2.437
  2.458   3.167   3.175   3.180   3.185   3.188   3.311   3.387
  4.247   4.251   4.281   4.403   4.425   4.734   4.741   4.743
  4.771   4.861   4.871   4.875   4.877   4.877   4.914   4.956
  4.997   5.126   5.232   5.352   5.367   5.511   5.561   6.044
  6.276   6.564   6.618   6.646   6.696   6.978   6.986   7.019
  7.094   7.194   7.367   9.014  16.714  17.073  17.486  23.158
 23.196  23.281  23.483  23.568  30.519  30.521  30.551  30.555
 30.574  30.586  30.656  43.444  43.461  43.484  43.527  43.570
 43.615  43.618  43.637  43.653  43.697  45.336  45.341  45.352
 45.369  45.904  45.939  49.532  49.543 189.110
 
 Beta MOs
 -- Occupied --
-88.995 -19.538 -19.537  -8.611  -6.611  -6.605  -6.603  -1.722
 -1.613  -1.138  -0.990  -0.988  -0.960  -0.856  -0.819
 -- Virtual --
 -0.460  -0.341  -0.155  -0.113  -0.104  -0.075  -0.049  -0.024
  0.051   0.051   0.060   0.070   0.081   0.111   0.122   0.153
  0.153   0.164   0.182   0.210   0.242   0.325   0.359   0.478
  0.632   0.658   0.707   0.719   0.719   0.749   0.772   0.794
  0.835   0.854   0.869   0.921   0.930   0.939   0.957   0.990
  1.011   1.085   1.211   1.384   1.386   1.420   1.516   1.537
  1.607   1.649   1.843   1.909   1.945   1.948   2.058   2.074
  2.449   2.474   3.173   3.181   3.200   3.200   3.201   3.311
  3.397   4.256   4.258   4.283   4.420   4.438   4.746   4.752
  4.775   4.803   4.870   4.891   4.893   4.898   4.905   4.940
  4.976   5.015   5.146   5.250   5.369   5.381   5.544   5.574
  6.067   6.292   6.597   6.640   6.688   6.725   7.003   7.008
  7.063   7.143   7.214   7.401   9.022  16.715  17.077  17.485
 23.162  23.200  23.280  23.484  23.570  30.520  30.522  30.551
 30.555  30.574  30.587  30.657  43.458  43.482  43.504  43.544
 43.601  43.627  43.633  43.661  43.682  43.715  45.343  45.348
 45.372  45.391  45.922  45.955  49.543  49.554 189.111
 --------------------------------------------------------------
 
          Ground-State Mulliken Net Atomic Charges

     Atom                 Charge (a.u.)    Spin (a.u.)
  --------------------------------------------------------
      1 S                     1.112635       0.153035
      2 O                    -0.056648       0.429223
      3 O                    -0.055987       0.417741
  --------------------------------------------------------
  Sum of atomic charges =     1.000000
  Sum of spin   charges =     1.000000

 -----------------------------------------------------------------
                    Cartesian Multipole Moments
 -----------------------------------------------------------------
    Charge (ESU x 10^10)
                 4.8032
    Dipole Moment (Debye)
         X      -0.1970      Y       0.0004      Z      -0.1202
       Tot       0.2308
    Quadrupole Moments (Debye-Ang)
        XX     -18.6211     XY       0.0023     YY     -18.2049
        XZ       0.6548     YZ      -0.0044     ZZ     -19.3571
    Octapole Moments (Debye-Ang^2)
       XXX     -17.1555    XXY       0.0054    XYY      -6.3047
       YYY       0.0005    XXZ      -3.9922    XYZ      -0.0028
       YYZ      -3.7063    XZZ      -5.7398    YZZ      -0.0054
       ZZZ      -9.4764
    Hexadecapole Moments (Debye-Ang^3)
      XXXX     -58.6154   XXXY       0.0133   XXYY     -12.8136
      XYYY       0.0026   YYYY     -14.2095   XXXZ      12.4549
      XXYZ      -0.0038   XYYZ       4.6886   YYYZ      -0.0048
      XXZZ     -25.6790   XYZZ      -0.0045   YYZZ     -18.0336
      XZZZ      14.9696   YZZZ      -0.0121   ZZZZ     -89.1608
 -----------------------------------------------------------------
 Total job time:  95.00s(wall), 92.66s(cpu) 
 Wed Apr 24 15:07:25 2013

        *************************************************************
        *                                                           *
        *  Thank you very much for using Q-Chem.  Have a nice day.  *
        *                                                           *
        *************************************************************


0 sent ACK to 0 
now end server 0 ... 
