Process 0 of 1 is on cl248.stfx.acenet.ca - thread support 1
initial socket setup ...start
initial socket setup ...done 
now start server 0 ... 

cmd = /usr/bin/ssh clhead /usr/local/qchem/bin/get_hostid 975225390 > /scratch/tmp/4506650.1.long.q/qchem20835/lic.dat
                  Welcome to Q-Chem
     A Quantum Leap Into The Future Of Chemistry

 Y. Shao, L. Fusti-Molnar, Y. Jung, J. Kussmann, C. Ochsenfeld,
 S. T. Brown, A. T. B. Gilbert, L. V. Slipchenko,S. V. Levchenko,
 D. P. O'Neill, R. A. DiStasio Jr., R. C. Lochan, T. Wang,
 G. J. O. Beran, N. A. Besley, J. M. Herbert, C. Y. Lin,
 T. Van Voorhis, S. H. Chien, A. Sodt, R. P. Steele, 
 V. A. Rassolov, P. E. Maslen, P. P. Korambath, R. D. Adamson,
 B. Austin, J. Baker, E. F. C. Byrd, H. Dachsel, R. J. Doerksen,
 A. Dreuw, B. D. Dunietz, A. D. Dutoi, T. R. Furlani,
 S. R. Gwaltney, A. Heyden, S. Hirata, C.-P. Hsu, G. Kedziora,
 R. Z. Khaliullin, P. Klunzinger, A. M. Lee, M. S. Lee, W. Liang,
 I. Lotan, N. Nair, B. Peters, E. I. Proynov, P. A. Pieniazek, 
 Y. M. Rhee, J. Ritchie, E. Rosta, C. D. Sherrill, 
 A. C. Simmonett, J. E. Subotnik, H. L. Woodcock III,
 W. Zhang, A. T. Bell, A. K. Chakraborty, D. M. Chipman,
 F. J. Keil, A. Warshel, W. J. Hehre, H. F. Schaefer III,
 J. Kong, A. I. Krylov, P. M. W. Gill, M. Head-Gordon,
 Q-Chem, Version 3.1, Q-Chem, Inc., Pittsburgh, PA (2007).

 Additional authors for Version 3.1: 
 Z. Gan, Y. Zhao, N. E. Schultz, D. Truhlar, E. Epifanovsky and M. Oana.

 Additional authors for Version 3.2: 
 R. Baer, B. R. Brooks, D. Casanova, J.-D. Chai, C.-L. Cheng, 
 C. Cramer, D. Crittenden, A. Ghysels, G. Hawkins, E. G. Hohenstein, 
 C. Kelley, W. Kurlancheek, D. Liotard, E. Livshits, P. Manohar, 
 A. Marenich, D. Neuhauser, R. Olson, M. A. Rohrdanz, K. S. Thanthiriwatte, 
 A. J. W. Thom, V. Vanovschi, C. F. Williams, Q. Wu and Z.-Q. You. 


 Intel X86 Linux Version

 Q-chem begins on Sun Apr 24 00:43:36 2011  

 Parallel job on  1  processors
Processing $rem in /usr/local/qchem/config/preferences.

theFileMan(): MAXOPENFILES=974 MAX_SUB_FILE_NUM=16
Maximum size of a physical file is 2.0 GB, maximum size of a tmp-file is 32.0 GB


--------------------------------------------------------------
User input:
--------------------------------------------------------------

$molecule
0,1
C
C,1,RA
X,2,1.,1,ALPHA
N,2,RB,3,ALPHA,1,180.,0
X,1,1.,2,90.,3,180.,0
H,1,R1,2,A1,5,0.,0
H,1,R23,2,A23,5,B23,0
H,1,R23,2,A23,5,-B23,0
H,2,R45,3,A45,1,B45,0
H,2,R45,3,A45,1,-B45,0
H,4,R67,2,A67,3,B67,0
H,4,R67,2,A67,3,-B67,0

RA=1.53433259
RB=1.46733604
R1=1.09744016
R23=1.09766131
R45=1.09741524
R67=1.0199965
ALPHA=57.99165664
A1=111.53723231
A23=110.98368012
A45=126.91609839
A67=109.38481148
B23=120.14233562
B45=91.55640429
B67=57.61986012

$end

$comment
neutral
$end

$xc_functional
   X HF 1.0
   X BNL 1.0
   C LYP 1.0
$end

$rem
SYMMETRY_DECOMPOSITION	0
exchange 		general
BASIS                   g3large
omega			390 
JOBTYPE                 opt
separate_jk		true
mem_static              760
max_scf_cycles          200
scf_final_print         1
sym_ignore              true
$end


--------------------------------------------------------------
 Writing REM_CC_EA           10
 ----------------------------------------------------
       Standard Nuclear Orientation (Angstroms)
    I     Atom         X            Y            Z
 ----------------------------------------------------
    1      C       0.000000     0.000000     0.000000
    2      C       0.000000     0.000000     1.534333
    3      N       1.319020     0.000000     2.177186
    4      H      -1.020816     0.000000    -0.402877
    5      H       0.514637     0.886285    -0.393075
    6      H       0.514637    -0.886285    -0.393075
    7      H      -0.546314    -0.877077     1.903922
    8      H      -0.546314     0.877077     1.903922
    9      H       1.849096     0.812569     1.862314
   10      H       1.849096    -0.812569     1.862314
 ----------------------------------------------------
 Nuclear Repulsion Energy =    82.4995912651 hartrees
 There are       13 alpha and       13 beta electrons
 Requested basis set is G3large
 There are 72 shells and 196 basis functions

Total QAlloc Memory Limit   2000 MB
Mega-Array Size       743 MB
MEM_STATIC part       760 MB
 A cutoff of  1.0D-11 yielded   2572 shell pairs
 There are  19061 function pairs ( 22784 Cartesian)
Evaluating contribution to one-electron hamiltonian from nuclear
 Smallest overlap matrix eigenvalue = 9.46E-05
 Multipole matrices computed through 2nd order

  Scale SEOQF with 1.000000e-01/1.000000e-01/1.000000e-01

 Standard Electronic Orientation quadrupole field applied
 Nucleus-field energy     =    -0.0000000056 hartrees
 Guess from superposition of atomic densities
 Warning:  Energy on first SCF cycle will be non-variational
 A restricted hybrid HF-DFT SCF calculation will be
 performed using Pulay DIIS extrapolation
 Exchange:     1.0000 Hartree-Fock + 1.0000 BNL
 Correlation:  1.0000 LYP
 Using SG-1 standard quadrature grid
 SCF converges when DIIS error is below 1.0E-08
 ---------------------------------------
  Cycle       Energy         DIIS Error
 ---------------------------------------
    1    -134.2776583399      3.15E-02
    2    -133.5982160610      3.42E-03
    3    -133.6264771780      2.72E-03
    4    -133.6539579599      3.68E-04
    5    -133.6545115651      1.47E-04
    6    -133.6546115316      3.93E-05
    7    -133.6546216221      7.28E-06
    8    -133.6546222344      1.64E-06
    9    -133.6546222292      7.28E-07
   10    -133.6546222626      2.38E-07
   11    -133.6546222600      5.77E-08
   12    -133.6546222624      1.20E-08
   13    -133.6546222632      3.21E-09 Convergence criterion met
 ---------------------------------------
 One-Electron    Energy =  -344.1995065166
 Total Coulomb   Energy =   146.7611708187
 Alpha Exchange  Energy =    -2.5141430644
 Beta  Exchange  Energy =    -2.5141430644
 DFT   Exchange  Energy =   -12.8536659009
 DFT Correlation Energy =    -0.8339257951
 Nuclear Repu.   Energy =    82.4995912595
 Nuclear Attr.   Energy =  -477.0315362710
 Kinetic         Energy =   132.8320297544
 SCF time:  CPU 164.18 s  wall 164.94 s
 Final Alpha MO Eigenvalues
            1           2           3           4           5           6
    1 -14.0160505  -9.9878492  -9.9565533  -1.0073272  -0.8578796  -0.7354029
            7           8           9          10          11          12
    1  -0.6196768  -0.5578184  -0.5275560  -0.5265040  -0.4716648  -0.4450870
           13          14          15          16          17          18
    1  -0.3551694   0.0304253   0.0495361   0.0524695   0.0538544   0.0830445
 Analysis of SCF Wavefunction
 
 --------------------------------------------------------------
                    Orbital Energies (a.u.)
 --------------------------------------------------------------
 
 Alpha MOs
 -- Occupied --
-14.016  -9.988  -9.957  -1.007  -0.858  -0.735  -0.620  -0.558
 -0.528  -0.527  -0.472  -0.445  -0.355
 -- Virtual --
  0.030   0.050   0.052   0.054   0.083   0.086   0.091   0.115
  0.127   0.148   0.164   0.168   0.174   0.182   0.184   0.213
  0.235   0.237   0.253   0.259   0.272   0.278   0.291   0.328
  0.341   0.359   0.386   0.403   0.508   0.509   0.535   0.557
  0.598   0.607   0.633   0.644   0.665   0.671   0.692   0.710
  0.714   0.729   0.754   0.768   0.784   0.840   0.856   0.876
  0.929   0.933   0.951   1.005   1.036   1.111   1.135   1.155
  1.206   1.212   1.270   1.277   1.286   1.304   1.329   1.358
  1.376   1.417   1.437   1.453   1.466   1.509   1.542   1.545
  1.575   1.607   1.654   1.686   1.700   1.701   1.775   1.834
  1.914   2.005   2.023   2.533   2.563   2.571   2.673   2.689
  2.827   2.902   2.917   2.965   2.989   3.047   3.064   3.139
  3.165   3.192   3.227   3.251   3.271   3.377   3.401   3.410
  3.451   3.467   3.537   3.558   3.616   3.635   3.672   3.683
  3.738   3.806   3.832   3.865   3.911   3.926   3.946   4.000
  4.049   4.067   4.111   4.149   4.171   4.173   4.300   4.346
  4.356   4.367   4.446   4.501   4.504   4.556   4.584   4.654
  4.661   4.708   4.806   4.840   4.884   5.008   5.054   5.150
  5.287   5.354   5.432   5.450   5.513   5.664   5.752   5.774
  5.842   5.888   6.236   6.537  24.337  24.492  27.733  28.153
 28.165  28.210  28.268  28.482  35.843  37.692  38.307  38.316
 40.583  40.606  40.735  40.784  40.830  40.942  40.964  40.979
 41.054  41.254  41.273  41.314  41.321  41.331  41.351
 --------------------------------------------------------------
 
          Ground-State Mulliken Net Atomic Charges

     Atom                 Charge (a.u.)
  ----------------------------------------
      1 C                    -0.386733
      2 C                    -0.244517
      3 N                    -0.350747
      4 H                     0.112428
      5 H                     0.122230
      6 H                     0.122230
      7 H                     0.129116
      8 H                     0.129116
      9 H                     0.183439
     10 H                     0.183439
  ----------------------------------------
  Sum of atomic charges =     0.000000

 -----------------------------------------------------------------
                    Cartesian Multipole Moments
 -----------------------------------------------------------------
    Charge (ESU x 10^10)
                 0.0000
    Dipole Moment (Debye)
         X       0.0604      Y       0.0000      Z      -1.5512
       Tot       1.5523
    Quadrupole Moments (Debye-Ang)
        XX     -19.8113     XY       0.0000     YY     -19.6703
        XZ      -1.9200     YZ       0.0000     ZZ     -29.8859
    Octapole Moments (Debye-Ang^2)
       XXX     -23.0218    XXY       0.0000    XYY      -6.1516
       YYY       0.0000    XXZ     -25.0268    XYZ       0.0000
       YYZ     -21.9302    XZZ     -20.1215    YZZ       0.0000
       ZZZ    -106.6411
    Hexadecapole Moments (Debye-Ang^3)
      XXXX    -109.8570   XXXY       0.0000   XXYY     -21.6483
      XYYY       0.0000   YYYY     -40.9079   XXXZ     -52.6732
      XXYZ       0.0000   XYYZ     -16.0373   YYYZ       0.0000
      XXZZ     -85.4885   XYZZ       0.0000   YYZZ     -56.9042
      XZZZ    -102.1103   YZZZ       0.0000   ZZZZ    -443.0319
 -----------------------------------------------------------------
 Calculating analytic gradient of the SCF energy
 Gradient of AOints
            1           2           3           4           5           6
    1   1.1427932   2.2116816  -2.6371993   2.8047307  -1.2533007  -1.2533005
    2  -0.0000003   0.0000003  -0.0000002   0.0000001  -2.3183071   2.3183075
    3   3.3822762  -0.3688832  -6.5208732   1.4670158   1.4449543   1.4449542
            7           8           9          10
    1   1.7907151   1.7907150  -2.2984177  -2.2984175
    2   2.4784183  -2.4784187  -2.9275587   2.9275589
    3  -1.1978516  -1.1978515   0.7731297   0.7731295
 Gradient of XC Energy
            1           2           3           4           5           6
    1  -0.0011504  -0.0000598  -0.0644006  -0.1442636   0.0706696   0.0706696
    2   0.0000000  -0.0000000   0.0000000  -0.0000000   0.1205850  -0.1205850
    3   0.0284602  -0.0427852   0.1960799  -0.0586934  -0.0539194  -0.0539194
            7           8           9          10
    1  -0.0753581  -0.0753581   0.1096257   0.1096256
    2  -0.1207098   0.1207098   0.1635184  -0.1635184
    3   0.0516199   0.0516199  -0.0592313  -0.0592313
 Gradient of SCF Energy
            1           2           3           4           5           6
    1  -0.0020088  -0.0088435   0.0102310   0.0012767  -0.0007650  -0.0007650
    2   0.0000000   0.0000000   0.0000000  -0.0000000  -0.0012386   0.0012386
    3  -0.0123422   0.0044063   0.0137977  -0.0005432   0.0000382   0.0000382
            7           8           9          10
    1   0.0011994   0.0011994  -0.0007621  -0.0007621
    2   0.0010881  -0.0010881  -0.0019180   0.0019180
    3  -0.0003764  -0.0003764  -0.0023211  -0.0023211
 Max gradient component =       1.380E-02
 RMS gradient           =       4.397E-03
 Gradient time:  CPU 61.62 s  wall 61.77 s
 Geometry Optimization Parameters
   NAtoms,    NIC,     NZ,  NCons,   NDum,   NFix, NCnnct, MaxDiis
       10      59      12       0       0       0       0       0


** GEOMETRY OPTIMIZATION IN DELOCALIZED INTERNAL COORDINATES **
   Searching for a Minimum

   Optimization Cycle:   1

                       Coordinates (Angstroms)
     ATOM              X           Y           Z
    1  C           0.000000    0.000000    0.000000
    2  C           0.000000    0.000000    1.534333
    3  N           1.319020    0.000000    2.177186
    4  H          -1.020816    0.000000   -0.402877
    5  H           0.514637    0.886285   -0.393075
    6  H           0.514637   -0.886285   -0.393075
    7  H          -0.546314   -0.877077    1.903922
    8  H          -0.546314    0.877077    1.903922
    9  H           1.849096    0.812569    1.862314
   10  H           1.849096   -0.812569    1.862314
   Point Group: c1    Number of degrees of freedom:  24


   Energy is   -133.654622263


 Attempting to Generate Delocalized Internal Coordinates

 19 Hessian modes will be used to form the next step
  Hessian Eigenvalues:
     0.044384    0.053396    0.055906    0.099907    0.160000    0.160000
     0.160000    0.160000    0.160000    0.219882    0.290269    0.339421
     0.339421    0.339668    0.339696    0.339696    0.360610    0.443386
     0.443386

 Minimum Search - Taking Simple RFO Step
 Searching for Lamda that Minimizes Along All modes
 Value Taken    Lamda =  -0.00159026
 Step Taken.  Stepsize is  0.113362

                             Maximum     Tolerance    Cnvgd?
         Gradient           0.009640      0.000300      NO
         Displacement       0.064692      0.001200      NO
         Energy change     *********      0.000001      NO


 New Cartesian Coordinates Obtained by Inverse Iteration

 Displacement from previous Coordinates is:  0.106454
 Writing REM_CC_EA           10
 ----------------------------------------------------
       Standard Nuclear Orientation (Angstroms)
    I     Atom         X            Y            Z
 ----------------------------------------------------
    1      C       0.005020     0.000000     0.014507
    2      C      -0.002818     0.000000     1.525608
    3      N       1.310245     0.000000     2.140803
    4      H      -1.018227     0.000000    -0.386357
    5      H       0.522262     0.889167    -0.374586
    6      H       0.522262    -0.889167    -0.374586
    7      H      -0.550073    -0.879109     1.896325
    8      H      -0.550073     0.879109     1.896325
    9      H       1.847222     0.821738     1.858463
   10      H       1.847222    -0.821738     1.858463
 ----------------------------------------------------
 Nuclear Repulsion Energy =    83.1632660501 hartrees
 There are       13 alpha and       13 beta electrons
 Applying Cartesian multipole field
    Component          Value
    ---------          -----
     (2,0,0)        1.00000E-11
     (0,2,0)        2.00000E-11
     (0,0,2)       -3.00000E-11
 Nucleus-field energy     =    -0.0000000054 hartrees
 Requested basis set is G3large
 There are 72 shells and 196 basis functions
 A cutoff of  1.0D-11 yielded   2574 shell pairs
 There are  19071 function pairs ( 22796 Cartesian)
Evaluating contribution to one-electron hamiltonian from nuclear
 Smallest overlap matrix eigenvalue = 8.71E-05
 Multipole matrices computed through 2nd order
 Guess MOs from SCF MO coefficient file
Reading MOs from coefficient file
Reading MOs from coefficient file
 A restricted hybrid HF-DFT SCF calculation will be
 performed using Pulay DIIS extrapolation
 Exchange:     1.0000 Hartree-Fock + 1.0000 BNL
 Correlation:  1.0000 LYP
 Using SG-1 standard quadrature grid
 SCF converges when DIIS error is below 1.0E-08
 ---------------------------------------
  Cycle       Energy         DIIS Error
 ---------------------------------------
    1    -133.6494383614      7.18E-04
    2    -133.6554607833      8.51E-05
    3    -133.6554931351      4.41E-05
    4    -133.6555001689      1.52E-05
    5    -133.6555013192      4.18E-06
    6    -133.6555015279      1.79E-06
    7    -133.6555015366      3.25E-07
    8    -133.6555015621      6.59E-08
    9    -133.6555015673      1.78E-08
   10    -133.6555015679      5.58E-09 Convergence criterion met
 ---------------------------------------
 One-Electron    Energy =  -345.5273208549
 Total Coulomb   Energy =   147.4377556689
 Alpha Exchange  Energy =    -2.5147931505
 Beta  Exchange  Energy =    -2.5147931505
 DFT   Exchange  Energy =   -12.8646677413
 DFT Correlation Energy =    -0.8349483842
 Nuclear Repu.   Energy =    83.1632660447
 Nuclear Attr.   Energy =  -478.4036692669
 Kinetic         Energy =   132.8763484120
 SCF time:  CPU 130.72 s  wall 131.27 s
 Final Alpha MO Eigenvalues
            1           2           3           4           5           6
    1 -14.0139374  -9.9852181  -9.9540637  -1.0096918  -0.8587770  -0.7335805
            7           8           9          10          11          12
    1  -0.6228898  -0.5626936  -0.5285826  -0.5267650  -0.4720597  -0.4425803
           13          14          15          16          17          18
    1  -0.3504898   0.0307101   0.0495483   0.0522013   0.0539876   0.0832788
 Analysis of SCF Wavefunction
 
 --------------------------------------------------------------
                    Orbital Energies (a.u.)
 --------------------------------------------------------------
 
 Alpha MOs
 -- Occupied --
-14.014  -9.985  -9.954  -1.010  -0.859  -0.734  -0.623  -0.563
 -0.529  -0.527  -0.472  -0.443  -0.350
 -- Virtual --
  0.031   0.050   0.052   0.054   0.083   0.087   0.091   0.115
  0.127   0.148   0.165   0.168   0.173   0.181   0.184   0.214
  0.236   0.238   0.254   0.261   0.273   0.278   0.289   0.328
  0.342   0.362   0.390   0.407   0.509   0.509   0.533   0.557
  0.602   0.609   0.632   0.643   0.671   0.675   0.698   0.711
  0.717   0.734   0.754   0.769   0.780   0.841   0.856   0.880
  0.927   0.931   0.962   1.004   1.045   1.112   1.134   1.156
  1.202   1.218   1.274   1.279   1.290   1.307   1.332   1.361
  1.380   1.416   1.442   1.460   1.473   1.510   1.541   1.544
  1.575   1.614   1.657   1.686   1.699   1.699   1.786   1.833
  1.924   1.997   2.031   2.550   2.567   2.583   2.688   2.698
  2.841   2.912   2.918   2.977   2.997   3.046   3.077   3.144
  3.175   3.192   3.234   3.249   3.278   3.377   3.390   3.412
  3.452   3.480   3.543   3.577   3.614   3.643   3.680   3.683
  3.736   3.805   3.856   3.873   3.915   3.939   3.959   4.015
  4.051   4.085   4.124   4.166   4.176   4.185   4.290   4.350
  4.361   4.376   4.432   4.502   4.507   4.567   4.586   4.660
  4.663   4.722   4.795   4.850   4.919   5.052   5.087   5.162
  5.293   5.349   5.443   5.485   5.549   5.664   5.750   5.774
  5.841   5.896   6.256   6.517  24.337  24.544  27.779  28.161
 28.175  28.217  28.268  28.475  35.860  37.679  38.320  38.330
 40.590  40.613  40.738  40.784  40.833  40.938  40.971  40.983
 41.082  41.257  41.276  41.318  41.329  41.333  41.353
 --------------------------------------------------------------
 
          Ground-State Mulliken Net Atomic Charges

     Atom                 Charge (a.u.)
  ----------------------------------------
      1 C                    -0.377672
      2 C                    -0.244342
      3 N                    -0.356552
      4 H                     0.110166
      5 H                     0.120185
      6 H                     0.120185
      7 H                     0.128128
      8 H                     0.128128
      9 H                     0.185887
     10 H                     0.185887
  ----------------------------------------
  Sum of atomic charges =     0.000000

 -----------------------------------------------------------------
                    Cartesian Multipole Moments
 -----------------------------------------------------------------
    Charge (ESU x 10^10)
                 0.0000
    Dipole Moment (Debye)
         X       0.0930      Y       0.0000      Z      -1.4388
       Tot       1.4418
    Quadrupole Moments (Debye-Ang)
        XX     -19.7636     XY       0.0000     YY     -19.5873
        XZ      -1.7320     YZ       0.0000     ZZ     -29.5321
    Octapole Moments (Debye-Ang^2)
       XXX     -22.7628    XXY       0.0000    XYY      -5.9789
       YYY       0.0000    XXZ     -24.4696    XYZ       0.0000
       YYZ     -21.6046    XZZ     -19.3030    YZZ       0.0000
       ZZZ    -104.7201
    Hexadecapole Moments (Debye-Ang^3)
      XXXX    -108.9217   XXXY       0.0000   XXYY     -21.3357
      XYYY       0.0000   YYYY     -41.0249   XXXZ     -50.5881
      XXYZ       0.0000   XYYZ     -15.2906   YYYZ       0.0000
      XXZZ     -82.9072   XYZZ       0.0000   YYZZ     -55.5308
      XZZZ     -98.1421   YZZZ       0.0000   ZZZZ    -430.9068
 -----------------------------------------------------------------
 Calculating analytic gradient of the SCF energy
 Gradient of AOints
            1           2           3           4           5           6
    1   1.0686464   2.3820727  -2.6731403   2.8258767  -1.2603550  -1.2603550
    2  -0.0000001   0.0000001   0.0000001   0.0000000  -2.3404976   2.3404976
    3   3.4691922  -0.4775461  -6.2539187   1.4326790   1.4186277   1.4186276
            7           8           9          10
    1   1.8013390   1.8013390  -2.3427118  -2.3427118
    2   2.4949753  -2.4949753  -2.9931085   2.9931083
    3  -1.1861758  -1.1861758   0.6823451   0.6823448
 Gradient of XC Energy
            1           2           3           4           5           6
    1   0.0021278  -0.0067296  -0.0641623  -0.1445034   0.0707748   0.0707748
    2   0.0000000  -0.0000000  -0.0000000  -0.0000000   0.1207781  -0.1207781
    3   0.0245993  -0.0383410   0.1801263  -0.0571084  -0.0524629  -0.0524629
            7           8           9          10
    1  -0.0752981  -0.0752981   0.1111570   0.1111570
    2  -0.1207585   0.1207585   0.1657861  -0.1657861
    3   0.0509704   0.0509704  -0.0531456  -0.0531456
 Gradient of SCF Energy
            1           2           3           4           5           6
    1   0.0010666  -0.0042036   0.0006266   0.0000940  -0.0000316  -0.0000316
    2  -0.0000000  -0.0000000  -0.0000000   0.0000000   0.0000891  -0.0000891
    3  -0.0003720  -0.0010140   0.0040175   0.0009141   0.0002250   0.0002250
            7           8           9          10
    1   0.0005908   0.0005908   0.0006490   0.0006490
    2  -0.0000668   0.0000668   0.0007610  -0.0007610
    3  -0.0005017  -0.0005017  -0.0014961  -0.0014961
 Max gradient component =       4.204E-03
 RMS gradient           =       1.227E-03
 Gradient time:  CPU 61.39 s  wall 61.47 s
 Geometry Optimization Parameters
   NAtoms,    NIC,     NZ,  NCons,   NDum,   NFix, NCnnct, MaxDiis
       10      59      12       0       0       0       0       0

 Cartesian Hessian Update
 Hessian Updated using BFGS Update


** GEOMETRY OPTIMIZATION IN DELOCALIZED INTERNAL COORDINATES **
   Searching for a Minimum

   Optimization Cycle:   2

                       Coordinates (Angstroms)
     ATOM              X           Y           Z
    1  C           0.005020    0.000000    0.014507
    2  C          -0.002818    0.000000    1.525608
    3  N           1.310245    0.000000    2.140803
    4  H          -1.018227    0.000000   -0.386357
    5  H           0.522262    0.889167   -0.374586
    6  H           0.522262   -0.889167   -0.374586
    7  H          -0.550073   -0.879109    1.896325
    8  H          -0.550073    0.879109    1.896325
    9  H           1.847222    0.821738    1.858463
   10  H           1.847222   -0.821738    1.858463
   Point Group: c1    Number of degrees of freedom:  24


   Energy is   -133.655501568

 Hessian Updated using BFGS Update

 13 Hessian modes will be used to form the next step
  Hessian Eigenvalues:
     0.036481    0.054078    0.056053    0.100253    0.154922    0.162713
     0.227787    0.321634    0.332133    0.339655    0.340677    0.344455
     0.456663

 Minimum Search - Taking Simple RFO Step
 Searching for Lamda that Minimizes Along All modes
 Value Taken    Lamda =  -0.00017440
 Step Taken.  Stepsize is  0.058235

                             Maximum     Tolerance    Cnvgd?
         Gradient           0.001916      0.000300      NO
         Displacement       0.031178      0.001200      NO
         Energy change     -0.000879      0.000001      NO


 New Cartesian Coordinates Obtained by Inverse Iteration

 Displacement from previous Coordinates is:  0.058918
 Writing REM_CC_EA           10
 ----------------------------------------------------
       Standard Nuclear Orientation (Angstroms)
    I     Atom         X            Y            Z
 ----------------------------------------------------
    1      C      -0.000276     0.000000     0.010816
    2      C       0.002324     0.000000     1.521706
    3      N       1.311068     0.000000     2.133868
    4      H      -1.023852     0.000000    -0.391598
    5      H       0.516464     0.888269    -0.381668
    6      H       0.516464    -0.888269    -0.381669
    7      H      -0.546980    -0.876956     1.897262
    8      H      -0.546980     0.876956     1.897262
    9      H       1.852405     0.824370     1.874493
   10      H       1.852405    -0.824370     1.874493
 ----------------------------------------------------
 Nuclear Repulsion Energy =    83.1861106806 hartrees
 There are       13 alpha and       13 beta electrons
 Applying Cartesian multipole field
    Component          Value
    ---------          -----
     (2,0,0)        1.00000E-11
     (0,2,0)        2.00000E-11
     (0,0,2)       -3.00000E-11
 Nucleus-field energy     =    -0.0000000054 hartrees
 Requested basis set is G3large
 There are 72 shells and 196 basis functions
 A cutoff of  1.0D-11 yielded   2574 shell pairs
 There are  19071 function pairs ( 22796 Cartesian)
Evaluating contribution to one-electron hamiltonian from nuclear
 Smallest overlap matrix eigenvalue = 8.63E-05
 Multipole matrices computed through 2nd order
 Guess MOs from SCF MO coefficient file
Reading MOs from coefficient file
Reading MOs from coefficient file
 A restricted hybrid HF-DFT SCF calculation will be
 performed using Pulay DIIS extrapolation
 Exchange:     1.0000 Hartree-Fock + 1.0000 BNL
 Correlation:  1.0000 LYP
 Using SG-1 standard quadrature grid
 SCF converges when DIIS error is below 1.0E-08
 ---------------------------------------
  Cycle       Energy         DIIS Error
 ---------------------------------------
    1    -133.6558237980      2.47E-04
    2    -133.6556052938      3.56E-05
    3    -133.6556125767      1.49E-05
    4    -133.6556134353      8.12E-06
    5    -133.6556137024      1.74E-06
    6    -133.6556137544      5.17E-07
    7    -133.6556137480      1.94E-07
    8    -133.6556137539      4.50E-08
    9    -133.6556137538      1.06E-08
   10    -133.6556137544      2.94E-09 Convergence criterion met
 ---------------------------------------
 One-Electron    Energy =  -345.5773162066
 Total Coulomb   Energy =   147.4667577564
 Alpha Exchange  Energy =    -2.5148753910
 Beta  Exchange  Energy =    -2.5148753910
 DFT   Exchange  Energy =   -12.8663735583
 DFT Correlation Energy =    -0.8350416392
 Nuclear Repu.   Energy =    83.1861106752
 Nuclear Attr.   Energy =  -478.4579179758
 Kinetic         Energy =   132.8806017692
 SCF time:  CPU 127.96 s  wall 128.52 s
 Final Alpha MO Eigenvalues
            1           2           3           4           5           6
    1 -14.0132519  -9.9849746  -9.9534875  -1.0098146  -0.8583700  -0.7336167
            7           8           9          10          11          12
    1  -0.6235158  -0.5638404  -0.5288541  -0.5267657  -0.4718698  -0.4413345
           13          14          15          16          17          18
    1  -0.3490072   0.0308354   0.0496166   0.0522915   0.0539441   0.0832048
 Analysis of SCF Wavefunction
 
 --------------------------------------------------------------
                    Orbital Energies (a.u.)
 --------------------------------------------------------------
 
 Alpha MOs
 -- Occupied --
-14.013  -9.985  -9.953  -1.010  -0.858  -0.734  -0.624  -0.564
 -0.529  -0.527  -0.472  -0.441  -0.349
 -- Virtual --
  0.031   0.050   0.052   0.054   0.083   0.087   0.091   0.115
  0.127   0.149   0.165   0.169   0.173   0.181   0.184   0.214
  0.236   0.238   0.256   0.261   0.272   0.278   0.290   0.328
  0.343   0.361   0.392   0.407   0.510   0.510   0.533   0.557
  0.603   0.610   0.634   0.644   0.671   0.677   0.699   0.710
  0.719   0.736   0.754   0.771   0.777   0.842   0.856   0.880
  0.926   0.931   0.962   1.005   1.049   1.113   1.134   1.155
  1.199   1.216   1.274   1.277   1.292   1.307   1.332   1.361
  1.380   1.418   1.442   1.462   1.472   1.510   1.541   1.544
  1.576   1.613   1.660   1.685   1.693   1.699   1.793   1.830
  1.928   1.997   2.032   2.552   2.568   2.582   2.687   2.698
  2.843   2.913   2.918   2.980   2.990   3.046   3.080   3.146
  3.177   3.191   3.237   3.250   3.278   3.382   3.389   3.412
  3.451   3.483   3.547   3.576   3.617   3.643   3.677   3.685
  3.735   3.806   3.864   3.875   3.917   3.948   3.961   4.010
  4.051   4.083   4.121   4.165   4.174   4.188   4.290   4.350
  4.367   4.376   4.428   4.501   4.501   4.561   4.585   4.660
  4.661   4.720   4.782   4.850   4.927   5.079   5.095   5.163
  5.295   5.344   5.440   5.498   5.549   5.663   5.750   5.774
  5.846   5.895   6.268   6.520  24.337  24.547  27.780  28.162
 28.175  28.217  28.268  28.477  35.869  37.670  38.328  38.339
 40.594  40.617  40.738  40.783  40.836  40.937  40.971  40.984
 41.082  41.258  41.277  41.318  41.332  41.333  41.353
 --------------------------------------------------------------
 
          Ground-State Mulliken Net Atomic Charges

     Atom                 Charge (a.u.)
  ----------------------------------------
      1 C                    -0.376261
      2 C                    -0.242939
      3 N                    -0.358688
      4 H                     0.110082
      5 H                     0.119495
      6 H                     0.119495
      7 H                     0.127556
      8 H                     0.127556
      9 H                     0.186852
     10 H                     0.186852
  ----------------------------------------
  Sum of atomic charges =     0.000000

 -----------------------------------------------------------------
                    Cartesian Multipole Moments
 -----------------------------------------------------------------
    Charge (ESU x 10^10)
                 0.0000
    Dipole Moment (Debye)
         X       0.1261      Y       0.0000      Z      -1.3698
       Tot       1.3756
    Quadrupole Moments (Debye-Ang)
        XX     -19.6916     XY       0.0000     YY     -19.5826
        XZ      -1.5395     YZ       0.0000     ZZ     -29.2565
    Octapole Moments (Debye-Ang^2)
       XXX     -22.5315    XXY       0.0000    XYY      -5.8941
       YYY       0.0000    XXZ     -23.9780    XYZ       0.0000
       YYZ     -21.4487    XZZ     -18.6775    YZZ       0.0000
       ZZZ    -103.6463
    Hexadecapole Moments (Debye-Ang^3)
      XXXX    -108.5558   XXXY       0.0000   XXYY     -21.2241
      XYYY       0.0000   YYYY     -41.0282   XXXZ     -49.7584
      XXYZ       0.0000   XYYZ     -15.0920   YYYZ       0.0000
      XXZZ     -81.4453   XYZZ       0.0000   YYZZ     -55.1430
      XZZZ     -96.4809   YZZZ       0.0000   ZZZZ    -427.5951
 -----------------------------------------------------------------
 Calculating analytic gradient of the SCF energy
 Gradient of AOints
            1           2           3           4           5           6
    1   1.1086343   2.3457841  -2.6531725   2.8196809  -1.2539717  -1.2539717
    2  -0.0000002   0.0000010  -0.0000003  -0.0000001  -2.3339218   2.3339218
    3   3.4479063  -0.4477531  -6.1215442   1.4488995   1.4277142   1.4277143
            7           8           9          10
    1   1.8103614   1.8103610  -2.3668528  -2.3668530
    2   2.4788477  -2.4788479  -3.0212518   3.0212517
    3  -1.2059525  -1.2059523   0.6144840   0.6144837
 Gradient of XC Energy
            1           2           3           4           5           6
    1   0.0009119  -0.0060057  -0.0656730  -0.1442337   0.0706345   0.0706345
    2   0.0000000  -0.0000000   0.0000000   0.0000000   0.1205418  -0.1205418
    3   0.0257794  -0.0399670   0.1722492  -0.0577024  -0.0529284  -0.0529284
            7           8           9          10
    1  -0.0756030  -0.0756030   0.1124687   0.1124687
    2  -0.1200736   0.1200736   0.1671628  -0.1671628
    3   0.0517558   0.0517558  -0.0490070  -0.0490070
 Gradient of SCF Energy
            1           2           3           4           5           6
    1   0.0003801  -0.0007378  -0.0005877  -0.0001995   0.0000172   0.0000172
    2   0.0000000  -0.0000000   0.0000000   0.0000000   0.0000917  -0.0000917
    3   0.0007820  -0.0011868   0.0014161   0.0000065   0.0000766   0.0000766
            7           8           9          10
    1   0.0001775   0.0001775   0.0003777   0.0003777
    2  -0.0001058   0.0001058   0.0003395  -0.0003395
    3   0.0000038   0.0000038  -0.0005893  -0.0005893
 Max gradient component =       1.416E-03
 RMS gradient           =       4.628E-04
 Gradient time:  CPU 62.99 s  wall 63.09 s
 Geometry Optimization Parameters
   NAtoms,    NIC,     NZ,  NCons,   NDum,   NFix, NCnnct, MaxDiis
       10      59      12       0       0       0       0       0

 Cartesian Hessian Update
 Hessian Updated using BFGS Update


** GEOMETRY OPTIMIZATION IN DELOCALIZED INTERNAL COORDINATES **
   Searching for a Minimum

   Optimization Cycle:   3

                       Coordinates (Angstroms)
     ATOM              X           Y           Z
    1  C          -0.000276    0.000000    0.010816
    2  C           0.002324    0.000000    1.521706
    3  N           1.311068    0.000000    2.133868
    4  H          -1.023852    0.000000   -0.391598
    5  H           0.516464    0.888269   -0.381668
    6  H           0.516464   -0.888269   -0.381669
    7  H          -0.546980   -0.876956    1.897262
    8  H          -0.546980    0.876956    1.897262
    9  H           1.852405    0.824370    1.874493
   10  H           1.852405   -0.824370    1.874493
   Point Group: c1    Number of degrees of freedom:  24


   Energy is   -133.655613754

 Hessian Updated using BFGS Update

 15 Hessian modes will be used to form the next step
  Hessian Eigenvalues:
     0.026221    0.053635    0.056290    0.101369    0.153376    0.160246
     0.165440    0.228545    0.312670    0.336807    0.339975    0.341467
     0.344338    0.443386    0.443764

 Minimum Search - Taking Simple RFO Step
 Searching for Lamda that Minimizes Along All modes
 Value Taken    Lamda =  -0.00003071
 Step Taken.  Stepsize is  0.030862

                             Maximum     Tolerance    Cnvgd?
         Gradient           0.000879      0.000300      NO
         Displacement       0.016735      0.001200      NO
         Energy change     -0.000112      0.000001      NO


 New Cartesian Coordinates Obtained by Inverse Iteration

 Displacement from previous Coordinates is:  0.033582
 Writing REM_CC_EA           10
 ----------------------------------------------------
       Standard Nuclear Orientation (Angstroms)
    I     Atom         X            Y            Z
 ----------------------------------------------------
    1      C      -0.002557     0.000000     0.008063
    2      C       0.004872     0.000000     1.520402
    3      N       1.312596     0.000000     2.131004
    4      H      -1.026792     0.000000    -0.391894
    5      H       0.513041     0.887817    -0.386880
    6      H       0.513041    -0.887817    -0.386880
    7      H      -0.545918    -0.875863     1.896832
    8      H      -0.545918     0.875863     1.896832
    9      H       1.855338     0.825792     1.883744
   10      H       1.855338    -0.825792     1.883744
 ----------------------------------------------------
 Nuclear Repulsion Energy =    83.1643849626 hartrees
 There are       13 alpha and       13 beta electrons
 Applying Cartesian multipole field
    Component          Value
    ---------          -----
     (2,0,0)        1.00000E-11
     (0,2,0)        2.00000E-11
     (0,0,2)       -3.00000E-11
 Nucleus-field energy     =    -0.0000000054 hartrees
 Requested basis set is G3large
 There are 72 shells and 196 basis functions
 A cutoff of  1.0D-11 yielded   2574 shell pairs
 There are  19071 function pairs ( 22796 Cartesian)
Evaluating contribution to one-electron hamiltonian from nuclear
 Smallest overlap matrix eigenvalue = 8.62E-05
 Multipole matrices computed through 2nd order
 Guess MOs from SCF MO coefficient file
Reading MOs from coefficient file
Reading MOs from coefficient file
 A restricted hybrid HF-DFT SCF calculation will be
 performed using Pulay DIIS extrapolation
 Exchange:     1.0000 Hartree-Fock + 1.0000 BNL
 Correlation:  1.0000 LYP
 Using SG-1 standard quadrature grid
 SCF converges when DIIS error is below 1.0E-08
 ---------------------------------------
  Cycle       Energy         DIIS Error
 ---------------------------------------
    1    -133.6566331135      1.22E-04
    2    -133.6556281524      1.99E-05
    3    -133.6556301413      1.07E-05
    4    -133.6556305845      4.39E-06
    5    -133.6556306982      9.24E-07
    6    -133.6556307158      2.57E-07
    7    -133.6556306690      1.10E-07
    8    -133.6556306719      2.86E-08
    9    -133.6556306712      6.53E-09 Convergence criterion met
 ---------------------------------------
 One-Electron    Energy =  -345.5369278494
 Total Coulomb   Energy =   147.4486434655
 Alpha Exchange  Energy =    -2.5149112256
 Beta  Exchange  Energy =    -2.5149112256
 DFT   Exchange  Energy =   -12.8668641109
 DFT Correlation Energy =    -0.8350446822
 Nuclear Repu.   Energy =    83.1643849572
 Nuclear Attr.   Energy =  -478.4177345511
 Kinetic         Energy =   132.8808067017
 SCF time:  CPU 116.28 s  wall 116.80 s
 Final Alpha MO Eigenvalues
            1           2           3           4           5           6
    1 -14.0128948  -9.9850106  -9.9531685  -1.0095743  -0.8580924  -0.7336741
            7           8           9          10          11          12
    1  -0.6237703  -0.5643769  -0.5285136  -0.5268286  -0.4719641  -0.4410011
           13          14          15          16          17          18
    1  -0.3481614   0.0308999   0.0496520   0.0523467   0.0539224   0.0831879
 Analysis of SCF Wavefunction
 
 --------------------------------------------------------------
                    Orbital Energies (a.u.)
 --------------------------------------------------------------
 
 Alpha MOs
 -- Occupied --
-14.013  -9.985  -9.953  -1.010  -0.858  -0.734  -0.624  -0.564
 -0.529  -0.527  -0.472  -0.441  -0.348
 -- Virtual --
  0.031   0.050   0.052   0.054   0.083   0.087   0.091   0.116
  0.127   0.149   0.165   0.169   0.174   0.182   0.184   0.214
  0.236   0.238   0.257   0.261   0.272   0.278   0.290   0.328
  0.343   0.361   0.392   0.406   0.510   0.510   0.533   0.558
  0.603   0.610   0.634   0.644   0.671   0.678   0.699   0.709
  0.721   0.737   0.755   0.773   0.776   0.842   0.856   0.880
  0.925   0.931   0.961   1.005   1.051   1.113   1.134   1.155
  1.198   1.215   1.274   1.276   1.293   1.306   1.332   1.361
  1.380   1.418   1.442   1.463   1.472   1.511   1.540   1.544
  1.577   1.613   1.662   1.684   1.689   1.699   1.797   1.829
  1.930   1.997   2.033   2.552   2.568   2.581   2.685   2.698
  2.842   2.913   2.918   2.981   2.987   3.047   3.080   3.147
  3.178   3.191   3.238   3.250   3.277   3.383   3.390   3.411
  3.450   3.484   3.549   3.576   3.618   3.642   3.677   3.687
  3.735   3.807   3.868   3.876   3.919   3.952   3.961   4.007
  4.053   4.082   4.118   4.164   4.173   4.189   4.290   4.350
  4.370   4.375   4.425   4.498   4.501   4.557   4.583   4.658
  4.661   4.718   4.775   4.850   4.931   5.092   5.096   5.165
  5.297   5.341   5.438   5.503   5.549   5.662   5.751   5.775
  5.848   5.894   6.273   6.522  24.338  24.545  27.777  28.163
 28.174  28.217  28.267  28.478  35.874  37.665  38.332  38.342
 40.596  40.618  40.738  40.782  40.838  40.938  40.972  40.984
 41.081  41.258  41.277  41.319  41.333  41.333  41.354
 --------------------------------------------------------------
 
          Ground-State Mulliken Net Atomic Charges

     Atom                 Charge (a.u.)
  ----------------------------------------
      1 C                    -0.375652
      2 C                    -0.242662
      3 N                    -0.360122
      4 H                     0.110155
      5 H                     0.119249
      6 H                     0.119249
      7 H                     0.127497
      8 H                     0.127497
      9 H                     0.187394
     10 H                     0.187394
  ----------------------------------------
  Sum of atomic charges =     0.000000

 -----------------------------------------------------------------
                    Cartesian Multipole Moments
 -----------------------------------------------------------------
    Charge (ESU x 10^10)
                 0.0000
    Dipole Moment (Debye)
         X       0.1396      Y       0.0000      Z      -1.3333
       Tot       1.3406
    Quadrupole Moments (Debye-Ang)
        XX     -19.6565     XY       0.0000     YY     -19.5764
        XZ      -1.4491     YZ       0.0000     ZZ     -29.1174
    Octapole Moments (Debye-Ang^2)
       XXX     -22.4468    XXY       0.0000    XYY      -5.8574
       YYY       0.0000    XXZ     -23.7285    XYZ       0.0000
       YYZ     -21.3675    XZZ     -18.3683    YZZ       0.0000
       ZZZ    -103.1203
    Hexadecapole Moments (Debye-Ang^3)
      XXXX    -108.4814   XXXY       0.0000   XXYY     -21.1729
      XYYY       0.0000   YYYY     -41.0141   XXXZ     -49.4081
      XXYZ       0.0000   XYYZ     -15.0040   YYYZ       0.0000
      XXZZ     -80.7530   XYZZ       0.0000   YYZZ     -54.9586
      XZZZ     -95.7158   YZZZ       0.0000   ZZZZ    -426.1724
 -----------------------------------------------------------------
 Calculating analytic gradient of the SCF energy
 Gradient of AOints
            1           2           3           4           5           6
    1   1.1130888   2.3311402  -2.6540507   2.8194330  -1.2483850  -1.2483849
    2  -0.0000002   0.0000010  -0.0000003  -0.0000000  -2.3306406   2.3306406
    3   3.4368511  -0.4479993  -6.0433402   1.4453862   1.4359961   1.4359962
            7           8           9          10
    1   1.8187684   1.8187680  -2.3751889  -2.3751889
    2   2.4708404  -2.4708406  -3.0371937   3.0371936
    3  -1.2090187  -1.2090185   0.5775736   0.5775734
 Gradient of XC Energy
            1           2           3           4           5           6
    1   0.0009242  -0.0055660  -0.0660828  -0.1443101   0.0704547   0.0704547
    2   0.0000000  -0.0000000   0.0000000   0.0000000   0.1204556  -0.1204556
    3   0.0263514  -0.0402254   0.1678832  -0.0574813  -0.0533463  -0.0533463
            7           8           9          10
    1  -0.0759309  -0.0759309   0.1129935   0.1129935
    2  -0.1197783   0.1197783   0.1679896  -0.1679896
    3   0.0518836   0.0518836  -0.0468012  -0.0468012
 Gradient of SCF Energy
            1           2           3           4           5           6
    1  -0.0000397   0.0000694  -0.0001642   0.0000231   0.0000051   0.0000051
    2   0.0000000  -0.0000000   0.0000000  -0.0000000   0.0000253  -0.0000253
    3   0.0003096  -0.0003156   0.0001819  -0.0000863  -0.0000490  -0.0000490
            7           8           9          10
    1  -0.0000520  -0.0000520   0.0001025   0.0001025
    2   0.0000007  -0.0000007  -0.0000059   0.0000059
    3   0.0000886   0.0000886  -0.0000844  -0.0000844
 Max gradient component =       3.156E-04
 RMS gradient           =       1.053E-04
 Gradient time:  CPU 62.86 s  wall 62.95 s
 Geometry Optimization Parameters
   NAtoms,    NIC,     NZ,  NCons,   NDum,   NFix, NCnnct, MaxDiis
       10      59      12       0       0       0       0       0

 Cartesian Hessian Update
 Hessian Updated using BFGS Update


** GEOMETRY OPTIMIZATION IN DELOCALIZED INTERNAL COORDINATES **
   Searching for a Minimum

   Optimization Cycle:   4

                       Coordinates (Angstroms)
     ATOM              X           Y           Z
    1  C          -0.002557    0.000000    0.008063
    2  C           0.004872    0.000000    1.520402
    3  N           1.312596    0.000000    2.131004
    4  H          -1.026792    0.000000   -0.391894
    5  H           0.513041    0.887817   -0.386880
    6  H           0.513041   -0.887817   -0.386880
    7  H          -0.545918   -0.875863    1.896832
    8  H          -0.545918    0.875863    1.896832
    9  H           1.855338    0.825792    1.883744
   10  H           1.855338   -0.825792    1.883744
   Point Group: c1    Number of degrees of freedom:  24


   Energy is   -133.655630671

 Hessian Updated using BFGS Update

 16 Hessian modes will be used to form the next step
  Hessian Eigenvalues:
     0.023068    0.038080    0.054483    0.056400    0.100908    0.155793
     0.160642    0.167003    0.227896    0.308756    0.337009    0.339408
     0.339421    0.341523    0.344346    0.440982

 Minimum Search - Taking Simple RFO Step
 Searching for Lamda that Minimizes Along All modes
 Value Taken    Lamda =  -0.00000106
 Step Taken.  Stepsize is  0.005254

                             Maximum     Tolerance    Cnvgd?
         Gradient           0.000189      0.000300     YES
         Displacement       0.003540      0.001200      NO
         Energy change     -0.000017      0.000001      NO


 New Cartesian Coordinates Obtained by Inverse Iteration

 Displacement from previous Coordinates is:  0.005726
 Writing REM_CC_EA           10
 ----------------------------------------------------
       Standard Nuclear Orientation (Angstroms)
    I     Atom         X            Y            Z
 ----------------------------------------------------
    1      C      -0.002788     0.000000     0.007548
    2      C       0.005312     0.000000     1.520154
    3      N       1.312838     0.000000     2.130641
    4      H      -1.027500     0.000000    -0.391157
    5      H       0.512534     0.887841    -0.387515
    6      H       0.512534    -0.887841    -0.387515
    7      H      -0.545416    -0.875977     1.896193
    8      H      -0.545416     0.875977     1.896193
    9      H       1.855471     0.826214     1.885212
   10      H       1.855471    -0.826214     1.885212
 ----------------------------------------------------
 Nuclear Repulsion Energy =    83.1631118251 hartrees
 There are       13 alpha and       13 beta electrons
 Applying Cartesian multipole field
    Component          Value
    ---------          -----
     (2,0,0)        1.00000E-11
     (0,2,0)        2.00000E-11
     (0,0,2)       -3.00000E-11
 Nucleus-field energy     =    -0.0000000054 hartrees
 Requested basis set is G3large
 There are 72 shells and 196 basis functions
 A cutoff of  1.0D-11 yielded   2574 shell pairs
 There are  19071 function pairs ( 22796 Cartesian)
Evaluating contribution to one-electron hamiltonian from nuclear
 Smallest overlap matrix eigenvalue = 8.62E-05
 Multipole matrices computed through 2nd order
 Guess MOs from SCF MO coefficient file
Reading MOs from coefficient file
Reading MOs from coefficient file
 A restricted hybrid HF-DFT SCF calculation will be
 performed using Pulay DIIS extrapolation
 Exchange:     1.0000 Hartree-Fock + 1.0000 BNL
 Correlation:  1.0000 LYP
 Using SG-1 standard quadrature grid
 SCF converges when DIIS error is below 1.0E-08
 ---------------------------------------
  Cycle       Energy         DIIS Error
 ---------------------------------------
    1    -133.6558124481      2.03E-05
    2    -133.6556312399      3.19E-06
    3    -133.6556313182      1.78E-06
    4    -133.6556313338      7.03E-07
    5    -133.6556313400      1.43E-07
    6    -133.6556313881      4.23E-08
    7    -133.6556313865      1.70E-08
    8    -133.6556313881      4.12E-09 Convergence criterion met
 ---------------------------------------
 One-Electron    Energy =  -345.5347531043
 Total Coulomb   Energy =   147.4479297064
 Alpha Exchange  Energy =    -2.5149241775
 Beta  Exchange  Energy =    -2.5149241775
 DFT   Exchange  Energy =   -12.8670211397
 DFT Correlation Energy =    -0.8350503153
 Nuclear Repu.   Energy =    83.1631118197
 Nuclear Attr.   Energy =  -478.4160161664
 Kinetic         Energy =   132.8812630622
 SCF time:  CPU 100.33 s  wall 100.80 s
 Final Alpha MO Eigenvalues
            1           2           3           4           5           6
    1 -14.0128403  -9.9849847  -9.9531054  -1.0095460  -0.8580620  -0.7336266
            7           8           9          10          11          12
    1  -0.6239013  -0.5644384  -0.5283701  -0.5269101  -0.4719645  -0.4410361
           13          14          15          16          17          18
    1  -0.3480099   0.0309097   0.0496618   0.0523448   0.0539292   0.0831920
 Analysis of SCF Wavefunction
 
 --------------------------------------------------------------
                    Orbital Energies (a.u.)
 --------------------------------------------------------------
 
 Alpha MOs
 -- Occupied --
-14.013  -9.985  -9.953  -1.010  -0.858  -0.734  -0.624  -0.564
 -0.528  -0.527  -0.472  -0.441  -0.348
 -- Virtual --
  0.031   0.050   0.052   0.054   0.083   0.087   0.091   0.116
  0.127   0.149   0.165   0.169   0.174   0.182   0.184   0.214
  0.236   0.238   0.257   0.261   0.271   0.278   0.290   0.328
  0.343   0.361   0.392   0.406   0.510   0.510   0.533   0.558
  0.603   0.610   0.634   0.644   0.671   0.678   0.699   0.709
  0.721   0.737   0.755   0.773   0.775   0.842   0.856   0.880
  0.925   0.931   0.961   1.005   1.052   1.113   1.134   1.155
  1.198   1.215   1.274   1.276   1.293   1.306   1.332   1.361
  1.380   1.418   1.442   1.463   1.472   1.511   1.540   1.544
  1.577   1.613   1.661   1.684   1.688   1.699   1.797   1.828
  1.930   1.996   2.033   2.552   2.568   2.581   2.685   2.698
  2.842   2.914   2.918   2.982   2.986   3.047   3.081   3.147
  3.178   3.191   3.238   3.250   3.277   3.383   3.390   3.411
  3.450   3.484   3.550   3.576   3.618   3.642   3.677   3.687
  3.735   3.807   3.869   3.877   3.919   3.953   3.961   4.007
  4.053   4.082   4.118   4.164   4.173   4.190   4.290   4.350
  4.370   4.375   4.424   4.498   4.501   4.556   4.582   4.658
  4.662   4.718   4.775   4.851   4.932   5.094   5.097   5.165
  5.297   5.341   5.438   5.503   5.550   5.662   5.751   5.775
  5.848   5.894   6.274   6.522  24.338  24.545  27.776  28.163
 28.174  28.217  28.267  28.478  35.875  37.664  38.333  38.343
 40.596  40.619  40.738  40.782  40.838  40.938  40.972  40.984
 41.081  41.258  41.277  41.319  41.333  41.333  41.354
 --------------------------------------------------------------
 
          Ground-State Mulliken Net Atomic Charges

     Atom                 Charge (a.u.)
  ----------------------------------------
      1 C                    -0.375318
      2 C                    -0.242919
      3 N                    -0.360364
      4 H                     0.110153
      5 H                     0.119204
      6 H                     0.119204
      7 H                     0.127518
      8 H                     0.127518
      9 H                     0.187502
     10 H                     0.187502
  ----------------------------------------
  Sum of atomic charges =     0.000000

 -----------------------------------------------------------------
                    Cartesian Multipole Moments
 -----------------------------------------------------------------
    Charge (ESU x 10^10)
                 0.0000
    Dipole Moment (Debye)
         X       0.1414      Y       0.0000      Z      -1.3275
       Tot       1.3350
    Quadrupole Moments (Debye-Ang)
        XX     -19.6541     XY       0.0000     YY     -19.5716
        XZ      -1.4353     YZ       0.0000     ZZ     -29.1001
    Octapole Moments (Debye-Ang^2)
       XXX     -22.4469    XXY       0.0000    XYY      -5.8508
       YYY       0.0000    XXZ     -23.6963    XYZ       0.0000
       YYZ     -21.3493    XZZ     -18.3185    YZZ       0.0000
       ZZZ    -103.0469
    Hexadecapole Moments (Debye-Ang^3)
      XXXX    -108.4886   XXXY       0.0000   XXYY     -21.1627
      XYYY       0.0000   YYYY     -41.0101   XXXZ     -49.3762
      XXYZ       0.0000   XYYZ     -14.9881   YYYZ       0.0000
      XXZZ     -80.6570   XYZZ       0.0000   YYZZ     -54.9204
      XZZZ     -95.5957   YZZZ       0.0000   ZZZZ    -425.9670
 -----------------------------------------------------------------
 Calculating analytic gradient of the SCF energy
 Gradient of AOints
            1           2           3           4           5           6
    1   1.1114539   2.3318413  -2.6572039   2.8210291  -1.2475525  -1.2475524
    2  -0.0000000  -0.0000002   0.0000000   0.0000001  -2.3311375   2.3311375
    3   3.4396899  -0.4524195  -6.0308760   1.4409999   1.4359417   1.4359418
            7           8           9          10
    1   1.8181840   1.8181841  -2.3741919  -2.3741918
    2   2.4720383  -2.4720383  -3.0413034   3.0413034
    3  -1.2065191  -1.2065192   0.5718802   0.5718802
 Gradient of XC Energy
            1           2           3           4           5           6
    1   0.0010077  -0.0056021  -0.0659826  -0.1443837   0.0704253   0.0704253
    2   0.0000000   0.0000000  -0.0000000  -0.0000000   0.1204815  -0.1204815
    3   0.0262124  -0.0400870   0.1671998  -0.0572729  -0.0533563  -0.0533563
            7           8           9          10
    1  -0.0759158  -0.0759158   0.1129709   0.1129709
    2  -0.1198231   0.1198231   0.1681828  -0.1681828
    3   0.0517938   0.0517938  -0.0464637  -0.0464637
 Gradient of SCF Energy
            1           2           3           4           5           6
    1  -0.0000329   0.0000812  -0.0000408   0.0000060  -0.0000026  -0.0000026
    2  -0.0000000   0.0000000  -0.0000000  -0.0000000   0.0000018  -0.0000018
    3   0.0001060  -0.0000849   0.0000131  -0.0000323  -0.0000171  -0.0000171
            7           8           9          10
    1  -0.0000147  -0.0000147   0.0000105   0.0000105
    2   0.0000087  -0.0000087  -0.0000089   0.0000089
    3   0.0000295   0.0000295  -0.0000133  -0.0000133
 Max gradient component =       1.060E-04
 RMS gradient           =       3.302E-05
 Gradient time:  CPU 62.14 s  wall 62.25 s
 Geometry Optimization Parameters
   NAtoms,    NIC,     NZ,  NCons,   NDum,   NFix, NCnnct, MaxDiis
       10      59      12       0       0       0       0       0

 Cartesian Hessian Update
 Hessian Updated using BFGS Update


** GEOMETRY OPTIMIZATION IN DELOCALIZED INTERNAL COORDINATES **
   Searching for a Minimum

   Optimization Cycle:   5

                       Coordinates (Angstroms)
     ATOM              X           Y           Z
    1  C          -0.002788    0.000000    0.007548
    2  C           0.005312    0.000000    1.520154
    3  N           1.312838    0.000000    2.130641
    4  H          -1.027500    0.000000   -0.391157
    5  H           0.512534    0.887841   -0.387515
    6  H           0.512534   -0.887841   -0.387515
    7  H          -0.545416   -0.875977    1.896193
    8  H          -0.545416    0.875977    1.896193
    9  H           1.855471    0.826214    1.885212
   10  H           1.855471   -0.826214    1.885212
   Point Group: c1    Number of degrees of freedom:  24


   Energy is   -133.655631388

 Hessian Updated using BFGS Update

 14 Hessian modes will be used to form the next step
  Hessian Eigenvalues:
     0.022649    0.051869    0.055919    0.096841    0.148958    0.156656
     0.160753    0.230350    0.307519    0.334960    0.339235    0.341556
     0.348258    0.442170

 Minimum Search - Taking Simple RFO Step
 Searching for Lamda that Minimizes Along All modes
 Value Taken    Lamda =   0.00000000
 Step Taken.  Stepsize is  0.001216

                             Maximum     Tolerance    Cnvgd?
         Gradient           0.000043      0.000300     YES
         Displacement       0.000754      0.001200     YES
         Energy change     -0.000001      0.000001     YES


                       Distance Matrix (Angstroms)
             C (  1)   C (  2)   N (  3)   H (  4)   H (  5)   H (  6)
   C (  2)  1.512628
   N (  3)  2.497678  1.443023
   H (  4)  1.099545  2.172512  3.440442
   H (  5)  1.099951  2.164425  2.787446  1.777632
   H (  6)  1.099951  2.164425  2.787446  1.777632  1.775681
   H (  7)  2.151455  1.100927  2.067705  2.496339  3.073374  2.516887
   H (  8)  2.151455  1.100927  2.067705  2.496339  2.516887  3.073374
   H (  9)  2.767920  2.058879  1.018487  3.765103  2.640562  3.147499
   H ( 10)  2.767920  2.058879  1.018487  3.765103  3.147499  2.640562
             H (  7)   H (  8)   H (  9)
   H (  8)  1.751953
   H (  9)  2.943098  2.401427
   H ( 10)  2.401427  2.943099  1.652427
 


 ******************************
 **  OPTIMIZATION CONVERGED  **
 ******************************
 Analysis of SCF Wavefunction
 
 --------------------------------------------------------------
                    Orbital Energies (a.u.)
 --------------------------------------------------------------
 
 Alpha MOs
 -- Occupied --
-14.013  -9.985  -9.953  -1.010  -0.858  -0.734  -0.624  -0.564
 -0.528  -0.527  -0.472  -0.441  -0.348
 -- Virtual --
  0.031   0.050   0.052   0.054   0.083   0.087   0.091   0.116
  0.127   0.149   0.165   0.169   0.174   0.182   0.184   0.214
  0.236   0.238   0.257   0.261   0.271   0.278   0.290   0.328
  0.343   0.361   0.392   0.406   0.510   0.510   0.533   0.558
  0.603   0.610   0.634   0.644   0.671   0.678   0.699   0.709
  0.721   0.737   0.755   0.773   0.775   0.842   0.856   0.880
  0.925   0.931   0.961   1.005   1.052   1.113   1.134   1.155
  1.198   1.215   1.274   1.276   1.293   1.306   1.332   1.361
  1.380   1.418   1.442   1.463   1.472   1.511   1.540   1.544
  1.577   1.613   1.661   1.684   1.688   1.699   1.797   1.828
  1.930   1.996   2.033   2.552   2.568   2.581   2.685   2.698
  2.842   2.914   2.918   2.982   2.986   3.047   3.081   3.147
  3.178   3.191   3.238   3.250   3.277   3.383   3.390   3.411
  3.450   3.484   3.550   3.576   3.618   3.642   3.677   3.687
  3.735   3.807   3.869   3.877   3.919   3.953   3.961   4.007
  4.053   4.082   4.118   4.164   4.173   4.190   4.290   4.350
  4.370   4.375   4.424   4.498   4.501   4.556   4.582   4.658
  4.662   4.718   4.775   4.851   4.932   5.094   5.097   5.165
  5.297   5.341   5.438   5.503   5.550   5.662   5.751   5.775
  5.848   5.894   6.274   6.522  24.338  24.545  27.776  28.163
 28.174  28.217  28.267  28.478  35.875  37.664  38.333  38.343
 40.596  40.619  40.738  40.782  40.838  40.938  40.972  40.984
 41.081  41.258  41.277  41.319  41.333  41.333  41.354
 --------------------------------------------------------------
 
          Ground-State Mulliken Net Atomic Charges

     Atom                 Charge (a.u.)
  ----------------------------------------
      1 C                    -0.375318
      2 C                    -0.242919
      3 N                    -0.360364
      4 H                     0.110153
      5 H                     0.119204
      6 H                     0.119204
      7 H                     0.127518
      8 H                     0.127518
      9 H                     0.187502
     10 H                     0.187502
  ----------------------------------------
  Sum of atomic charges =     0.000000

 -----------------------------------------------------------------
                    Cartesian Multipole Moments
 -----------------------------------------------------------------
    Charge (ESU x 10^10)
                 0.0000
    Dipole Moment (Debye)
         X       0.1414      Y       0.0000      Z      -1.3275
       Tot       1.3350
    Quadrupole Moments (Debye-Ang)
        XX     -19.6541     XY       0.0000     YY     -19.5716
        XZ      -1.4353     YZ       0.0000     ZZ     -29.1001
    Octapole Moments (Debye-Ang^2)
       XXX     -22.4469    XXY       0.0000    XYY      -5.8508
       YYY       0.0000    XXZ     -23.6963    XYZ       0.0000
       YYZ     -21.3493    XZZ     -18.3185    YZZ       0.0000
       ZZZ    -103.0469
    Hexadecapole Moments (Debye-Ang^3)
      XXXX    -108.4886   XXXY       0.0000   XXYY     -21.1627
      XYYY       0.0000   YYYY     -41.0101   XXXZ     -49.3762
      XXYZ       0.0000   XYYZ     -14.9881   YYYZ       0.0000
      XXZZ     -80.6570   XYZZ       0.0000   YYZZ     -54.9204
      XZZZ     -95.5957   YZZZ       0.0000   ZZZZ    -425.9670
 -----------------------------------------------------------------
 Total job time:  954.94s(wall), 951.50s(cpu) 
 Sun Apr 24 00:59:31 2011

        *************************************************************
        *                                                           *
        *  Thank you very much for using Q-Chem.  Have a nice day.  *
        *                                                           *
        *************************************************************


0 sent ACK to 0 
now end server 0 ... 
 
**********************************************************************
Job 2 of 2 
**********************************************************************
 
Process 0 of 1 is on cl248.stfx.acenet.ca - thread support 1
initial socket setup ...start
initial socket setup ...done 
now start server 0 ... 

cmd = /usr/bin/ssh clhead /usr/local/qchem/bin/get_hostid 1673362685 > /scratch/tmp/4506650.1.long.q/qchem20835/lic.dat
                  Welcome to Q-Chem
     A Quantum Leap Into The Future Of Chemistry

 Y. Shao, L. Fusti-Molnar, Y. Jung, J. Kussmann, C. Ochsenfeld,
 S. T. Brown, A. T. B. Gilbert, L. V. Slipchenko,S. V. Levchenko,
 D. P. O'Neill, R. A. DiStasio Jr., R. C. Lochan, T. Wang,
 G. J. O. Beran, N. A. Besley, J. M. Herbert, C. Y. Lin,
 T. Van Voorhis, S. H. Chien, A. Sodt, R. P. Steele, 
 V. A. Rassolov, P. E. Maslen, P. P. Korambath, R. D. Adamson,
 B. Austin, J. Baker, E. F. C. Byrd, H. Dachsel, R. J. Doerksen,
 A. Dreuw, B. D. Dunietz, A. D. Dutoi, T. R. Furlani,
 S. R. Gwaltney, A. Heyden, S. Hirata, C.-P. Hsu, G. Kedziora,
 R. Z. Khaliullin, P. Klunzinger, A. M. Lee, M. S. Lee, W. Liang,
 I. Lotan, N. Nair, B. Peters, E. I. Proynov, P. A. Pieniazek, 
 Y. M. Rhee, J. Ritchie, E. Rosta, C. D. Sherrill, 
 A. C. Simmonett, J. E. Subotnik, H. L. Woodcock III,
 W. Zhang, A. T. Bell, A. K. Chakraborty, D. M. Chipman,
 F. J. Keil, A. Warshel, W. J. Hehre, H. F. Schaefer III,
 J. Kong, A. I. Krylov, P. M. W. Gill, M. Head-Gordon,
 Q-Chem, Version 3.1, Q-Chem, Inc., Pittsburgh, PA (2007).

 Additional authors for Version 3.1: 
 Z. Gan, Y. Zhao, N. E. Schultz, D. Truhlar, E. Epifanovsky and M. Oana.

 Additional authors for Version 3.2: 
 R. Baer, B. R. Brooks, D. Casanova, J.-D. Chai, C.-L. Cheng, 
 C. Cramer, D. Crittenden, A. Ghysels, G. Hawkins, E. G. Hohenstein, 
 C. Kelley, W. Kurlancheek, D. Liotard, E. Livshits, P. Manohar, 
 A. Marenich, D. Neuhauser, R. Olson, M. A. Rohrdanz, K. S. Thanthiriwatte, 
 A. J. W. Thom, V. Vanovschi, C. F. Williams, Q. Wu and Z.-Q. You. 


 Intel X86 Linux Version

 Q-chem begins on Sun Apr 24 00:59:33 2011  

 Parallel job on  1  processors
Processing $rem in /usr/local/qchem/config/preferences.

theFileMan(): MAXOPENFILES=974 MAX_SUB_FILE_NUM=16
Maximum size of a physical file is 2.0 GB, maximum size of a tmp-file is 32.0 GB


--------------------------------------------------------------
User input:
--------------------------------------------------------------

$molecule 
READ 
$end 

$xc_functional
   X HF 1.0
   X BNL 1.0
   C LYP 1.0
$end

$rem
SYMMETRY_DECOMPOSITION	0
exchange 		general
BASIS                   g3large
omega			390 
JOBTYPE                 freq
IDERIV 1
SCF_GUESS READ
separate_jk		true
mem_static              760
max_scf_cycles          200
scf_final_print         1
sym_ignore              true
$end

--------------------------------------------------------------
 Writing REM_CC_EA           10
 ----------------------------------------------------
       Standard Nuclear Orientation (Angstroms)
    I     Atom         X            Y            Z
 ----------------------------------------------------
    1      C      -0.002788     0.000000     0.007548
    2      C       0.005312     0.000000     1.520154
    3      N       1.312838     0.000000     2.130641
    4      H      -1.027500     0.000000    -0.391157
    5      H       0.512534     0.887841    -0.387515
    6      H       0.512534    -0.887841    -0.387515
    7      H      -0.545416    -0.875977     1.896193
    8      H      -0.545416     0.875977     1.896193
    9      H       1.855471     0.826214     1.885212
   10      H       1.855471    -0.826214     1.885212
 ----------------------------------------------------
 Nuclear Repulsion Energy =    83.1631118251 hartrees
 There are       13 alpha and       13 beta electrons
 Requested basis set is G3large
 There are 72 shells and 196 basis functions

Total QAlloc Memory Limit   2000 MB
Mega-Array Size       759 MB
MEM_STATIC part       760 MB

                       Distance Matrix (Angstroms)
             C (  1)   C (  2)   N (  3)   H (  4)   H (  5)   H (  6)
   C (  2)  1.512628
   N (  3)  2.497678  1.443023
   H (  4)  1.099545  2.172512  3.440442
   H (  5)  1.099951  2.164425  2.787446  1.777632
   H (  6)  1.099951  2.164425  2.787446  1.777632  1.775681
   H (  7)  2.151455  1.100927  2.067705  2.496339  3.073374  2.516887
   H (  8)  2.151455  1.100927  2.067705  2.496339  2.516887  3.073374
   H (  9)  2.767920  2.058879  1.018487  3.765103  2.640562  3.147499
   H ( 10)  2.767920  2.058879  1.018487  3.765103  3.147499  2.640562
             H (  7)   H (  8)   H (  9)
   H (  8)  1.751953
   H (  9)  2.943098  2.401427
   H ( 10)  2.401427  2.943099  1.652427
 
 A cutoff of  1.0D-11 yielded   2574 shell pairs
 There are  19071 function pairs ( 22796 Cartesian)
Evaluating contribution to one-electron hamiltonian from nuclear
 Smallest overlap matrix eigenvalue = 8.62E-05
 Multipole matrices computed through 2nd order
 Guess MOs from SCF MO coefficient file
Reading MOs from coefficient file
Reading MOs from coefficient file
 A restricted hybrid HF-DFT SCF calculation will be
 performed using Pulay DIIS extrapolation
 Exchange:     1.0000 Hartree-Fock + 1.0000 BNL
 Correlation:  1.0000 LYP
 Using SG-1 standard quadrature grid
 SCF converges when DIIS error is below 1.0E-08
 ---------------------------------------
  Cycle       Energy         DIIS Error
 ---------------------------------------
    1    -133.6556312356      1.20E-09
    2    -133.6556312360      5.67E-10 Convergence criterion met
 ---------------------------------------
 One-Electron    Energy =  -345.5347536068
 Total Coulomb   Energy =   147.4479302601
 Alpha Exchange  Energy =    -2.5149241842
 Beta  Exchange  Energy =    -2.5149241842
 DFT   Exchange  Energy =   -12.8670210423
 DFT Correlation Energy =    -0.8350503037
 Nuclear Repu.   Energy =    83.1631118251
 Nuclear Attr.   Energy =  -478.4160168588
 Kinetic         Energy =   132.8812632520
 SCF time:  CPU 28.55 s  wall 28.79 s
 Final Alpha MO Eigenvalues
            1           2           3           4           5           6
    1 -14.0128403  -9.9849847  -9.9531054  -1.0095460  -0.8580620  -0.7336266
            7           8           9          10          11          12
    1  -0.6239013  -0.5644384  -0.5283701  -0.5269101  -0.4719645  -0.4410361
           13          14          15          16          17          18
    1  -0.3480099   0.0309097   0.0496618   0.0523448   0.0539292   0.0831920
 Analysis of SCF Wavefunction
 
 --------------------------------------------------------------
                    Orbital Energies (a.u.)
 --------------------------------------------------------------
 
 Alpha MOs
 -- Occupied --
-14.013  -9.985  -9.953  -1.010  -0.858  -0.734  -0.624  -0.564
 -0.528  -0.527  -0.472  -0.441  -0.348
 -- Virtual --
  0.031   0.050   0.052   0.054   0.083   0.087   0.091   0.116
  0.127   0.149   0.165   0.169   0.174   0.182   0.184   0.214
  0.236   0.238   0.257   0.261   0.271   0.278   0.290   0.328
  0.343   0.361   0.392   0.406   0.510   0.510   0.533   0.558
  0.603   0.610   0.634   0.644   0.671   0.678   0.699   0.709
  0.721   0.737   0.755   0.773   0.775   0.842   0.856   0.880
  0.925   0.931   0.961   1.005   1.052   1.113   1.134   1.155
  1.198   1.215   1.274   1.276   1.293   1.306   1.332   1.361
  1.380   1.418   1.442   1.463   1.472   1.511   1.540   1.544
  1.577   1.613   1.661   1.684   1.688   1.699   1.797   1.828
  1.930   1.996   2.033   2.552   2.568   2.581   2.685   2.698
  2.842   2.914   2.918   2.982   2.986   3.047   3.081   3.147
  3.178   3.191   3.238   3.250   3.277   3.383   3.390   3.411
  3.450   3.484   3.550   3.576   3.618   3.642   3.677   3.687
  3.735   3.807   3.869   3.877   3.919   3.953   3.961   4.007
  4.053   4.082   4.118   4.164   4.173   4.190   4.290   4.350
  4.370   4.375   4.424   4.498   4.501   4.556   4.582   4.658
  4.662   4.718   4.775   4.851   4.932   5.094   5.097   5.165
  5.297   5.341   5.438   5.503   5.550   5.662   5.751   5.775
  5.848   5.894   6.274   6.522  24.338  24.545  27.776  28.163
 28.174  28.217  28.267  28.478  35.875  37.664  38.333  38.343
 40.596  40.619  40.738  40.782  40.838  40.938  40.972  40.984
 41.081  41.258  41.277  41.319  41.333  41.333  41.354
 --------------------------------------------------------------
 
          Ground-State Mulliken Net Atomic Charges

     Atom                 Charge (a.u.)
  ----------------------------------------
      1 C                    -0.375318
      2 C                    -0.242919
      3 N                    -0.360363
      4 H                     0.110153
      5 H                     0.119204
      6 H                     0.119204
      7 H                     0.127518
      8 H                     0.127518
      9 H                     0.187502
     10 H                     0.187502
  ----------------------------------------
  Sum of atomic charges =     0.000000

 -----------------------------------------------------------------
                    Cartesian Multipole Moments
 -----------------------------------------------------------------
    Charge (ESU x 10^10)
                 0.0000
    Dipole Moment (Debye)
         X       0.1414      Y       0.0000      Z      -1.3275
       Tot       1.3350
    Quadrupole Moments (Debye-Ang)
        XX     -19.6541     XY       0.0000     YY     -19.5716
        XZ      -1.4353     YZ       0.0000     ZZ     -29.1001
    Octapole Moments (Debye-Ang^2)
       XXX     -22.4469    XXY       0.0000    XYY      -5.8508
       YYY       0.0000    XXZ     -23.6963    XYZ       0.0000
       YYZ     -21.3493    XZZ     -18.3185    YZZ       0.0000
       ZZZ    -103.0470
    Hexadecapole Moments (Debye-Ang^3)
      XXXX    -108.4886   XXXY       0.0000   XXYY     -21.1627
      XYYY       0.0000   YYYY     -41.0101   XXXZ     -49.3762
      XXYZ       0.0000   XYYZ     -14.9881   YYYZ       0.0000
      XXZZ     -80.6570   XYZZ       0.0000   YYZZ     -54.9204
      XZZZ     -95.5957   YZZZ       0.0000   ZZZZ    -425.9671
 -----------------------------------------------------------------
 Calculating analytic gradient of the SCF energy
 Gradient of AOints
            1           2           3           4           5           6
    1   1.1114538   2.3318411  -2.6572038   2.8210293  -1.2475523  -1.2475523
    2   0.0000000  -0.0000002   0.0000001   0.0000001  -2.3311374   2.3311374
    3   3.4396896  -0.4524182  -6.0308778   1.4409997   1.4359418   1.4359419
            7           8           9          10
    1   1.8181840   1.8181841  -2.3741920  -2.3741919
    2   2.4720385  -2.4720384  -3.0413035   3.0413035
    3  -1.2065192  -1.2065192   0.5718806   0.5718807
 Gradient of XC Energy
            1           2           3           4           5           6
    1   0.0010077  -0.0056021  -0.0659826  -0.1443837   0.0704253   0.0704253
    2  -0.0000000   0.0000000  -0.0000000  -0.0000000   0.1204815  -0.1204815
    3   0.0262124  -0.0400870   0.1671998  -0.0572729  -0.0533563  -0.0533563
            7           8           9          10
    1  -0.0759158  -0.0759158   0.1129709   0.1129709
    2  -0.1198231   0.1198231   0.1681828  -0.1681828
    3   0.0517938   0.0517938  -0.0464637  -0.0464637
 Gradient of SCF Energy
            1           2           3           4           5           6
    1  -0.0000329   0.0000812  -0.0000408   0.0000059  -0.0000026  -0.0000026
    2  -0.0000000   0.0000000  -0.0000000  -0.0000000   0.0000018  -0.0000018
    3   0.0001060  -0.0000849   0.0000131  -0.0000323  -0.0000171  -0.0000171
            7           8           9          10
    1  -0.0000147  -0.0000147   0.0000105   0.0000105
    2   0.0000087  -0.0000087  -0.0000089   0.0000089
    3   0.0000295   0.0000295  -0.0000133  -0.0000133
 Max gradient component =       1.060E-04
 RMS gradient           =       3.303E-05
 Gradient time:  CPU 62.18 s  wall 62.28 s
 ######################################################
 ######################################################
 # Starting finite difference calculation for IDERIV  #
 Finite diff step size: 1.89e-03 a.u.
 Writing REM_CC_EA           10
 ----------------------------------------------------
       Standard Nuclear Orientation (Angstroms)
    I     Atom         X            Y            Z
 ----------------------------------------------------
    1      C      -0.001788     0.000000     0.007548
    2      C       0.005312     0.000000     1.520154
    3      N       1.312838     0.000000     2.130641
    4      H      -1.027500     0.000000    -0.391157
    5      H       0.512534     0.887841    -0.387515
    6      H       0.512534    -0.887841    -0.387515
    7      H      -0.545416    -0.875977     1.896193
    8      H      -0.545416     0.875977     1.896193
    9      H       1.855471     0.826214     1.885212
   10      H       1.855471    -0.826214     1.885212
 ----------------------------------------------------
 Nuclear Repulsion Energy =    83.1652529284 hartrees
 There are       13 alpha and       13 beta electrons

                       Distance Matrix (Angstroms)
             C (  1)   C (  2)   N (  3)   H (  4)   H (  5)   H (  6)
   C (  2)  1.512623
   N (  3)  2.497151  1.443023
   H (  4)  1.100477  2.172512  3.440442
   H (  5)  1.099483  2.164425  2.787446  1.777632
   H (  6)  1.099483  2.164425  2.787446  1.777632  1.775681
   H (  7)  2.151708  1.100927  2.067705  2.496339  3.073374  2.516887
   H (  8)  2.151708  1.100927  2.067705  2.496339  2.516887  3.073374
   H (  9)  2.767248  2.058879  1.018487  3.765103  2.640562  3.147499
   H ( 10)  2.767248  2.058879  1.018487  3.765103  3.147499  2.640562
             H (  7)   H (  8)   H (  9)
   H (  8)  1.751953
   H (  9)  2.943098  2.401427
   H ( 10)  2.401427  2.943099  1.652427
 
 Requested basis set is G3large
 There are 72 shells and 196 basis functions
 A cutoff of  1.0D-11 yielded   2574 shell pairs
 There are  19071 function pairs ( 22796 Cartesian)
Evaluating contribution to one-electron hamiltonian from nuclear
 Smallest overlap matrix eigenvalue = 8.61E-05
 Multipole matrices computed through 2nd order
 Guess MOs from SCF MO coefficient file
Reading MOs from coefficient file
Reading MOs from coefficient file
 A restricted hybrid HF-DFT SCF calculation will be
 performed using Pulay DIIS extrapolation
 Exchange:     1.0000 Hartree-Fock + 1.0000 BNL
 Correlation:  1.0000 LYP
 Using SG-1 standard quadrature grid
 SCF converges when DIIS error is below 1.0E-08
 ---------------------------------------
  Cycle       Energy         DIIS Error
 ---------------------------------------
    1    -133.6556272164      2.24E-05
    2    -133.6556302267      2.80E-06
    3    -133.6556302822      1.07E-06
    4    -133.6556302759      2.89E-07
    5    -133.6556302790      1.62E-07
    6    -133.6556302794      3.03E-08
    7    -133.6556302799      8.61E-09 Convergence criterion met
 ---------------------------------------
 One-Electron    Energy =  -345.5391471720
 Total Coulomb   Energy =   147.4502049162
 Alpha Exchange  Energy =    -2.5149260530
 Beta  Exchange  Energy =    -2.5149260530
 DFT   Exchange  Energy =   -12.8670370123
 DFT Correlation Energy =    -0.8350518343
 Nuclear Repu.   Energy =    83.1652529284
 Nuclear Attr.   Energy =  -478.4204873087
 Kinetic         Energy =   132.8813401367
 SCF time:  CPU 88.94 s  wall 89.37 s
 Final Alpha MO Eigenvalues
            1           2           3           4           5           6
    1 -14.0128106  -9.9849868  -9.9531033  -1.0095457  -0.8580370  -0.7336412
            7           8           9          10          11          12
    1  -0.6239115  -0.5643824  -0.5282872  -0.5270101  -0.4719140  -0.4411343
           13          14          15          16          17          18
    1  -0.3479686   0.0309065   0.0496679   0.0523402   0.0539291   0.0832028
 Analysis of SCF Wavefunction
 
 --------------------------------------------------------------
                    Orbital Energies (a.u.)
 --------------------------------------------------------------
 
 Alpha MOs
 -- Occupied --
-14.013  -9.985  -9.953  -1.010  -0.858  -0.734  -0.624  -0.564
 -0.528  -0.527  -0.472  -0.441  -0.348
 -- Virtual --
  0.031   0.050   0.052   0.054   0.083   0.087   0.091   0.116
  0.127   0.149   0.165   0.169   0.174   0.182   0.184   0.214
  0.236   0.238   0.257   0.261   0.272   0.278   0.290   0.328
  0.343   0.361   0.392   0.406   0.510   0.510   0.533   0.558
  0.603   0.610   0.634   0.644   0.671   0.678   0.699   0.709
  0.721   0.737   0.755   0.773   0.775   0.842   0.856   0.880
  0.925   0.931   0.961   1.005   1.052   1.113   1.134   1.155
  1.198   1.215   1.274   1.276   1.293   1.306   1.332   1.361
  1.380   1.418   1.442   1.463   1.472   1.511   1.540   1.544
  1.577   1.613   1.661   1.684   1.688   1.699   1.797   1.828
  1.930   1.996   2.033   2.552   2.568   2.582   2.684   2.698
  2.842   2.914   2.918   2.982   2.986   3.047   3.080   3.147
  3.177   3.191   3.238   3.250   3.277   3.382   3.391   3.412
  3.450   3.484   3.550   3.576   3.618   3.642   3.677   3.687
  3.735   3.807   3.869   3.877   3.919   3.953   3.961   4.007
  4.054   4.082   4.118   4.163   4.173   4.190   4.289   4.350
  4.370   4.375   4.424   4.499   4.501   4.557   4.582   4.659
  4.661   4.717   4.775   4.851   4.932   5.094   5.096   5.165
  5.297   5.341   5.438   5.503   5.549   5.662   5.751   5.774
  5.848   5.894   6.274   6.522  24.338  24.545  27.776  28.163
 28.175  28.216  28.268  28.478  35.875  37.664  38.333  38.343
 40.596  40.619  40.738  40.782  40.838  40.938  40.972  40.984
 41.081  41.258  41.277  41.318  41.333  41.333  41.354
 --------------------------------------------------------------
 
          Ground-State Mulliken Net Atomic Charges

     Atom                 Charge (a.u.)
  ----------------------------------------
      1 C                    -0.375338
      2 C                    -0.243003
      3 N                    -0.360395
      4 H                     0.109932
      5 H                     0.119346
      6 H                     0.119346
      7 H                     0.127549
      8 H                     0.127549
[...]
Order 1, Length 30
   0.1005455  -0.2205252  -0.0737850   0.0001117   0.0012129   0.0010285  -0.0016339   0.0009422   0.0005940  -0.0012437   0.0010150   0.0011880   0.0123109  -0.0185527  -0.0085754  -0.1097519   0.2338910   0.0805696  -0.0002767   0.0008374  -0.0004998   0.0001314   0.0015666   0.0003555   0.0000808  -0.0002517  -0.0000746  -0.0002714  -0.0001385  -0.0008051
Order 1, Length 30
   0.0415035  -0.0727100  -0.0755955   0.0171007  -0.0288442  -0.0133722   0.0010152   0.0010837   0.0038122  -0.0044195   0.0101726   0.0034932  -0.0061510   0.0085759   0.0030827  -0.0474132   0.0805696   0.0837523  -0.0000690   0.0003529   0.0015010  -0.0003930   0.0004015  -0.0061926  -0.0001354  -0.0001167  -0.0001712  -0.0010373   0.0005138  -0.0003125
Order 1, Length 30
   0.0011077  -0.0003542   0.0008239  -0.1039555  -0.0935357   0.0434303  -0.0230949  -0.0285609   0.0035209   0.0002375   0.0000897   0.0003006   0.0008813  -0.0001306  -0.0003937  -0.0002747  -0.0002767  -0.0000690   0.1214471   0.1102081  -0.0417144   0.0085377   0.0117603  -0.0056984  -0.0056275   0.0008608  -0.0008610   0.0007417  -0.0000621   0.0006579
Order 1, Length 30
   0.0012849   0.0016989  -0.0009581  -0.1006490  -0.2175908   0.0707135  -0.0002616   0.0024296  -0.0017965   0.0001712  -0.0000571   0.0007324   0.0004696   0.0015657  -0.0004021   0.0000609   0.0008374   0.0003529   0.1102081   0.2274851  -0.0764377  -0.0117612  -0.0189407   0.0081882   0.0007249   0.0020782  -0.0000510  -0.0002470   0.0004904  -0.0003451
Order 1, Length 30
   0.0152287   0.0274027  -0.0137939   0.0449573   0.0721173  -0.0766845  -0.0102826  -0.0143232   0.0041539  -0.0005078  -0.0000722   0.0010274  -0.0000446  -0.0003567  -0.0061923   0.0003092  -0.0004998   0.0015010  -0.0417144  -0.0764377   0.0865219  -0.0056983  -0.0081888   0.0033711  -0.0030031   0.0001363  -0.0000604   0.0007552   0.0002229   0.0001557
Order 1, Length 30
   0.0011076   0.0003535   0.0008226  -0.1039554   0.0935363   0.0434320  -0.0230943   0.0285612   0.0035217   0.0002380  -0.0000907   0.0003009  -0.0002746   0.0002783  -0.0000692   0.0008809   0.0001314  -0.0003930   0.0085377  -0.0117612  -0.0056983   0.1214473  -0.1102096  -0.0417148   0.0007395   0.0000609   0.0006590  -0.0056279  -0.0008581  -0.0008609
Order 1, Length 30
  -0.0012852   0.0016943   0.0009575   0.1006517  -0.2175894  -0.0707167   0.0002607   0.0024312   0.0017957  -0.0001712  -0.0000550  -0.0007327  -0.0000609   0.0008359  -0.0003527  -0.0004687   0.0015666   0.0004015   0.0117603  -0.0189407  -0.0081888  -0.1102096   0.2274872   0.0764399   0.0002504   0.0004915   0.0003457  -0.0007248   0.0020741   0.0000488
Order 1, Length 30
   0.0152261  -0.0274043  -0.0137936   0.0449596  -0.0721165  -0.0766852  -0.0102836   0.0143257   0.0041539  -0.0005072   0.0000739   0.0010274   0.0003080   0.0004984   0.0015016  -0.0000435   0.0003555  -0.0061926  -0.0056984   0.0081882   0.0033711  -0.0417148   0.0764399   0.0865224   0.0007573  -0.0002214   0.0001547  -0.0030027  -0.0001403  -0.0000628
Order 1, Length 30
   0.0015863   0.0001395   0.0006273  -0.0190658  -0.0296132   0.0109780  -0.1591736  -0.1582535   0.0395468   0.0002537   0.0003138   0.0002881   0.0003024   0.0002717  -0.0010371  -0.0000024   0.0000808  -0.0001354  -0.0056275   0.0007249  -0.0030031   0.0007395   0.0002504   0.0007573   0.1694008   0.1680282  -0.0437800   0.0115861   0.0180535  -0.0042480
Order 1, Length 30
   0.0017644   0.0004127  -0.0002550   0.0003778   0.0029142   0.0018547  -0.1528285  -0.3044246   0.0698437   0.0003571   0.0001592   0.0002866  -0.0004277  -0.0001375  -0.0005148  -0.0001361  -0.0002517  -0.0001167   0.0008608   0.0020782   0.0001363   0.0000609   0.0004915  -0.0002214   0.1680282   0.3214406  -0.0811996  -0.0180562  -0.0226917   0.0101772
Order 1, Length 30
  -0.0003432  -0.0019871   0.0018198  -0.0120945  -0.0141743  -0.0006540   0.0600956   0.1059555  -0.0362029   0.0004106   0.0005625  -0.0000927   0.0001547   0.0008050  -0.0003120   0.0000032  -0.0000746  -0.0001712  -0.0008610  -0.0000510  -0.0000604   0.0006590   0.0003457   0.0001547  -0.0437800  -0.0811996   0.0368312  -0.0042441  -0.0101782  -0.0013082
Order 1, Length 30
   0.0015895  -0.0001447   0.0006313  -0.0190684   0.0296117   0.0109844  -0.1591729   0.1582535   0.0395419   0.0002522  -0.0003146   0.0002873  -0.0000022  -0.0000779  -0.0001390   0.0003022  -0.0002714  -0.0010373   0.0007417  -0.0002470   0.0007552  -0.0056279  -0.0007248  -0.0030027   0.0115861  -0.0180562  -0.0042441   0.1693980  -0.1680238  -0.0437792
Order 1, Length 30
  -0.0017646   0.0004218   0.0002535  -0.0003812   0.0029148  -0.0018568   0.1528303  -0.3044270  -0.0698424  -0.0003567   0.0001604  -0.0002870   0.0001362  -0.0002549   0.0001187   0.0004283  -0.0001385   0.0005138  -0.0000621   0.0004904   0.0002229  -0.0008581   0.0020741  -0.0001403   0.0180535  -0.0226917  -0.0101782  -0.1680238   0.3214416   0.0811992
Order 1, Length 30
  -0.0003427   0.0019915   0.0018195  -0.0120960   0.0141736  -0.0006525   0.0600972  -0.1059529  -0.0362055   0.0004112  -0.0005626  -0.0000925   0.0000041   0.0000743  -0.0001715   0.0001551  -0.0008051  -0.0003125   0.0006579  -0.0003451   0.0001557  -0.0008609   0.0000488  -0.0000628  -0.0042480   0.0101772  -0.0013082  -0.0437792   0.0811992   0.0368283


 # Finishing finite difference calculation for IDERIV #
 ######################################################
 ######################################################
 Requested basis set is G3large
 There are 72 shells and 196 basis functions
 **********************************************************************
 **                                                                  **
 **                       VIBRATIONAL ANALYSIS                       **
 **                       --------------------                       **
 **                                                                  **
 **        VIBRATIONAL FREQUENCIES (CM**-1) AND NORMAL MODES         **
 **     FORCE CONSTANTS (mDYN/ANGSTROM) AND REDUCED MASSES (AMU)     **
 **                  INFRARED INTENSITIES (KM/MOL)                   **
 **                                                                  **
 **********************************************************************
 

 Mode:                 1                      2                      3
 Frequency:       235.41                 272.56                 399.48
 Force Cnst:      0.0338                 0.0495                 0.1821
 Red. Mass:       1.0345                 1.1313                 1.9367
 IR Active:          YES                    YES                    YES
 IR Intens:       43.542                  4.505                 12.272
 Raman Active:       YES                    YES                    YES
               X      Y      Z        X      Y      Z        X      Y      Z
 C          0.000  0.029  0.000    0.000  0.013  0.000   -0.121  0.000 -0.119
 C          0.000 -0.021  0.000    0.000 -0.079  0.000    0.133  0.000 -0.090
 N          0.000  0.031  0.000    0.000  0.064  0.000    0.019  0.000  0.158
 H          0.000 -0.144  0.000    0.000  0.577  0.000   -0.264  0.000  0.243
 H         -0.179  0.152  0.040    0.447 -0.205  0.090   -0.280  0.009 -0.304
 H          0.179  0.152 -0.040   -0.447 -0.205 -0.090   -0.280 -0.009 -0.304
 H          0.070 -0.066 -0.009    0.103 -0.156 -0.034    0.097  0.013 -0.110
 H         -0.070 -0.066  0.009   -0.103 -0.156  0.034    0.097 -0.013 -0.110
 H          0.219 -0.273 -0.547   -0.015  0.014 -0.205    0.106  0.021  0.438
 H         -0.219 -0.273  0.548    0.015  0.014  0.205    0.106 -0.021  0.438
 TransDip   0.000 -0.211  0.000    0.000 -0.068  0.000    0.068  0.000  0.089

 Mode:                 4                      5                      6
 Frequency:       757.30                 771.86                 910.05
 Force Cnst:      0.4597                 0.3826                 0.9140
 Red. Mass:       1.3605                 1.0899                 1.8730
 IR Active:          YES                    YES                    YES
 IR Intens:      203.076                  2.521                  0.187
 Raman Active:       YES                    YES                    YES
               X      Y      Z        X      Y      Z        X      Y      Z
 C         -0.011  0.000  0.044    0.000 -0.032  0.000    0.119  0.000  0.166
 C         -0.005  0.000  0.006    0.000 -0.080  0.000    0.082  0.000 -0.086
 N         -0.020  0.000 -0.158    0.000  0.010  0.000   -0.116  0.000 -0.076
 H          0.048  0.000 -0.105    0.000  0.166  0.000   -0.140  0.000  0.828
 H          0.082 -0.012  0.146   -0.056  0.171  0.376   -0.184  0.056 -0.092
 H          0.082  0.011  0.146    0.056  0.171 -0.376   -0.184 -0.056 -0.092
 H          0.022  0.004  0.062   -0.308  0.259  0.331   -0.020  0.001 -0.225
 H          0.022 -0.004  0.062    0.308  0.259 -0.331   -0.020 -0.001 -0.225
 H          0.104  0.120  0.649   -0.148  0.080 -0.092   -0.111  0.002 -0.043
 H          0.104 -0.120  0.649    0.149  0.080  0.092   -0.111 -0.002 -0.043
 TransDip   0.145  0.000  0.433    0.000  0.051  0.000    0.007  0.000  0.012

 Mode:                 7                      8                      9
 Frequency:       983.25                1104.41                1170.58
 Force Cnst:      0.6291                 1.6653                 2.0384
 Red. Mass:       1.1044                 2.3173                 2.5248
 IR Active:          YES                    YES                    YES
 IR Intens:        0.722                 16.148                 20.640
 Raman Active:       YES                    YES                    YES
               X      Y      Z        X      Y      Z        X      Y      Z
 C          0.000 -0.075  0.000    0.140  0.000 -0.160   -0.076  0.000 -0.026
 C          0.000  0.048  0.000   -0.036  0.000  0.253    0.268  0.000  0.044
 N          0.000  0.027  0.000   -0.040  0.000 -0.073   -0.219  0.000 -0.029
 H          0.000  0.165  0.000   -0.035  0.000  0.249    0.047  0.000 -0.316
 H         -0.033  0.095  0.331   -0.195  0.038 -0.523    0.150 -0.066  0.098
 H          0.033  0.095 -0.331   -0.195 -0.038 -0.523    0.150  0.066  0.098
 H          0.310 -0.074  0.172   -0.038  0.004  0.281    0.423  0.017  0.306
 H         -0.310 -0.074 -0.172   -0.038 -0.004  0.281    0.423 -0.017  0.306
 H          0.370 -0.135  0.276   -0.089  0.055  0.073   -0.223 -0.031 -0.154
 H         -0.370 -0.135 -0.276   -0.089 -0.055  0.073   -0.223  0.031 -0.154
 TransDip   0.000  0.027  0.000    0.013  0.000  0.128    0.137  0.000  0.049

 Mode:                10                     11                     12
 Frequency:      1247.34                1353.80                1361.18
 Force Cnst:      1.3476                 1.2423                 1.4404
 Red. Mass:       1.4701                 1.1505                 1.3195
 IR Active:          YES                    YES                    YES
 IR Intens:        0.022                  0.180                  3.629
 Raman Active:       YES                    YES                    YES
               X      Y      Z        X      Y      Z        X      Y      Z
 C          0.000 -0.127  0.000    0.000  0.024  0.000    0.049  0.000 -0.071
 C          0.000  0.150  0.000    0.000  0.063  0.000   -0.092  0.000 -0.109
 N          0.000 -0.053  0.000    0.000 -0.085  0.000    0.001  0.000  0.022
 H          0.000  0.245  0.000    0.000  0.034  0.000   -0.120  0.000  0.379
 H         -0.110  0.087  0.320   -0.016 -0.002 -0.092   -0.032  0.174  0.250
 H          0.110  0.087 -0.320    0.016 -0.002  0.092   -0.032 -0.174  0.250
 H          0.039 -0.063 -0.447    0.424 -0.016  0.421    0.265  0.029  0.484
 H         -0.039 -0.063  0.447   -0.424 -0.016 -0.420    0.265 -0.029  0.485
 H         -0.286  0.085 -0.182   -0.312  0.074 -0.159    0.073 -0.046 -0.001
 H          0.286  0.085  0.182    0.312  0.074  0.160    0.072  0.045 -0.001
 TransDip   0.000  0.005  0.000    0.000  0.014  0.000   -0.060  0.000 -0.008

 Mode:                13                     14                     15
 Frequency:      1389.00                1452.92                1454.92
 Force Cnst:      1.6131                 1.3015                 1.3014
 Red. Mass:       1.4191                 1.0464                 1.0435
 IR Active:          YES                    YES                    YES
 IR Intens:       24.975                  0.587                 12.633
 Raman Active:       YES                    YES                    YES
               X      Y      Z        X      Y      Z        X      Y      Z
 C          0.031  0.000  0.153   -0.038  0.000  0.010    0.000 -0.047  0.000
 C         -0.049  0.000 -0.103    0.014  0.000 -0.041    0.000 -0.030  0.000
 N         -0.001  0.000  0.012    0.008  0.000  0.002    0.000  0.010  0.000
 H          0.254  0.000 -0.446   -0.120  0.000  0.257    0.000  0.702  0.000
 H         -0.225 -0.103 -0.432    0.384 -0.315 -0.173   -0.374  0.042 -0.324
 H         -0.225  0.103 -0.432    0.384  0.315 -0.173    0.374  0.042  0.324
 H          0.159  0.032  0.268   -0.249  0.265  0.222   -0.038  0.002  0.027
 H          0.158 -0.032  0.268   -0.249 -0.265  0.222    0.038  0.002 -0.027
 H          0.051 -0.031  0.010    0.009 -0.002 -0.005    0.043 -0.010  0.031
 H          0.052  0.031  0.010    0.009  0.002 -0.005   -0.043 -0.010 -0.031
 TransDip  -0.041  0.000 -0.155    0.021  0.000  0.013    0.000  0.114  0.000

 Mode:                16                     17                     18
 Frequency:      1471.93                1616.42                3012.56
 Force Cnst:      1.4005                 1.7017                 5.5445
 Red. Mass:       1.0971                 1.1054                 1.0369
 IR Active:          YES                    YES                    YES
 IR Intens:        7.487                 37.900                 11.939
 Raman Active:       YES                    YES                    YES
               X      Y      Z        X      Y      Z        X      Y      Z
 C         -0.025  0.000  0.009    0.000  0.000 -0.004    0.005  0.000 -0.051
 C         -0.084  0.000  0.019    0.002  0.000  0.034    0.000  0.000  0.003
 N          0.003  0.000  0.004   -0.080  0.000 -0.011    0.000  0.000  0.000
 H         -0.093  0.000  0.198   -0.004  0.000  0.006    0.503  0.000  0.186
 H          0.273 -0.236 -0.151    0.012 -0.011 -0.014   -0.279 -0.486  0.202
 H          0.273  0.236 -0.151    0.012  0.011 -0.014   -0.279  0.486  0.202
 H          0.403 -0.365 -0.152   -0.035 -0.011 -0.046    0.004  0.006 -0.005
 H          0.403  0.365 -0.152   -0.035  0.011 -0.046    0.004 -0.006 -0.005
 H         -0.004  0.008  0.013    0.569 -0.408 -0.043   -0.002 -0.001 -0.001
 H         -0.004 -0.008  0.013    0.569  0.408 -0.043   -0.002  0.001 -0.001
 TransDip   0.078  0.000 -0.040    0.194  0.000 -0.034    0.009  0.000 -0.110

 Mode:                19                     20                     21
 Frequency:      3024.30                3059.89                3094.08
 Force Cnst:      5.7292                 6.0980                 6.2319
 Red. Mass:       1.0631                 1.1054                 1.1049
 IR Active:          YES                    YES                    YES
 IR Intens:       24.264                  5.064                 27.001
 Raman Active:       YES                    YES                    YES
               X      Y      Z        X      Y      Z        X      Y      Z
 C          0.009  0.000  0.000    0.000  0.034  0.000    0.000 -0.087  0.000
 C         -0.058  0.000  0.040    0.000 -0.088  0.000    0.000 -0.035  0.000
 N          0.001  0.000 -0.001    0.000  0.002  0.000    0.000  0.001  0.000
 H         -0.079  0.000 -0.024    0.000  0.007  0.000   -0.001 -0.014  0.000
 H         -0.010 -0.022  0.008   -0.125 -0.209  0.090    0.313  0.525 -0.233
 H         -0.010  0.022  0.008    0.125 -0.209 -0.090   -0.313  0.526  0.234
 H          0.341  0.568 -0.234    0.326  0.520 -0.225    0.127  0.206 -0.091
 H          0.341 -0.568 -0.234   -0.326  0.521  0.225   -0.127  0.206  0.091
 H         -0.006 -0.008  0.004   -0.004 -0.011  0.006    0.001 -0.003  0.004
 H         -0.006  0.008  0.004    0.004 -0.011 -0.006   -0.001 -0.003 -0.004
 TransDip  -0.143  0.000  0.066    0.000 -0.072  0.000    0.000 -0.166  0.000

 Mode:                22                     23                     24
 Frequency:      3097.32                3509.62                3591.40
 Force Cnst:      6.2340                 7.6117                 8.3233
 Red. Mass:       1.1029                 1.0488                 1.0953
 IR Active:          YES                    YES                    YES
 IR Intens:       21.085                  3.142                 11.875
 Raman Active:       YES                    YES                    YES
               X      Y      Z        X      Y      Z        X      Y      Z
 C         -0.093  0.000 -0.003    0.000  0.000  0.000    0.000  0.000  0.000
 C         -0.007  0.000  0.004    0.000  0.000 -0.003    0.000 -0.002  0.000
 N          0.001  0.000  0.000    0.053  0.000 -0.019    0.000 -0.082  0.000
 H          0.780  0.000  0.303   -0.003  0.000 -0.002    0.000  0.000  0.000
 H          0.164  0.312 -0.134    0.001  0.001  0.002   -0.001 -0.001 -0.001
 H          0.163 -0.310 -0.133    0.001 -0.001  0.002    0.001 -0.001  0.001
 H          0.032  0.052 -0.023   -0.004 -0.009  0.003    0.006  0.011 -0.003
 H          0.031 -0.052 -0.023   -0.004  0.009  0.003   -0.006  0.011  0.003
 H          0.000 -0.002  0.003   -0.362 -0.589  0.145    0.377  0.571 -0.167
 H          0.000  0.002  0.003   -0.362  0.589  0.145   -0.377  0.571  0.167
 TransDip  -0.146  0.000 -0.013   -0.053  0.000 -0.021    0.000  0.110  0.000

 STANDARD THERMODYNAMIC QUANTITIES AT   298.18 K  AND     1.00 ATM

   This Molecule has  0 Imaginary Frequencies
   Zero point vibrational energy:       57.671 kcal/mol

   Atom    1 Element C  Has Mass   12.00000
   Atom    2 Element C  Has Mass   12.00000
   Atom    3 Element N  Has Mass   14.00307
   Atom    4 Element H  Has Mass    1.00783
   Atom    5 Element H  Has Mass    1.00783
   Atom    6 Element H  Has Mass    1.00783
   Atom    7 Element H  Has Mass    1.00783
   Atom    8 Element H  Has Mass    1.00783
   Atom    9 Element H  Has Mass    1.00783
   Atom   10 Element H  Has Mass    1.00783
   Molecular Mass:    45.057880 amu
   Principal axes and moments of inertia in atomic units:
                             1           2           3
    Eigenvalues --       56.23682   202.39480   226.40990
          X               0.54586     0.83787     0.00000
          Y               0.00000     0.00000     1.00000
          Z               0.83787    -0.54586     0.00000
   Rotational Symmetry Number is   1
   The Molecule is an Asymmetric Top
   Translational Enthalpy:        0.889 kcal/mol
   Rotational Enthalpy:           0.889 kcal/mol
   Vibrational Enthalpy:         58.704 kcal/mol
   gas constant (RT):             0.593 kcal/mol
   Translational Entropy:        37.342  cal/mol.K
   Rotational Entropy:           22.471  cal/mol.K
   Vibrational Entropy:           5.346  cal/mol.K

   Total Enthalpy:               61.074 kcal/mol
   Total Entropy:                65.159  cal/mol.K
 Total job time:  9541.80s(wall), 9505.82s(cpu) 
 Sun Apr 24 03:38:35 2011

        *************************************************************
        *                                                           *
        *  Thank you very much for using Q-Chem.  Have a nice day.  *
        *                                                           *
        *************************************************************


0 sent ACK to 0 
now end server 0 ... 
