Process 0 of 1 is on cl250.stfx.acenet.ca - thread support 1
initial socket setup ...start
initial socket setup ...done 
now start server 0 ... 

cmd = /usr/bin/ssh clhead /usr/local/qchem/bin/get_hostid 2099756051 > /scratch/tmp/4506668.1.long.q/qchem17636/lic.dat
                  Welcome to Q-Chem
     A Quantum Leap Into The Future Of Chemistry

 Y. Shao, L. Fusti-Molnar, Y. Jung, J. Kussmann, C. Ochsenfeld,
 S. T. Brown, A. T. B. Gilbert, L. V. Slipchenko,S. V. Levchenko,
 D. P. O'Neill, R. A. DiStasio Jr., R. C. Lochan, T. Wang,
 G. J. O. Beran, N. A. Besley, J. M. Herbert, C. Y. Lin,
 T. Van Voorhis, S. H. Chien, A. Sodt, R. P. Steele, 
 V. A. Rassolov, P. E. Maslen, P. P. Korambath, R. D. Adamson,
 B. Austin, J. Baker, E. F. C. Byrd, H. Dachsel, R. J. Doerksen,
 A. Dreuw, B. D. Dunietz, A. D. Dutoi, T. R. Furlani,
 S. R. Gwaltney, A. Heyden, S. Hirata, C.-P. Hsu, G. Kedziora,
 R. Z. Khaliullin, P. Klunzinger, A. M. Lee, M. S. Lee, W. Liang,
 I. Lotan, N. Nair, B. Peters, E. I. Proynov, P. A. Pieniazek, 
 Y. M. Rhee, J. Ritchie, E. Rosta, C. D. Sherrill, 
 A. C. Simmonett, J. E. Subotnik, H. L. Woodcock III,
 W. Zhang, A. T. Bell, A. K. Chakraborty, D. M. Chipman,
 F. J. Keil, A. Warshel, W. J. Hehre, H. F. Schaefer III,
 J. Kong, A. I. Krylov, P. M. W. Gill, M. Head-Gordon,
 Q-Chem, Version 3.1, Q-Chem, Inc., Pittsburgh, PA (2007).

 Additional authors for Version 3.1: 
 Z. Gan, Y. Zhao, N. E. Schultz, D. Truhlar, E. Epifanovsky and M. Oana.

 Additional authors for Version 3.2: 
 R. Baer, B. R. Brooks, D. Casanova, J.-D. Chai, C.-L. Cheng, 
 C. Cramer, D. Crittenden, A. Ghysels, G. Hawkins, E. G. Hohenstein, 
 C. Kelley, W. Kurlancheek, D. Liotard, E. Livshits, P. Manohar, 
 A. Marenich, D. Neuhauser, R. Olson, M. A. Rohrdanz, K. S. Thanthiriwatte, 
 A. J. W. Thom, V. Vanovschi, C. F. Williams, Q. Wu and Z.-Q. You. 


 Intel X86 Linux Version

 Q-chem begins on Sun Apr 24 06:10:13 2011  

 Parallel job on  1  processors
Processing $rem in /usr/local/qchem/config/preferences.

theFileMan(): MAXOPENFILES=974 MAX_SUB_FILE_NUM=16
Maximum size of a physical file is 2.0 GB, maximum size of a tmp-file is 32.0 GB


--------------------------------------------------------------
User input:
--------------------------------------------------------------

$molecule
0,1
C
X,1,1.
C,1,R1,2,THETA1
C,1,R1a,2,theta1a,3,180.,0
H,1,R2,2,THETA2,3,90.,0
H,1,R2,2,THETA2,3,-90.,0
H,3,R3,1,THETA3,2,180.,0
Cl,4,R5,1,theta6,2,180.,0
X,3,1.,1,THETA4,2,0.,0
H,3,R4,9,THETA5,1,90.,0
H,3,R4,9,THETA5,1,-90.,0
X,4,1.,1,THETA4a,2,0.,0
H,4,R4a,12,THETA5a,1,90.,0
H,4,R4a,12,THETA5a,1,-90.,0

R1a=1.52309438
R1=1.53450477
R2=1.09616
R3=1.09513102
R4=1.09654921
R4a=1.09254388
THETA1=54.73579058
THETA2=126.58788234
theta1a=56.51992893
THETA3=110.60770195
THETA4=128.40127449
THETA5=53.89018205
THETA4a=129.44505213
THETA5a=54.39150454
R5=1.82004582
theta6=111.91183995

$end

$comment
neutral
$end

$xc_functional
   X HF 1.0
   X BNL 1.0
   C LYP 1.0
$end

$rem
SYMMETRY_DECOMPOSITION	0
exchange 		general
BASIS                   g3large
omega			390 
JOBTYPE                 opt
separate_jk		true
mem_static              760
max_scf_cycles          200
scf_final_print         1
sym_ignore              true
$end


--------------------------------------------------------------
 Writing REM_CC_EA           11
 ----------------------------------------------------
       Standard Nuclear Orientation (Angstroms)
    I     Atom         X            Y            Z
 ----------------------------------------------------
    1      C       0.000000     0.000000     0.000000
    2      C       1.252921     0.000000     0.885943
    3      C      -1.270379     0.000000     0.840210
    4      H       0.000000    -0.880155    -0.653372
    5      H       0.000000     0.880155    -0.653372
    6      H       2.159454     0.000000     0.271525
    7      Cl     -2.768379     0.000000    -0.193503
    8      H       1.288286     0.885890     1.531209
    9      H       1.288286    -0.885890     1.531209
   10      H      -1.336486    -0.888254     1.472893
   11      H      -1.336486     0.888254     1.472893
 ----------------------------------------------------
 Nuclear Repulsion Energy =   157.4323713266 hartrees
 There are       21 alpha and       21 beta electrons
 Requested basis set is G3large
 There are 91 shells and 262 basis functions

Total QAlloc Memory Limit   2000 MB
Mega-Array Size       743 MB
MEM_STATIC part       760 MB
 A cutoff of  1.0D-11 yielded   3873 shell pairs
 There are  31904 function pairs ( 39822 Cartesian)
Evaluating contribution to one-electron hamiltonian from nuclear
 Smallest overlap matrix eigenvalue = 2.76E-05
 Multipole matrices computed through 2nd order

  Scale SEOQF with 1.000000e-01/1.000000e-01/1.000000e-01

 Standard Electronic Orientation quadrupole field applied
 Nucleus-field energy     =     0.0000000040 hartrees
 Guess from superposition of atomic densities
 Warning:  Energy on first SCF cycle will be non-variational
 A restricted hybrid HF-DFT SCF calculation will be
 performed using Pulay DIIS extrapolation
 Exchange:     1.0000 Hartree-Fock + 1.0000 BNL
 Correlation:  1.0000 LYP
 Using SG-1 standard quadrature grid
 SCF converges when DIIS error is below 1.0E-08
 ---------------------------------------
  Cycle       Energy         DIIS Error
 ---------------------------------------
    1    -576.2748563956      2.55E-02
    2    -575.3905713546      2.03E-03
    3    -575.4210854708      1.25E-03
    4    -575.4324128849      2.46E-04
    5    -575.4331575624      7.64E-05
    6    -575.4332289076      2.53E-05
    7    -575.4332375455      8.98E-06
    8    -575.4332389110      3.57E-06
    9    -575.4332389081      1.01E-06
   10    -575.4332389562      3.06E-07
   11    -575.4332389537      9.00E-08
   12    -575.4332389549      2.83E-08
   13    -575.4332389537      9.81E-09 Convergence criterion met
 ---------------------------------------
 One-Electron    Energy = -1105.7113633035
 Total Coulomb   Energy =   416.4729997553
 Alpha Exchange  Energy =    -4.1366462551
 Beta  Exchange  Energy =    -4.1366462551
 DFT   Exchange  Energy =   -33.8534265088
 DFT Correlation Energy =    -1.5005277171
 Nuclear Repu.   Energy =   157.4323713306
 Nuclear Attr.   Energy = -1679.5651796509
 Kinetic         Energy =   573.8538163475
 SCF time:  CPU 409.16 s  wall 417.19 s
 Final Alpha MO Eigenvalues
            1           2           3           4           5           6
    1-100.4699246 -10.0283772  -9.9796510  -9.9687333  -9.3227447  -7.1768453
            7           8           9          10          11          12
    1  -7.1662899  -7.1661230  -0.9903153  -0.9113022  -0.8013518  -0.7277938
           13          14          15          16          17          18
    1  -0.6130605  -0.5654492  -0.5466891  -0.5314107  -0.4783908  -0.4714518
           19          20          21          22          23          24
    1  -0.4568119  -0.4067406  -0.4061013   0.0285906   0.0474207   0.0503500
           25          26
    1   0.0526808   0.0793047
 Analysis of SCF Wavefunction
 
 --------------------------------------------------------------
                    Orbital Energies (a.u.)
 --------------------------------------------------------------
 
 Alpha MOs
 -- Occupied --
******* -10.028  -9.980  -9.969  -9.323  -7.177  -7.166  -7.166
 -0.990  -0.911  -0.801  -0.728  -0.613  -0.565  -0.547  -0.531
 -0.478  -0.471  -0.457  -0.407  -0.406
 -- Virtual --
  0.029   0.047   0.050   0.053   0.079   0.080   0.082   0.089
  0.111   0.125   0.142   0.153   0.156   0.157   0.161   0.172
  0.179   0.182   0.188   0.202   0.206   0.211   0.218   0.241
  0.258   0.259   0.267   0.283   0.304   0.334   0.348   0.359
  0.381   0.395   0.432   0.450   0.455   0.483   0.507   0.520
  0.529   0.553   0.558   0.587   0.587   0.619   0.627   0.643
  0.649   0.652   0.655   0.670   0.675   0.715   0.730   0.755
  0.772   0.800   0.802   0.840   0.860   0.897   0.913   0.932
  0.979   0.985   1.058   1.067   1.125   1.140   1.155   1.174
  1.189   1.192   1.199   1.220   1.226   1.245   1.258   1.264
  1.280   1.296   1.303   1.336   1.362   1.364   1.378   1.393
  1.429   1.468   1.484   1.488   1.512   1.527   1.543   1.548
  1.582   1.592   1.616   1.634   1.674   1.680   1.699   1.699
  1.727   1.760   1.794   1.807   1.863   2.304   2.314   2.445
  2.516   2.607   2.620   2.699   2.725   2.764   2.857   2.868
  2.896   2.901   2.951   2.956   3.021   3.048   3.138   3.150
  3.152   3.177   3.227   3.230   3.315   3.349   3.373   3.414
  3.435   3.442   3.448   3.472   3.516   3.567   3.636   3.650
  3.688   3.738   3.743   3.781   3.787   3.839   3.858   3.929
  3.932   3.999   4.051   4.071   4.076   4.104   4.146   4.189
  4.276   4.302   4.340   4.360   4.374   4.385   4.431   4.464
  4.467   4.481   4.502   4.514   4.541   4.559   4.615   4.645
  4.647   4.670   4.690   4.723   4.745   4.748   4.847   4.887
  5.021   5.132   5.145   5.265   5.291   5.371   5.501   5.577
  5.719   5.784   5.790   5.819   5.841   9.886  20.614  20.622
 20.859  24.192  24.362  24.469  27.155  27.201  27.248  27.293
 27.299  27.680  27.829  28.054  28.152  28.176  28.215  28.305
 28.453  28.526  36.893  36.893  36.899  36.901  36.905  36.908
 36.918  40.874  40.918  40.926  40.934  40.998  41.019  41.215
 41.235  41.260  41.265  41.292  41.330  41.339  41.342  41.390
216.359
 --------------------------------------------------------------
 
          Ground-State Mulliken Net Atomic Charges

     Atom                 Charge (a.u.)
  ----------------------------------------
      1 C                    -0.079861
      2 C                    -0.487397
      3 C                    -0.048758
      4 H                     0.135964
      5 H                     0.135964
      6 H                     0.136278
      7 Cl                   -0.310307
      8 H                     0.125457
      9 H                     0.125457
     10 H                     0.133602
     11 H                     0.133602
  ----------------------------------------
  Sum of atomic charges =     0.000000

 -----------------------------------------------------------------
                    Cartesian Multipole Moments
 -----------------------------------------------------------------
    Charge (ESU x 10^10)
                 0.0000
    Dipole Moment (Debye)
         X       2.0888      Y       0.0000      Z       1.0580
       Tot       2.3415
    Quadrupole Moments (Debye-Ang)
        XX     -40.6071     XY       0.0000     YY     -33.4255
        XZ      -1.4373     YZ       0.0000     ZZ     -32.9715
    Octapole Moments (Debye-Ang^2)
       XXX     121.7787    XXY       0.0000    XYY      34.8566
       YYY       0.0000    XXZ     -11.2338    XYZ       0.0000
       YYZ      -8.6039    XZZ      32.5463    YZZ       0.0000
       ZZZ     -29.5784
    Hexadecapole Moments (Debye-Ang^3)
      XXXX    -837.2410   XXXY       0.0000   XXYY    -146.9337
      XYYY       0.0000   YYYY     -60.2178   XXXZ     -15.3181
      XXYZ       0.0000   XYYZ      -9.7782   YYYZ       0.0000
      XXZZ    -152.5341   XYZZ       0.0000   YYZZ     -28.9268
      XZZZ     -26.5564   YZZZ       0.0000   ZZZZ    -137.3549
 -----------------------------------------------------------------
 Calculating analytic gradient of the SCF energy
 Gradient of AOints
            1           2           3           4           5           6
    1  -4.3102686  -4.1992327  -1.6924865  -0.4446000  -0.4446003  -3.0793456
    2   0.0000007  -0.0000008  -0.0000009   3.0803786  -3.0803786  -0.0000000
    3   0.7139181  -0.8606199  -3.2343896   2.5551218   2.5551216   1.6538151
            7           8           9          10          11
    1  15.2330406  -0.7251868  -0.7251861   0.1939339   0.1939321
    2   0.0000001  -2.6453473   2.6453474   3.1817715  -3.1817705
    3   6.7623786  -2.1572131  -2.1572130  -2.9154594  -2.9154602
 Gradient of XC Energy
            1           2           3           4           5           6
    1   0.0230861  -0.0262157   0.0068295   0.0011109   0.0011109   0.1271883
    2  -0.0000000   0.0000000   0.0000000  -0.1221998   0.1221998  -0.0000000
    3   0.0289311  -0.0174926  -0.0234226  -0.0919431  -0.0919431  -0.0859956
            7           8           9          10          11
    1  -0.1330386   0.0066223   0.0066223  -0.0066581  -0.0066581
    2  -0.0000000   0.1213980  -0.1213980  -0.1239257   0.1239257
    3  -0.0882187   0.0899271   0.0899271   0.0951152   0.0951152
 Gradient of SCF Energy
            1           2           3           4           5           6
    1   0.0009783   0.0111055   0.0047475   0.0004988   0.0004988  -0.0011782
    2   0.0000000   0.0000000   0.0000000   0.0015450  -0.0015450  -0.0000000
    3  -0.0142136   0.0073189   0.0186587   0.0010308   0.0010308   0.0007954
            7           8           9          10          11
    1  -0.0176317   0.0003262   0.0003262   0.0001643   0.0001643
    2  -0.0000000  -0.0014084   0.0014084   0.0022171  -0.0022172
    3  -0.0109236  -0.0008678  -0.0008678  -0.0009809  -0.0009809
 Max gradient component =       1.866E-02
 RMS gradient           =       6.049E-03
 Gradient time:  CPU 201.30 s  wall 202.09 s
 Geometry Optimization Parameters
   NAtoms,    NIC,     NZ,  NCons,   NDum,   NFix, NCnnct, MaxDiis
       11      68      14       0       0       0       0       0


** GEOMETRY OPTIMIZATION IN DELOCALIZED INTERNAL COORDINATES **
   Searching for a Minimum

   Optimization Cycle:   1

                       Coordinates (Angstroms)
     ATOM              X           Y           Z
    1  C           0.000000    0.000000    0.000000
    2  C           1.252921    0.000000    0.885943
    3  C          -1.270379    0.000000    0.840210
    4  H           0.000000   -0.880155   -0.653372
    5  H           0.000000    0.880155   -0.653372
    6  H           2.159454    0.000000    0.271525
    7  Cl         -2.768379    0.000000   -0.193503
    8  H           1.288286    0.885890    1.531209
    9  H           1.288286   -0.885890    1.531209
   10  H          -1.336486   -0.888254    1.472893
   11  H          -1.336486    0.888254    1.472893
   Point Group: c1    Number of degrees of freedom:  27


   Energy is   -575.433238954


 Attempting to Generate Delocalized Internal Coordinates

 22 Hessian modes will be used to form the next step
  Hessian Eigenvalues:
     0.006124    0.049862    0.055009    0.057649    0.081948    0.160000
     0.160000    0.160000    0.160000    0.160000    0.218843    0.222376
     0.245991    0.290113    0.300705    0.340666    0.340666    0.341104
     0.341104    0.342264    0.345203    0.345203

 Minimum Search - Taking Simple RFO Step
 Searching for Lamda that Minimizes Along All modes
 Value Taken    Lamda =  -0.00302778
 Step Taken.  Stepsize is  0.108259

                             Maximum     Tolerance    Cnvgd?
         Gradient           0.014997      0.000300      NO
         Displacement       0.064008      0.001200      NO
         Energy change     *********      0.000001      NO


 New Cartesian Coordinates Obtained by Inverse Iteration

 Displacement from previous Coordinates is:  0.179539
 Writing REM_CC_EA           11
 ----------------------------------------------------
       Standard Nuclear Orientation (Angstroms)
    I     Atom         X            Y            Z
 ----------------------------------------------------
    1      C      -0.003511     0.000000     0.003107
    2      C       1.227970     0.000000     0.880841
    3      C      -1.248682     0.000000     0.838227
    4      H      -0.008738    -0.883250    -0.650857
    5      H      -0.008737     0.883251    -0.650857
    6      H       2.139933     0.000000     0.270592
    7      Cl     -2.703779    -0.000001    -0.180087
    8      H       1.256889     0.888263     1.527460
    9      H       1.256889    -0.888263     1.527459
   10      H      -1.315509    -0.893376     1.469875
   11      H      -1.315509     0.893376     1.469875
 ----------------------------------------------------
 Nuclear Repulsion Energy =   160.0054912884 hartrees
 There are       21 alpha and       21 beta electrons
 Applying Cartesian multipole field
    Component          Value
    ---------          -----
     (2,0,0)        1.00000E-11
     (0,2,0)        2.00000E-11
     (0,0,2)       -3.00000E-11
 Nucleus-field energy     =     0.0000000038 hartrees
 Requested basis set is G3large
 There are 91 shells and 262 basis functions
 A cutoff of  1.0D-11 yielded   3891 shell pairs
 There are  32053 function pairs ( 40004 Cartesian)
Evaluating contribution to one-electron hamiltonian from nuclear
 Smallest overlap matrix eigenvalue = 2.40E-05
 Multipole matrices computed through 2nd order
 Guess MOs from SCF MO coefficient file
Reading MOs from coefficient file
Reading MOs from coefficient file
 A restricted hybrid HF-DFT SCF calculation will be
 performed using Pulay DIIS extrapolation
 Exchange:     1.0000 Hartree-Fock + 1.0000 BNL
 Correlation:  1.0000 LYP
 Using SG-1 standard quadrature grid
 SCF converges when DIIS error is below 1.0E-08
 ---------------------------------------
  Cycle       Energy         DIIS Error
 ---------------------------------------
    1    -575.4501941914      7.91E-04
    2    -575.4347017938      9.98E-05
    3    -575.4347715208      5.55E-05
    4    -575.4347880640      9.83E-06
    5    -575.4347891221      3.96E-06
    6    -575.4347894057      1.35E-06
    7    -575.4347894243      4.24E-07
    8    -575.4347894641      1.52E-07
    9    -575.4347894617      4.68E-08
   10    -575.4347894687      1.49E-08
   11    -575.4347894663      3.30E-09 Convergence criterion met
 ---------------------------------------
 One-Electron    Energy = -1110.8286439522
 Total Coulomb   Energy =   419.0481210170
 Alpha Exchange  Energy =    -4.1385362943
 Beta  Exchange  Energy =    -4.1385362943
 DFT   Exchange  Energy =   -33.8796245468
 DFT Correlation Energy =    -1.5030606879
 Nuclear Repu.   Energy =   160.0054912922
 Nuclear Attr.   Energy = -1684.8059939831
 Kinetic         Energy =   573.9773500309
 SCF time:  CPU 355.53 s  wall 363.12 s
 Final Alpha MO Eigenvalues
            1           2           3           4           5           6
    1-100.4691237 -10.0233761  -9.9753761  -9.9665395  -9.3227246  -7.1766455
            7           8           9          10          11          12
    1  -7.1662215  -7.1660309  -1.0010797  -0.9150040  -0.7986264  -0.7260967
           13          14          15          16          17          18
    1  -0.6176226  -0.5696213  -0.5514971  -0.5316035  -0.4784154  -0.4729795
           19          20          21          22          23          24
    1  -0.4539506  -0.4055387  -0.4045083   0.0292191   0.0474584   0.0501107
           25          26
    1   0.0530516   0.0795087
 Analysis of SCF Wavefunction
 
 --------------------------------------------------------------
                    Orbital Energies (a.u.)
 --------------------------------------------------------------
 
 Alpha MOs
 -- Occupied --
******* -10.023  -9.975  -9.967  -9.323  -7.177  -7.166  -7.166
 -1.001  -0.915  -0.799  -0.726  -0.618  -0.570  -0.551  -0.532
 -0.478  -0.473  -0.454  -0.406  -0.405
 -- Virtual --
  0.029   0.047   0.050   0.053   0.080   0.080   0.085   0.090
  0.111   0.127   0.146   0.153   0.157   0.158   0.161   0.173
  0.179   0.181   0.191   0.203   0.209   0.211   0.220   0.240
  0.257   0.259   0.270   0.285   0.306   0.338   0.353   0.360
  0.381   0.394   0.435   0.453   0.457   0.487   0.508   0.523
  0.527   0.553   0.559   0.585   0.591   0.618   0.626   0.649
  0.650   0.654   0.664   0.674   0.681   0.720   0.731   0.755
  0.777   0.804   0.805   0.846   0.863   0.900   0.924   0.936
  0.987   0.987   1.064   1.073   1.121   1.140   1.165   1.172
  1.191   1.191   1.198   1.220   1.228   1.248   1.261   1.268
  1.284   1.303   1.315   1.345   1.371   1.378   1.391   1.399
  1.438   1.471   1.492   1.493   1.518   1.535   1.548   1.561
  1.587   1.592   1.619   1.640   1.663   1.676   1.701   1.708
  1.726   1.769   1.804   1.829   1.889   2.306   2.321   2.465
  2.531   2.619   2.632   2.717   2.746   2.777   2.864   2.886
  2.907   2.911   2.960   2.966   3.038   3.048   3.144   3.150
  3.172   3.188   3.228   3.238   3.328   3.357   3.379   3.428
  3.442   3.449   3.452   3.470   3.514   3.569   3.641   3.656
  3.687   3.754   3.758   3.782   3.799   3.836   3.866   3.937
  3.950   4.019   4.070   4.080   4.086   4.118   4.171   4.209
  4.281   4.308   4.345   4.363   4.380   4.388   4.443   4.470
  4.471   4.483   4.511   4.528   4.543   4.570   4.629   4.656
  4.670   4.693   4.714   4.745   4.763   4.763   4.866   4.907
  5.035   5.137   5.150   5.295   5.326   5.377   5.536   5.607
  5.716   5.779   5.788   5.835   5.886   9.910  20.621  20.629
 20.868  24.193  24.379  24.524  27.157  27.209  27.249  27.303
 27.307  27.733  27.879  28.122  28.165  28.183  28.227  28.307
 28.449  28.523  36.893  36.893  36.900  36.902  36.907  36.909
 36.922  40.880  40.922  40.930  40.939  41.005  41.028  41.220
 41.237  41.263  41.269  41.296  41.341  41.342  41.344  41.418
216.383
 --------------------------------------------------------------
 
          Ground-State Mulliken Net Atomic Charges

     Atom                 Charge (a.u.)
  ----------------------------------------
      1 C                    -0.074206
      2 C                    -0.486188
      3 C                    -0.054690
      4 H                     0.135501
      5 H                     0.135501
      6 H                     0.134874
      7 Cl                   -0.299696
      8 H                     0.123391
      9 H                     0.123391
     10 H                     0.131062
     11 H                     0.131062
  ----------------------------------------
  Sum of atomic charges =     0.000000

 -----------------------------------------------------------------
                    Cartesian Multipole Moments
 -----------------------------------------------------------------
    Charge (ESU x 10^10)
                 0.0000
    Dipole Moment (Debye)
         X       1.9602      Y       0.0000      Z       1.0093
       Tot       2.2048
    Quadrupole Moments (Debye-Ang)
        XX     -40.2767     XY       0.0000     YY     -33.3367
        XZ      -1.4113     YZ       0.0000     ZZ     -33.0417
    Octapole Moments (Debye-Ang^2)
       XXX     117.7532    XXY       0.0000    XYY      33.8896
       YYY       0.0000    XXZ     -11.5390    XYZ       0.0000
       YYZ      -8.7500    XZZ      31.6678    YZZ       0.0000
       ZZZ     -30.2628
    Hexadecapole Moments (Debye-Ang^3)
      XXXX    -800.0819   XXXY      -0.0001   XXYY    -141.0258
      XYYY      -0.0001   YYYY     -60.2982   XXXZ     -13.7958
      XXYZ       0.0000   XYYZ      -9.1157   YYYZ       0.0000
      XXZZ    -146.8535   XYZZ       0.0000   YYZZ     -28.8984
      XZZZ     -24.3793   YZZZ       0.0000   ZZZZ    -136.9706
 -----------------------------------------------------------------
 Calculating analytic gradient of the SCF energy
 Gradient of AOints
            1           2           3           4           5           6
    1  -4.4675659  -4.2399851  -1.9493584  -0.4250867  -0.4250871  -3.0995592
    2  -0.0000013   0.0000000  -0.0000016   3.1219684  -3.1219695  -0.0000000
    3   0.7997794  -0.8719632  -3.4983538   2.5389195   2.5389181   1.6678284
            7           8           9          10          11
    1  15.5335564  -0.7006031  -0.7006027   0.2371448   0.2371471
    2   0.0000054  -2.6744849   2.6744857   3.2490833  -3.2490856
    3   6.9055824  -2.1653356  -2.1653349  -2.8750214  -2.8750190
 Gradient of XC Energy
            1           2           3           4           5           6
    1   0.0241877  -0.0252049   0.0139991   0.0001416   0.0001416   0.1272548
    2   0.0000000   0.0000000  -0.0000000  -0.1223915   0.1223915   0.0000000
    3   0.0238762  -0.0162353  -0.0144221  -0.0908695  -0.0908694  -0.0857263
            7           8           9          10          11
    1  -0.1362328   0.0052994   0.0052994  -0.0074429  -0.0074430
    2  -0.0000001   0.1215064  -0.1215064  -0.1246294   0.1246294
    3  -0.0916264   0.0895577   0.0895577   0.0933788   0.0933788
 Gradient of SCF Energy
            1           2           3           4           5           6
    1  -0.0021719   0.0000219   0.0070716   0.0002180   0.0002180  -0.0007464
    2  -0.0000000  -0.0000000  -0.0000000  -0.0000456   0.0000457  -0.0000000
    3  -0.0033634   0.0021754   0.0054423   0.0006933   0.0006932  -0.0007772
            7           8           9          10          11
    1  -0.0014877  -0.0003300  -0.0003300  -0.0012318  -0.0012318
    2  -0.0000000  -0.0000019   0.0000019  -0.0002648   0.0002648
    3  -0.0015763  -0.0003213  -0.0003214  -0.0013223  -0.0013223
 Max gradient component =       7.072E-03
 RMS gradient           =       1.862E-03
 Gradient time:  CPU 205.14 s  wall 212.30 s
 Geometry Optimization Parameters
   NAtoms,    NIC,     NZ,  NCons,   NDum,   NFix, NCnnct, MaxDiis
       11      68      14       0       0       0       0       0

 Cartesian Hessian Update
 Hessian Updated using BFGS Update


** GEOMETRY OPTIMIZATION IN DELOCALIZED INTERNAL COORDINATES **
   Searching for a Minimum

   Optimization Cycle:   2

                       Coordinates (Angstroms)
     ATOM              X           Y           Z
    1  C          -0.003511    0.000000    0.003107
    2  C           1.227970    0.000000    0.880841
    3  C          -1.248682    0.000000    0.838227
    4  H          -0.008738   -0.883250   -0.650857
    5  H          -0.008737    0.883251   -0.650857
    6  H           2.139933    0.000000    0.270592
    7  Cl         -2.703779   -0.000001   -0.180087
    8  H           1.256889    0.888263    1.527460
    9  H           1.256889   -0.888263    1.527459
   10  H          -1.315509   -0.893376    1.469875
   11  H          -1.315509    0.893376    1.469875
   Point Group: c1    Number of degrees of freedom:  27


   Energy is   -575.434789466

 Hessian Updated using BFGS Update

 18 Hessian modes will be used to form the next step
  Hessian Eigenvalues:
     0.050103    0.054916    0.058651    0.081737    0.157221    0.160183
     0.209451    0.221098    0.238240    0.292073    0.330539    0.339886
     0.340666    0.341008    0.341104    0.342185    0.344619    0.345203

 Minimum Search - Taking Simple RFO Step
 Searching for Lamda that Minimizes Along All modes
 Value Taken    Lamda =  -0.00023257
 Step Taken.  Stepsize is  0.053267

                             Maximum     Tolerance    Cnvgd?
         Gradient           0.002632      0.000300      NO
         Displacement       0.037587      0.001200      NO
         Energy change     -0.001551      0.000001      NO


 New Cartesian Coordinates Obtained by Inverse Iteration

 Displacement from previous Coordinates is:  0.032346
 Writing REM_CC_EA           11
 ----------------------------------------------------
       Standard Nuclear Orientation (Angstroms)
    I     Atom         X            Y            Z
 ----------------------------------------------------
    1      C      -0.004010     0.000000     0.004606
    2      C       1.228955     0.000000     0.879460
    3      C      -1.256703     0.000000     0.831127
    4      H      -0.009588    -0.881508    -0.653043
    5      H      -0.009588     0.881508    -0.653043
    6      H       2.145994     0.000000     0.276037
    7      Cl     -2.709359    -0.000001    -0.176815
    8      H       1.258602     0.887228     1.528320
    9      H       1.258602    -0.887229     1.528319
   10      H      -1.312844    -0.889950     1.470333
   11      H      -1.312845     0.889951     1.470333
 ----------------------------------------------------
 Nuclear Repulsion Energy =   160.0029816134 hartrees
 There are       21 alpha and       21 beta electrons
 Applying Cartesian multipole field
    Component          Value
    ---------          -----
     (2,0,0)        1.00000E-11
     (0,2,0)        2.00000E-11
     (0,0,2)       -3.00000E-11
 Nucleus-field energy     =     0.0000000038 hartrees
 Requested basis set is G3large
 There are 91 shells and 262 basis functions
 A cutoff of  1.0D-11 yielded   3890 shell pairs
 There are  32052 function pairs ( 40003 Cartesian)
Evaluating contribution to one-electron hamiltonian from nuclear
 Smallest overlap matrix eigenvalue = 2.43E-05
 Multipole matrices computed through 2nd order
 Guess MOs from SCF MO coefficient file
Reading MOs from coefficient file
Reading MOs from coefficient file
 A restricted hybrid HF-DFT SCF calculation will be
 performed using Pulay DIIS extrapolation
 Exchange:     1.0000 Hartree-Fock + 1.0000 BNL
 Correlation:  1.0000 LYP
 Using SG-1 standard quadrature grid
 SCF converges when DIIS error is below 1.0E-08
 ---------------------------------------
  Cycle       Energy         DIIS Error
 ---------------------------------------
    1    -575.4381903768      2.02E-04
    2    -575.4349216505      3.22E-05
    3    -575.4349281146      2.34E-05
    4    -575.4349317828      3.59E-06
    5    -575.4349319469      1.41E-06
    6    -575.4349320288      5.21E-07
    7    -575.4349320478      1.15E-07
    8    -575.4349320465      4.83E-08
    9    -575.4349320419      1.80E-08
   10    -575.4349320443      3.81E-09 Convergence criterion met
 ---------------------------------------
 One-Electron    Energy = -1110.8131695599
 Total Coulomb   Energy =   419.0349599632
 Alpha Exchange  Energy =    -4.1385471087
 Beta  Exchange  Energy =    -4.1385471087
 DFT   Exchange  Energy =   -33.8795334546
 DFT Correlation Energy =    -1.5030763927
 Nuclear Repu.   Energy =   160.0029816172
 Nuclear Attr.   Energy = -1684.7880983928
 Kinetic         Energy =   573.9749288328
 SCF time:  CPU 312.16 s  wall 322.01 s
 Final Alpha MO Eigenvalues
            1           2           3           4           5           6
    1-100.4700219 -10.0228855  -9.9753822  -9.9666771  -9.3236779  -7.1776052
            7           8           9          10          11          12
    1  -7.1671539  -7.1669718  -1.0022934  -0.9149889  -0.7987644  -0.7258321
           13          14          15          16          17          18
    1  -0.6165152  -0.5697951  -0.5520324  -0.5309763  -0.4802932  -0.4727165
           19          20          21          22          23          24
    1  -0.4530248  -0.4059680  -0.4043854   0.0292999   0.0475167   0.0502583
           25          26
    1   0.0530258   0.0795656
 Analysis of SCF Wavefunction
 
 --------------------------------------------------------------
                    Orbital Energies (a.u.)
 --------------------------------------------------------------
 
 Alpha MOs
 -- Occupied --
******* -10.023  -9.975  -9.967  -9.324  -7.178  -7.167  -7.167
 -1.002  -0.915  -0.799  -0.726  -0.617  -0.570  -0.552  -0.531
 -0.480  -0.473  -0.453  -0.406  -0.404
 -- Virtual --
  0.029   0.048   0.050   0.053   0.080   0.080   0.086   0.090
  0.111   0.127   0.147   0.153   0.157   0.158   0.161   0.173
  0.179   0.182   0.191   0.203   0.209   0.211   0.220   0.240
  0.258   0.259   0.269   0.285   0.306   0.338   0.353   0.360
  0.381   0.394   0.434   0.453   0.457   0.487   0.508   0.523
  0.528   0.553   0.559   0.585   0.591   0.619   0.625   0.649
  0.650   0.653   0.664   0.674   0.679   0.721   0.731   0.756
  0.776   0.804   0.805   0.845   0.864   0.901   0.923   0.936
  0.986   0.988   1.064   1.072   1.121   1.140   1.164   1.171
  1.190   1.191   1.197   1.220   1.228   1.249   1.261   1.268
  1.285   1.303   1.314   1.345   1.371   1.375   1.391   1.398
  1.437   1.474   1.491   1.492   1.518   1.535   1.548   1.561
  1.587   1.592   1.620   1.644   1.668   1.676   1.701   1.707
  1.730   1.770   1.805   1.829   1.889   2.308   2.322   2.467
  2.529   2.617   2.631   2.716   2.746   2.777   2.865   2.883
  2.906   2.908   2.964   2.968   3.038   3.048   3.144   3.149
  3.172   3.186   3.231   3.240   3.330   3.358   3.377   3.427
  3.440   3.450   3.451   3.473   3.514   3.565   3.641   3.662
  3.688   3.752   3.761   3.783   3.797   3.834   3.865   3.931
  3.945   4.013   4.069   4.080   4.088   4.119   4.168   4.203
  4.282   4.310   4.346   4.366   4.385   4.388   4.438   4.464
  4.468   4.482   4.509   4.526   4.540   4.571   4.625   4.657
  4.671   4.681   4.710   4.748   4.761   4.764   4.865   4.906
  5.028   5.136   5.150   5.299   5.328   5.377   5.534   5.601
  5.715   5.783   5.788   5.835   5.896   9.913  20.621  20.628
 20.868  24.193  24.374  24.521  27.157  27.210  27.248  27.304
 27.308  27.732  27.880  28.136  28.164  28.180  28.224  28.306
 28.448  28.527  36.892  36.892  36.899  36.901  36.906  36.908
 36.922  40.880  40.921  40.929  40.939  41.005  41.028  41.221
 41.237  41.263  41.269  41.296  41.340  41.342  41.343  41.417
216.385
 --------------------------------------------------------------
 
          Ground-State Mulliken Net Atomic Charges

     Atom                 Charge (a.u.)
  ----------------------------------------
      1 C                    -0.072186
      2 C                    -0.487019
      3 C                    -0.053926
      4 H                     0.134323
      5 H                     0.134323
      6 H                     0.135317
      7 Cl                   -0.296292
      8 H                     0.123333
      9 H                     0.123333
     10 H                     0.129396
     11 H                     0.129396
  ----------------------------------------
  Sum of atomic charges =     0.000000

 -----------------------------------------------------------------
                    Cartesian Multipole Moments
 -----------------------------------------------------------------
    Charge (ESU x 10^10)
                 0.0000
    Dipole Moment (Debye)
         X       1.9375      Y       0.0000      Z       0.9951
       Tot       2.1781
    Quadrupole Moments (Debye-Ang)
        XX     -40.1333     XY       0.0000     YY     -33.3809
        XZ      -1.3516     YZ       0.0000     ZZ     -33.0579
    Octapole Moments (Debye-Ang^2)
       XXX     117.7186    XXY       0.0000    XYY      33.9843
       YYY       0.0000    XXZ     -11.5914    XYZ       0.0000
       YYZ      -8.8085    XZZ      31.7927    YZZ       0.0000
       ZZZ     -30.3131
    Hexadecapole Moments (Debye-Ang^3)
      XXXX    -801.0273   XXXY      -0.0001   XXYY    -141.5102
      XYYY      -0.0001   YYYY     -60.3395   XXXZ     -13.2618
      XXYZ       0.0000   XYYZ      -8.9688   YYYZ       0.0000
      XXZZ    -147.3239   XYZZ       0.0000   YYZZ     -28.8926
      XZZZ     -24.0958   YZZZ       0.0000   ZZZZ    -136.5720
 -----------------------------------------------------------------
 Calculating analytic gradient of the SCF energy
 Gradient of AOints
            1           2           3           4           5           6
    1  -4.4740746  -4.2433834  -1.8733639  -0.4185693  -0.4185697  -3.1278988
    2  -0.0000011  -0.0000001  -0.0000018   3.0960654  -3.0960665  -0.0000000
    3   0.6756937  -0.8128040  -3.3328605   2.5520454   2.5520440   1.6288057
            7           8           9          10          11
    1  15.6302911  -0.7067021  -0.7067017   0.1694853   0.1694870
    2   0.0000056  -2.6616758   2.6616766   3.2017985  -3.2018009
    3   6.9085679  -2.1704931  -2.1704923  -2.9152546  -2.9152521
 Gradient of XC Energy
            1           2           3           4           5           6
    1   0.0244999  -0.0253100   0.0108142  -0.0000376  -0.0000376   0.1283281
    2  -0.0000000   0.0000000  -0.0000000  -0.1216892   0.1216893   0.0000000
    3   0.0274030  -0.0184920  -0.0185793  -0.0913368  -0.0913367  -0.0842800
            7           8           9          10          11
    1  -0.1386478   0.0054844   0.0054843  -0.0052888  -0.0052889
    2  -0.0000001   0.1211136  -0.1211136  -0.1233305   0.1233306
    3  -0.0922867   0.0898097   0.0898097   0.0946446   0.0946445
 Gradient of SCF Energy
            1           2           3           4           5           6
    1  -0.0012275   0.0002555   0.0023482  -0.0000082  -0.0000082   0.0001277
    2  -0.0000000  -0.0000000   0.0000000  -0.0000864   0.0000864  -0.0000000
    3  -0.0000673   0.0003312   0.0007551   0.0002523   0.0002523  -0.0001398
            7           8           9          10          11
    1  -0.0004502  -0.0001395  -0.0001395  -0.0003791  -0.0003791
    2  -0.0000000   0.0000515  -0.0000515  -0.0001579   0.0001579
    3  -0.0002407  -0.0000996  -0.0000996  -0.0004719  -0.0004719
 Max gradient component =       2.348E-03
 RMS gradient           =       5.239E-04
 Gradient time:  CPU 205.90 s  wall 206.42 s
 Geometry Optimization Parameters
   NAtoms,    NIC,     NZ,  NCons,   NDum,   NFix, NCnnct, MaxDiis
       11      68      14       0       0       0       0       0

 Cartesian Hessian Update
 Hessian Updated using BFGS Update


** GEOMETRY OPTIMIZATION IN DELOCALIZED INTERNAL COORDINATES **
   Searching for a Minimum

   Optimization Cycle:   3

                       Coordinates (Angstroms)
     ATOM              X           Y           Z
    1  C          -0.004010    0.000000    0.004606
    2  C           1.228955    0.000000    0.879460
    3  C          -1.256703    0.000000    0.831127
    4  H          -0.009588   -0.881508   -0.653043
    5  H          -0.009588    0.881508   -0.653043
    6  H           2.145994    0.000000    0.276037
    7  Cl         -2.709359   -0.000001   -0.176815
    8  H           1.258602    0.887228    1.528320
    9  H           1.258602   -0.887229    1.528319
   10  H          -1.312844   -0.889950    1.470333
   11  H          -1.312845    0.889951    1.470333
   Point Group: c1    Number of degrees of freedom:  27


   Energy is   -575.434932044

 Hessian Updated using BFGS Update

 16 Hessian modes will be used to form the next step
  Hessian Eigenvalues:
     0.043948    0.051304    0.055215    0.081954    0.154608    0.160019
     0.162139    0.211296    0.220940    0.245392    0.295574    0.316658
     0.339742    0.340833    0.342953    0.344244

 Minimum Search - Taking Simple RFO Step
 Searching for Lamda that Minimizes Along All modes
 Value Taken    Lamda =  -0.00002669
 Step Taken.  Stepsize is  0.021806

                             Maximum     Tolerance    Cnvgd?
         Gradient           0.000844      0.000300      NO
         Displacement       0.012498      0.001200      NO
         Energy change     -0.000143      0.000001      NO


 New Cartesian Coordinates Obtained by Inverse Iteration

 Displacement from previous Coordinates is:  0.014917
 Writing REM_CC_EA           11
 ----------------------------------------------------
       Standard Nuclear Orientation (Angstroms)
    I     Atom         X            Y            Z
 ----------------------------------------------------
    1      C      -0.003680     0.000000     0.003700
    2      C       1.227722     0.000000     0.879508
    3      C      -1.259555     0.000000     0.829382
    4      H      -0.008388    -0.880562    -0.655659
    5      H      -0.008388     0.880563    -0.655659
    6      H       2.145342     0.000000     0.277518
    7      Cl     -2.710737    -0.000001    -0.175858
    8      H       1.258194     0.886795     1.529130
    9      H       1.258194    -0.886796     1.529130
   10      H      -1.310743    -0.888092     1.472222
   11      H      -1.310744     0.888093     1.472221
 ----------------------------------------------------
 Nuclear Repulsion Energy =   160.0019132197 hartrees
 There are       21 alpha and       21 beta electrons
 Applying Cartesian multipole field
    Component          Value
    ---------          -----
     (2,0,0)        1.00000E-11
     (0,2,0)        2.00000E-11
     (0,0,2)       -3.00000E-11
 Nucleus-field energy     =     0.0000000038 hartrees
 Requested basis set is G3large
 There are 91 shells and 262 basis functions
 A cutoff of  1.0D-11 yielded   3890 shell pairs
 There are  32052 function pairs ( 40003 Cartesian)
Evaluating contribution to one-electron hamiltonian from nuclear
 Smallest overlap matrix eigenvalue = 2.44E-05
 Multipole matrices computed through 2nd order
 Guess MOs from SCF MO coefficient file
Reading MOs from coefficient file
Reading MOs from coefficient file
 A restricted hybrid HF-DFT SCF calculation will be
 performed using Pulay DIIS extrapolation
 Exchange:     1.0000 Hartree-Fock + 1.0000 BNL
 Correlation:  1.0000 LYP
 Using SG-1 standard quadrature grid
 SCF converges when DIIS error is below 1.0E-08
 ---------------------------------------
  Cycle       Energy         DIIS Error
 ---------------------------------------
    1    -575.4364004969      7.92E-05
    2    -575.4349434742      1.29E-05
    3    -575.4349444393      9.60E-06
    4    -575.4349449814      1.40E-06
    5    -575.4349450951      4.92E-07
    6    -575.4349450748      1.73E-07
    7    -575.4349450798      3.15E-08
    8    -575.4349450799      1.30E-08
    9    -575.4349450765      3.25E-09 Convergence criterion met
 ---------------------------------------
 One-Electron    Energy = -1110.8087566034
 Total Coulomb   Energy =   419.0313344641
 Alpha Exchange  Energy =    -4.1385427103
 Beta  Exchange  Energy =    -4.1385427103
 DFT   Exchange  Energy =   -33.8792829339
 DFT Correlation Energy =    -1.5030678063
 Nuclear Repu.   Energy =   160.0019132235
 Nuclear Attr.   Energy = -1684.7818041020
 Kinetic         Energy =   573.9730474986
 SCF time:  CPU 279.71 s  wall 289.20 s
 Final Alpha MO Eigenvalues
            1           2           3           4           5           6
    1-100.4703093 -10.0228017  -9.9754509  -9.9665743  -9.3239825  -7.1779125
            7           8           9          10          11          12
    1  -7.1674522  -7.1672709  -1.0025832  -0.9149795  -0.7986276  -0.7258919
           13          14          15          16          17          18
    1  -0.6158508  -0.5698574  -0.5522430  -0.5306794  -0.4807030  -0.4730385
           19          20          21          22          23          24
    1  -0.4526999  -0.4059518  -0.4043316   0.0293275   0.0475036   0.0503256
           25          26
    1   0.0530200   0.0795920
 Analysis of SCF Wavefunction
 
 --------------------------------------------------------------
                    Orbital Energies (a.u.)
 --------------------------------------------------------------
 
 Alpha MOs
 -- Occupied --
******* -10.023  -9.975  -9.967  -9.324  -7.178  -7.167  -7.167
 -1.003  -0.915  -0.799  -0.726  -0.616  -0.570  -0.552  -0.531
 -0.481  -0.473  -0.453  -0.406  -0.404
 -- Virtual --
  0.029   0.048   0.050   0.053   0.080   0.080   0.086   0.090
  0.112   0.127   0.147   0.153   0.157   0.158   0.161   0.173
  0.179   0.182   0.192   0.203   0.209   0.211   0.220   0.239
  0.258   0.259   0.269   0.285   0.306   0.338   0.353   0.360
  0.381   0.393   0.434   0.452   0.457   0.487   0.508   0.524
  0.528   0.553   0.560   0.585   0.591   0.619   0.625   0.649
  0.650   0.652   0.664   0.674   0.679   0.722   0.731   0.756
  0.776   0.803   0.805   0.845   0.864   0.902   0.923   0.936
  0.986   0.988   1.064   1.072   1.121   1.139   1.163   1.170
  1.190   1.191   1.197   1.220   1.229   1.250   1.261   1.268
  1.285   1.303   1.314   1.345   1.371   1.374   1.392   1.399
  1.437   1.476   1.491   1.491   1.518   1.536   1.548   1.561
  1.587   1.593   1.620   1.645   1.670   1.677   1.701   1.707
  1.731   1.770   1.804   1.828   1.889   2.308   2.322   2.468
  2.529   2.617   2.630   2.716   2.746   2.777   2.866   2.880
  2.906   2.907   2.964   2.969   3.037   3.048   3.144   3.148
  3.172   3.186   3.232   3.239   3.330   3.359   3.376   3.426
  3.440   3.450   3.451   3.474   3.515   3.563   3.641   3.664
  3.689   3.751   3.763   3.783   3.796   3.834   3.864   3.930
  3.943   4.012   4.068   4.078   4.090   4.120   4.167   4.201
  4.282   4.311   4.345   4.367   4.387   4.389   4.437   4.462
  4.467   4.482   4.509   4.525   4.539   4.571   4.624   4.657
  4.672   4.675   4.711   4.747   4.759   4.765   4.865   4.906
  5.026   5.135   5.150   5.301   5.329   5.376   5.533   5.598
  5.715   5.784   5.789   5.836   5.899   9.914  20.620  20.628
 20.868  24.193  24.372  24.519  27.156  27.210  27.248  27.304
 27.309  27.730  27.879  28.141  28.163  28.179  28.225  28.306
 28.449  28.527  36.892  36.892  36.898  36.901  36.905  36.908
 36.922  40.881  40.921  40.929  40.939  41.004  41.028  41.221
 41.238  41.263  41.269  41.296  41.339  41.342  41.343  41.416
216.386
 --------------------------------------------------------------
 
          Ground-State Mulliken Net Atomic Charges

     Atom                 Charge (a.u.)
  ----------------------------------------
      1 C                    -0.071555
      2 C                    -0.487560
      3 C                    -0.053092
      4 H                     0.134005
      5 H                     0.134005
      6 H                     0.135471
      7 Cl                   -0.295659
      8 H                     0.123384
      9 H                     0.123384
     10 H                     0.128809
     11 H                     0.128809
  ----------------------------------------
  Sum of atomic charges =     0.000000

 -----------------------------------------------------------------
                    Cartesian Multipole Moments
 -----------------------------------------------------------------
    Charge (ESU x 10^10)
                 0.0000
    Dipole Moment (Debye)
         X       1.9303      Y       0.0000      Z       0.9899
       Tot       2.1693
    Quadrupole Moments (Debye-Ang)
        XX     -40.0966     XY       0.0000     YY     -33.4011
        XZ      -1.3339     YZ       0.0000     ZZ     -33.0452
    Octapole Moments (Debye-Ang^2)
       XXX     117.6951    XXY       0.0000    XYY      34.0264
       YYY       0.0000    XXZ     -11.6142    XYZ       0.0000
       YYZ      -8.8296    XZZ      31.8271    YZZ       0.0000
       ZZZ     -30.2979
    Hexadecapole Moments (Debye-Ang^3)
      XXXX    -801.0980   XXXY      -0.0001   XXYY    -141.6065
      XYYY      -0.0001   YYYY     -60.3465   XXXZ     -13.0390
      XXYZ       0.0000   XYYZ      -8.9017   YYYZ       0.0000
      XXZZ    -147.4001   XYZZ       0.0000   YYZZ     -28.9035
      XZZZ     -23.9720   YZZZ       0.0000   ZZZZ    -136.5059
 -----------------------------------------------------------------
 Calculating analytic gradient of the SCF energy
 Gradient of AOints
            1           2           3           4           5           6
    1  -4.4721779  -4.2293891  -1.8361288  -0.4236290  -0.4236294  -3.1304276
    2  -0.0000015   0.0000001  -0.0000020   3.0832893  -3.0832903  -0.0000000
    3   0.6517994  -0.8091164  -3.2843746   2.5649312   2.5649299   1.6230994
            7           8           9          10          11
    1  15.6597393  -0.7124272  -0.7124267   0.1402474   0.1402491
    2   0.0000060  -2.6570663   2.6570672   3.1764563  -3.1764586
    3   6.9200383  -2.1750707  -2.1750700  -2.9405845  -2.9405821
 Gradient of XC Energy
            1           2           3           4           5           6
    1   0.0242449  -0.0257868   0.0095450   0.0001274   0.0001274   0.1284731
    2   0.0000000   0.0000000  -0.0000000  -0.1213504   0.1213504   0.0000000
    3   0.0282757  -0.0187034  -0.0200440  -0.0916952  -0.0916951  -0.0840809
            7           8           9          10          11
    1  -0.1394045   0.0056831   0.0056831  -0.0043464  -0.0043464
    2  -0.0000001   0.1209621  -0.1209622  -0.1226579   0.1226580
    3  -0.0927209   0.0899545   0.0899545   0.0953774   0.0953773
 Gradient of SCF Energy
            1           2           3           4           5           6
    1  -0.0000130  -0.0000236   0.0000358   0.0000353   0.0000353  -0.0000220
    2  -0.0000000  -0.0000000   0.0000000  -0.0000185   0.0000186   0.0000000
    3   0.0001410  -0.0001294  -0.0000548  -0.0000418  -0.0000418   0.0000288
            7           8           9          10          11
    1   0.0000027  -0.0000011  -0.0000011  -0.0000242  -0.0000242
    2  -0.0000000   0.0000218  -0.0000218   0.0000057  -0.0000057
    3   0.0000126   0.0000172   0.0000172   0.0000254   0.0000254
 Max gradient component =       1.410E-04
 RMS gradient           =       4.040E-05
 Gradient time:  CPU 206.22 s  wall 217.20 s
 Geometry Optimization Parameters
   NAtoms,    NIC,     NZ,  NCons,   NDum,   NFix, NCnnct, MaxDiis
       11      68      14       0       0       0       0       0

 Cartesian Hessian Update
 Hessian Updated using BFGS Update


** GEOMETRY OPTIMIZATION IN DELOCALIZED INTERNAL COORDINATES **
   Searching for a Minimum

   Optimization Cycle:   4

                       Coordinates (Angstroms)
     ATOM              X           Y           Z
    1  C          -0.003680    0.000000    0.003700
    2  C           1.227722    0.000000    0.879508
    3  C          -1.259555    0.000000    0.829382
    4  H          -0.008388   -0.880562   -0.655659
    5  H          -0.008388    0.880563   -0.655659
    6  H           2.145342    0.000000    0.277518
    7  Cl         -2.710737   -0.000001   -0.175858
    8  H           1.258194    0.886795    1.529130
    9  H           1.258194   -0.886796    1.529130
   10  H          -1.310743   -0.888092    1.472222
   11  H          -1.310744    0.888093    1.472221
   Point Group: c1    Number of degrees of freedom:  27


   Energy is   -575.434945077

 Hessian Updated using BFGS Update

 18 Hessian modes will be used to form the next step
  Hessian Eigenvalues:
     0.044887    0.050897    0.055192    0.082189    0.153335    0.160413
     0.161970    0.212199    0.220983    0.244499    0.298924    0.314479
     0.340237    0.340666    0.340917    0.341104    0.343589    0.344256

 Minimum Search - Taking Simple RFO Step
 Searching for Lamda that Minimizes Along All modes
 Value Taken    Lamda =   0.00000000
 Step Taken.  Stepsize is  0.001076

                             Maximum     Tolerance    Cnvgd?
         Gradient           0.000092      0.000300     YES
         Displacement       0.000648      0.001200     YES
         Energy change     -0.000013      0.000001      NO


                       Distance Matrix (Angstroms)
             C (  1)   C (  2)   C (  3)   H (  4)   H (  5)   H (  6)
   C (  2)  1.511089
   C (  3)  1.502988  2.487782
   H (  4)  1.100075  2.158725  2.132171
   H (  5)  1.100075  2.158725  2.132171  1.761125
   H (  6)  2.166395  1.097460  3.449330  2.506942  2.506942
   Cl(  7)  2.713006  4.077408  1.765344  2.882410  2.882410  4.877197
   H (  8)  2.169255  1.099701  2.759549  3.082383  2.525385  1.771996
   H (  9)  2.169255  1.099701  2.759549  2.525385  3.082383  1.771996
   H ( 10)  2.157239  2.753874  1.097529  2.494807  3.058127  3.763050
   H ( 11)  2.157239  2.753874  1.097529  3.058127  2.494806  3.763051
             Cl(  7)   H (  8)   H (  9)   H ( 10)
   H (  8)  4.409740
   H (  9)  4.409739  1.773591
   H ( 10)  2.337703  3.122963  2.569567
   H ( 11)  2.337703  2.569568  3.122964  1.776184
 


 ******************************
 **  OPTIMIZATION CONVERGED  **
 ******************************
 Analysis of SCF Wavefunction
 
 --------------------------------------------------------------
                    Orbital Energies (a.u.)
 --------------------------------------------------------------
 
 Alpha MOs
 -- Occupied --
******* -10.023  -9.975  -9.967  -9.324  -7.178  -7.167  -7.167
 -1.003  -0.915  -0.799  -0.726  -0.616  -0.570  -0.552  -0.531
 -0.481  -0.473  -0.453  -0.406  -0.404
 -- Virtual --
  0.029   0.048   0.050   0.053   0.080   0.080   0.086   0.090
  0.112   0.127   0.147   0.153   0.157   0.158   0.161   0.173
  0.179   0.182   0.192   0.203   0.209   0.211   0.220   0.239
  0.258   0.259   0.269   0.285   0.306   0.338   0.353   0.360
  0.381   0.393   0.434   0.452   0.457   0.487   0.508   0.524
  0.528   0.553   0.560   0.585   0.591   0.619   0.625   0.649
  0.650   0.652   0.664   0.674   0.679   0.722   0.731   0.756
  0.776   0.803   0.805   0.845   0.864   0.902   0.923   0.936
  0.986   0.988   1.064   1.072   1.121   1.139   1.163   1.170
  1.190   1.191   1.197   1.220   1.229   1.250   1.261   1.268
  1.285   1.303   1.314   1.345   1.371   1.374   1.392   1.399
  1.437   1.476   1.491   1.491   1.518   1.536   1.548   1.561
  1.587   1.593   1.620   1.645   1.670   1.677   1.701   1.707
  1.731   1.770   1.804   1.828   1.889   2.308   2.322   2.468
  2.529   2.617   2.630   2.716   2.746   2.777   2.866   2.880
  2.906   2.907   2.964   2.969   3.037   3.048   3.144   3.148
  3.172   3.186   3.232   3.239   3.330   3.359   3.376   3.426
  3.440   3.450   3.451   3.474   3.515   3.563   3.641   3.664
  3.689   3.751   3.763   3.783   3.796   3.834   3.864   3.930
  3.943   4.012   4.068   4.078   4.090   4.120   4.167   4.201
  4.282   4.311   4.345   4.367   4.387   4.389   4.437   4.462
  4.467   4.482   4.509   4.525   4.539   4.571   4.624   4.657
  4.672   4.675   4.711   4.747   4.759   4.765   4.865   4.906
  5.026   5.135   5.150   5.301   5.329   5.376   5.533   5.598
  5.715   5.784   5.789   5.836   5.899   9.914  20.620  20.628
 20.868  24.193  24.372  24.519  27.156  27.210  27.248  27.304
 27.309  27.730  27.879  28.141  28.163  28.179  28.225  28.306
 28.449  28.527  36.892  36.892  36.898  36.901  36.905  36.908
 36.922  40.881  40.921  40.929  40.939  41.004  41.028  41.221
 41.238  41.263  41.269  41.296  41.339  41.342  41.343  41.416
216.386
 --------------------------------------------------------------
 
          Ground-State Mulliken Net Atomic Charges

     Atom                 Charge (a.u.)
  ----------------------------------------
      1 C                    -0.071555
      2 C                    -0.487560
      3 C                    -0.053092
      4 H                     0.134005
      5 H                     0.134005
      6 H                     0.135471
      7 Cl                   -0.295659
      8 H                     0.123384
      9 H                     0.123384
     10 H                     0.128809
     11 H                     0.128809
  ----------------------------------------
  Sum of atomic charges =     0.000000

 -----------------------------------------------------------------
                    Cartesian Multipole Moments
 -----------------------------------------------------------------
    Charge (ESU x 10^10)
                 0.0000
    Dipole Moment (Debye)
         X       1.9303      Y       0.0000      Z       0.9899
       Tot       2.1693
    Quadrupole Moments (Debye-Ang)
        XX     -40.0966     XY       0.0000     YY     -33.4011
        XZ      -1.3339     YZ       0.0000     ZZ     -33.0452
    Octapole Moments (Debye-Ang^2)
       XXX     117.6951    XXY       0.0000    XYY      34.0264
       YYY       0.0000    XXZ     -11.6142    XYZ       0.0000
       YYZ      -8.8296    XZZ      31.8271    YZZ       0.0000
       ZZZ     -30.2979
    Hexadecapole Moments (Debye-Ang^3)
      XXXX    -801.0980   XXXY      -0.0001   XXYY    -141.6065
      XYYY      -0.0001   YYYY     -60.3465   XXXZ     -13.0390
      XXYZ       0.0000   XYYZ      -8.9017   YYYZ       0.0000
      XXZZ    -147.4001   XYZZ       0.0000   YYZZ     -28.9035
      XZZZ     -23.9720   YZZZ       0.0000   ZZZZ    -136.5059
 -----------------------------------------------------------------
 Total job time:  2231.74s(wall), 2176.73s(cpu) 
 Sun Apr 24 06:47:25 2011

        *************************************************************
        *                                                           *
        *  Thank you very much for using Q-Chem.  Have a nice day.  *
        *                                                           *
        *************************************************************


0 sent ACK to 0 
now end server 0 ... 
 
**********************************************************************
Job 2 of 2 
**********************************************************************
 
Process 0 of 1 is on cl250.stfx.acenet.ca - thread support 1
initial socket setup ...start
initial socket setup ...done 
now start server 0 ... 

cmd = /usr/bin/ssh clhead /usr/local/qchem/bin/get_hostid 202384755 > /scratch/tmp/4506668.1.long.q/qchem17636/lic.dat
                  Welcome to Q-Chem
     A Quantum Leap Into The Future Of Chemistry

 Y. Shao, L. Fusti-Molnar, Y. Jung, J. Kussmann, C. Ochsenfeld,
 S. T. Brown, A. T. B. Gilbert, L. V. Slipchenko,S. V. Levchenko,
 D. P. O'Neill, R. A. DiStasio Jr., R. C. Lochan, T. Wang,
 G. J. O. Beran, N. A. Besley, J. M. Herbert, C. Y. Lin,
 T. Van Voorhis, S. H. Chien, A. Sodt, R. P. Steele, 
 V. A. Rassolov, P. E. Maslen, P. P. Korambath, R. D. Adamson,
 B. Austin, J. Baker, E. F. C. Byrd, H. Dachsel, R. J. Doerksen,
 A. Dreuw, B. D. Dunietz, A. D. Dutoi, T. R. Furlani,
 S. R. Gwaltney, A. Heyden, S. Hirata, C.-P. Hsu, G. Kedziora,
 R. Z. Khaliullin, P. Klunzinger, A. M. Lee, M. S. Lee, W. Liang,
 I. Lotan, N. Nair, B. Peters, E. I. Proynov, P. A. Pieniazek, 
 Y. M. Rhee, J. Ritchie, E. Rosta, C. D. Sherrill, 
 A. C. Simmonett, J. E. Subotnik, H. L. Woodcock III,
 W. Zhang, A. T. Bell, A. K. Chakraborty, D. M. Chipman,
 F. J. Keil, A. Warshel, W. J. Hehre, H. F. Schaefer III,
 J. Kong, A. I. Krylov, P. M. W. Gill, M. Head-Gordon,
 Q-Chem, Version 3.1, Q-Chem, Inc., Pittsburgh, PA (2007).

 Additional authors for Version 3.1: 
 Z. Gan, Y. Zhao, N. E. Schultz, D. Truhlar, E. Epifanovsky and M. Oana.

 Additional authors for Version 3.2: 
 R. Baer, B. R. Brooks, D. Casanova, J.-D. Chai, C.-L. Cheng, 
 C. Cramer, D. Crittenden, A. Ghysels, G. Hawkins, E. G. Hohenstein, 
 C. Kelley, W. Kurlancheek, D. Liotard, E. Livshits, P. Manohar, 
 A. Marenich, D. Neuhauser, R. Olson, M. A. Rohrdanz, K. S. Thanthiriwatte, 
 A. J. W. Thom, V. Vanovschi, C. F. Williams, Q. Wu and Z.-Q. You. 


 Intel X86 Linux Version

 Q-chem begins on Sun Apr 24 06:47:28 2011  

 Parallel job on  1  processors
Processing $rem in /usr/local/qchem/config/preferences.

theFileMan(): MAXOPENFILES=974 MAX_SUB_FILE_NUM=16
Maximum size of a physical file is 2.0 GB, maximum size of a tmp-file is 32.0 GB


--------------------------------------------------------------
User input:
--------------------------------------------------------------

$molecule 
READ 
$end 

$xc_functional
   X HF 1.0
   X BNL 1.0
   C LYP 1.0
$end

$rem
SYMMETRY_DECOMPOSITION	0
exchange 		general
BASIS                   g3large
omega			390 
JOBTYPE                 freq
IDERIV 1
SCF_GUESS READ
separate_jk		true
mem_static              760
max_scf_cycles          200
scf_final_print         1
sym_ignore              true
$end

--------------------------------------------------------------
 Writing REM_CC_EA           11
 ----------------------------------------------------
       Standard Nuclear Orientation (Angstroms)
    I     Atom         X            Y            Z
 ----------------------------------------------------
    1      C      -0.003680     0.000000     0.003700
    2      C       1.227722     0.000000     0.879508
    3      C      -1.259555     0.000000     0.829382
    4      H      -0.008388    -0.880562    -0.655659
    5      H      -0.008388     0.880563    -0.655659
    6      H       2.145342     0.000000     0.277518
    7      Cl     -2.710737    -0.000001    -0.175858
    8      H       1.258194     0.886795     1.529130
    9      H       1.258194    -0.886796     1.529130
   10      H      -1.310743    -0.888092     1.472222
   11      H      -1.310744     0.888093     1.472221
 ----------------------------------------------------
 Nuclear Repulsion Energy =   160.0019132197 hartrees
 There are       21 alpha and       21 beta electrons
 Requested basis set is G3large
 There are 91 shells and 262 basis functions

Total QAlloc Memory Limit   2000 MB
Mega-Array Size       759 MB
MEM_STATIC part       760 MB

                       Distance Matrix (Angstroms)
             C (  1)   C (  2)   C (  3)   H (  4)   H (  5)   H (  6)
   C (  2)  1.511089
   C (  3)  1.502988  2.487782
   H (  4)  1.100075  2.158725  2.132171
   H (  5)  1.100075  2.158725  2.132171  1.761125
   H (  6)  2.166395  1.097460  3.449330  2.506942  2.506942
   Cl(  7)  2.713006  4.077408  1.765344  2.882410  2.882410  4.877197
   H (  8)  2.169255  1.099701  2.759549  3.082383  2.525385  1.771996
   H (  9)  2.169255  1.099701  2.759549  2.525385  3.082383  1.771996
   H ( 10)  2.157239  2.753874  1.097529  2.494807  3.058127  3.763050
   H ( 11)  2.157239  2.753874  1.097529  3.058127  2.494806  3.763051
             Cl(  7)   H (  8)   H (  9)   H ( 10)
   H (  8)  4.409740
   H (  9)  4.409739  1.773591
   H ( 10)  2.337703  3.122963  2.569567
   H ( 11)  2.337703  2.569568  3.122964  1.776184
 
 A cutoff of  1.0D-11 yielded   3890 shell pairs
 There are  32052 function pairs ( 40003 Cartesian)
Evaluating contribution to one-electron hamiltonian from nuclear
 Smallest overlap matrix eigenvalue = 2.44E-05
 Multipole matrices computed through 2nd order
 Guess MOs from SCF MO coefficient file
Reading MOs from coefficient file
Reading MOs from coefficient file
 A restricted hybrid HF-DFT SCF calculation will be
 performed using Pulay DIIS extrapolation
 Exchange:     1.0000 Hartree-Fock + 1.0000 BNL
 Correlation:  1.0000 LYP
 Using SG-1 standard quadrature grid
 SCF converges when DIIS error is below 1.0E-08
 ---------------------------------------
  Cycle       Energy         DIIS Error
 ---------------------------------------
    1    -575.4349450541      8.47E-10
    2    -575.4349450532      4.38E-10 Convergence criterion met
 ---------------------------------------
 One-Electron    Energy = -1110.8087548543
 Total Coulomb   Energy =   419.0313325705
 Alpha Exchange  Energy =    -4.1385427052
 Beta  Exchange  Energy =    -4.1385427052
 DFT   Exchange  Energy =   -33.8792827801
 DFT Correlation Energy =    -1.5030677986
 Nuclear Repu.   Energy =   160.0019132197
 Nuclear Attr.   Energy = -1684.7818010277
 Kinetic         Energy =   573.9730461734
 SCF time:  CPU 79.98 s  wall 93.08 s
 Final Alpha MO Eigenvalues
            1           2           3           4           5           6
    1-100.4703093 -10.0228017  -9.9754510  -9.9665743  -9.3239826  -7.1779126
            7           8           9          10          11          12
    1  -7.1674522  -7.1672710  -1.0025832  -0.9149795  -0.7986276  -0.7258919
           13          14          15          16          17          18
    1  -0.6158509  -0.5698574  -0.5522430  -0.5306795  -0.4807030  -0.4730385
           19          20          21          22          23          24
    1  -0.4526999  -0.4059518  -0.4043316   0.0293275   0.0475036   0.0503256
           25          26
    1   0.0530200   0.0795920
 Analysis of SCF Wavefunction
 
 --------------------------------------------------------------
                    Orbital Energies (a.u.)
 --------------------------------------------------------------
 
 Alpha MOs
 -- Occupied --
******* -10.023  -9.975  -9.967  -9.324  -7.178  -7.167  -7.167
 -1.003  -0.915  -0.799  -0.726  -0.616  -0.570  -0.552  -0.531
 -0.481  -0.473  -0.453  -0.406  -0.404
 -- Virtual --
  0.029   0.048   0.050   0.053   0.080   0.080   0.086   0.090
  0.112   0.127   0.147   0.153   0.157   0.158   0.161   0.173
  0.179   0.182   0.192   0.203   0.209   0.211   0.220   0.239
  0.258   0.259   0.269   0.285   0.306   0.338   0.353   0.360
  0.381   0.393   0.434   0.452   0.457   0.487   0.508   0.524
  0.528   0.553   0.560   0.585   0.591   0.619   0.625   0.649
  0.650   0.652   0.664   0.674   0.679   0.722   0.731   0.756
  0.776   0.803   0.805   0.845   0.864   0.902   0.923   0.936
  0.986   0.988   1.064   1.072   1.121   1.139   1.163   1.170
  1.190   1.191   1.197   1.220   1.229   1.250   1.261   1.268
  1.285   1.303   1.314   1.345   1.371   1.374   1.392   1.399
  1.437   1.476   1.491   1.491   1.518   1.536   1.548   1.561
  1.587   1.593   1.620   1.645   1.670   1.677   1.701   1.707
  1.731   1.770   1.804   1.828   1.889   2.308   2.322   2.468
  2.529   2.617   2.630   2.716   2.746   2.777   2.866   2.880
  2.906   2.907   2.964   2.969   3.037   3.048   3.144   3.148
  3.172   3.186   3.232   3.239   3.330   3.359   3.376   3.426
  3.440   3.450   3.451   3.474   3.515   3.563   3.641   3.664
  3.689   3.751   3.763   3.783   3.796   3.834   3.864   3.930
  3.943   4.012   4.068   4.078   4.090   4.120   4.167   4.201
  4.282   4.311   4.345   4.367   4.387   4.389   4.437   4.462
  4.467   4.482   4.509   4.525   4.539   4.571   4.624   4.657
  4.672   4.675   4.711   4.747   4.759   4.765   4.865   4.906
  5.026   5.135   5.150   5.301   5.329   5.376   5.533   5.598
  5.715   5.784   5.789   5.836   5.899   9.914  20.620  20.628
 20.868  24.193  24.372  24.519  27.156  27.210  27.248  27.304
 27.309  27.730  27.879  28.141  28.163  28.179  28.225  28.306
 28.449  28.527  36.892  36.892  36.898  36.901  36.905  36.908
 36.922  40.881  40.921  40.929  40.939  41.004  41.028  41.221
 41.238  41.263  41.269  41.296  41.339  41.342  41.343  41.416
216.386
 --------------------------------------------------------------
 
          Ground-State Mulliken Net Atomic Charges

     Atom                 Charge (a.u.)
  ----------------------------------------
      1 C                    -0.071555
      2 C                    -0.487560
      3 C                    -0.053092
      4 H                     0.134005
      5 H                     0.134005
      6 H                     0.135471
      7 Cl                   -0.295659
      8 H                     0.123384
      9 H                     0.123384
     10 H                     0.128809
     11 H                     0.128809
  ----------------------------------------
  Sum of atomic charges =     0.000000

 -----------------------------------------------------------------
                    Cartesian Multipole Moments
 -----------------------------------------------------------------
    Charge (ESU x 10^10)
                 0.0000
    Dipole Moment (Debye)
         X       1.9303      Y       0.0000      Z       0.9899
       Tot       2.1693
    Quadrupole Moments (Debye-Ang)
        XX     -40.0966     XY       0.0000     YY     -33.4011
        XZ      -1.3339     YZ       0.0000     ZZ     -33.0452
    Octapole Moments (Debye-Ang^2)
       XXX     117.6951    XXY       0.0000    XYY      34.0264
       YYY       0.0000    XXZ     -11.6142    XYZ       0.0000
       YYZ      -8.8296    XZZ      31.8271    YZZ       0.0000
       ZZZ     -30.2979
    Hexadecapole Moments (Debye-Ang^3)
      XXXX    -801.0980   XXXY      -0.0001   XXYY    -141.6065
      XYYY      -0.0001   YYYY     -60.3465   XXXZ     -13.0390
      XXYZ       0.0000   XYYZ      -8.9017   YYYZ       0.0000
      XXZZ    -147.4001   XYZZ       0.0000   YYZZ     -28.9035
      XZZZ     -23.9720   YZZZ       0.0000   ZZZZ    -136.5059
 -----------------------------------------------------------------
 Calculating analytic gradient of the SCF energy
 Gradient of AOints
            1           2           3           4           5           6
    1  -4.4721767  -4.2293910  -1.8361286  -0.4236289  -0.4236293  -3.1304278
    2  -0.0000015   0.0000001  -0.0000021   3.0832894  -3.0832904  -0.0000000
    3   0.6517988  -0.8091169  -3.2843742   2.5649316   2.5649303   1.6230998
            7           8           9          10          11
    1  15.6597398  -0.7124271  -0.7124267   0.1402474   0.1402490
    2   0.0000060  -2.6570667   2.6570676   3.1764562  -3.1764585
    3   6.9200385  -2.1750709  -2.1750703  -2.9405846  -2.9405822
 Gradient of XC Energy
            1           2           3           4           5           6
    1   0.0242448  -0.0257867   0.0095450   0.0001274   0.0001274   0.1284731
    2   0.0000000   0.0000000  -0.0000000  -0.1213504   0.1213504   0.0000000
    3   0.0282757  -0.0187034  -0.0200440  -0.0916952  -0.0916951  -0.0840810
            7           8           9          10          11
    1  -0.1394045   0.0056831   0.0056831  -0.0043464  -0.0043464
    2  -0.0000001   0.1209621  -0.1209622  -0.1226579   0.1226580
    3  -0.0927209   0.0899546   0.0899545   0.0953774   0.0953773
 Gradient of SCF Energy
            1           2           3           4           5           6
    1  -0.0000130  -0.0000236   0.0000358   0.0000353   0.0000353  -0.0000220
    2  -0.0000000  -0.0000000   0.0000000  -0.0000185   0.0000186   0.0000000
    3   0.0001410  -0.0001294  -0.0000548  -0.0000417  -0.0000418   0.0000288
            7           8           9          10          11
    1   0.0000027  -0.0000011  -0.0000011  -0.0000242  -0.0000242
    2  -0.0000000   0.0000218  -0.0000218   0.0000057  -0.0000057
    3   0.0000126   0.0000172   0.0000172   0.0000254   0.0000254
 Max gradient component =       1.410E-04
 RMS gradient           =       4.040E-05
 Gradient time:  CPU 244.79 s  wall 253.95 s
 ######################################################
 ######################################################
 # Starting finite difference calculation for IDERIV  #
 Finite diff step size: 1.89e-03 a.u.
 Writing REM_CC_EA           11
 ----------------------------------------------------
       Standard Nuclear Orientation (Angstroms)
    I     Atom         X            Y            Z
 ----------------------------------------------------
    1      C      -0.002680     0.000000     0.003700
    2      C       1.227722     0.000000     0.879508
    3      C      -1.259555     0.000000     0.829382
    4      H      -0.008388    -0.880562    -0.655659
    5      H      -0.008388     0.880563    -0.655659
    6      H       2.145342     0.000000     0.277518
    7      Cl     -2.710737    -0.000001    -0.175858
    8      H       1.258194     0.886795     1.529130
    9      H       1.258194    -0.886796     1.529130
   10      H      -1.310743    -0.888092     1.472222
   11      H      -1.310744     0.888093     1.472221
 ----------------------------------------------------
 Nuclear Repulsion Energy =   159.9949614507 hartrees
 There are       21 alpha and       21 beta electrons

                       Distance Matrix (Angstroms)
             C (  1)   C (  2)   C (  3)   H (  4)   H (  5)   H (  6)
   C (  2)  1.510274
   C (  3)  1.503824  2.487782
   H (  4)  1.100080  2.158725  2.132171
   H (  5)  1.100080  2.158725  2.132171  1.761125
   H (  6)  2.165403  1.097460  3.449330  2.506942  2.506942
   Cl(  7)  2.714004  4.077408  1.765344  2.882410  2.882410  4.877197
   H (  8)  2.168673  1.099701  2.759549  3.082383  2.525385  1.771996
   H (  9)  2.168673  1.099701  2.759549  2.525385  3.082383  1.771996
   H ( 10)  2.157845  2.753874  1.097529  2.494807  3.058127  3.763050
   H ( 11)  2.157845  2.753874  1.097529  3.058127  2.494806  3.763051
             Cl(  7)   H (  8)   H (  9)   H ( 10)
   H (  8)  4.409740
   H (  9)  4.409739  1.773591
   H ( 10)  2.337703  3.122963  2.569567
   H ( 11)  2.337703  2.569568  3.122964  1.776184
 
 Requested basis set is G3large
 There are 91 shells and 262 basis functions
 A cutoff of  1.0D-11 yielded   3890 shell pairs
 There are  32052 function pairs ( 40003 Cartesian)
Evaluating contribution to one-electron hamiltonian from nuclear
 Smallest overlap matrix eigenvalue = 2.44E-05
 Multipole matrices computed through 2nd order
 Guess MOs from SCF MO coefficient file
Reading MOs from coefficient file
Reading MOs from coefficient file
 A restricted hybrid HF-DFT SCF calculation will be
 performed using Pulay DIIS extrapolation
 Exchange:     1.0000 Hartree-Fock + 1.0000 BNL
 Correlation:  1.0000 LYP
 Using SG-1 standard quadrature grid
 SCF converges when DIIS error is below 1.0E-08
 ---------------------------------------
  Cycle       Energy         DIIS Error
 ---------------------------------------
    1    -575.4348978952      2.28E-05
    2    -575.4349440865      2.76E-06
    3    -575.4349440758      1.88E-06
    4    -575.4349440422      3.47E-07
    5    -575.4349440553      7.55E-08
    6    -575.4349441014      3.04E-08
    7    -575.4349441066      5.85E-09 Convergence criterion met
 ---------------------------------------
 One-Electron    Energy = -1110.7948105247
 Total Coulomb   Energy =   419.0243123856
 Alpha Exchange  Energy =    -4.1385415891
 Beta  Exchange  Energy =    -4.1385415891
 DFT   Exchange  Energy =   -33.8792586670
 DFT Correlation Energy =    -1.5030655730
 Nuclear Repu.   Energy =   159.9949614507
 Nuclear Attr.   Energy = -1684.7677003437
 Kinetic         Energy =   573.9728898189
 SCF time:  CPU 225.87 s  wall 273.79 s
 Final Alpha MO Eigenvalues
            1           2           3           4           5           6
    1-100.4703248 -10.0228227  -9.9754564  -9.9665383  -9.3239958  -7.1779261
            7           8           9          10          11          12
    1  -7.1674652  -7.1672848  -1.0025327  -0.9150494  -0.7985919  -0.7258819
           13          14          15          16          17          18
    1  -0.6158145  -0.5698597  -0.5522017  -0.5307288  -0.4807146  -0.4731045
           19          20          21          22          23          24
    1  -0.4526766  -0.4059168  -0.4043335   0.0293289   0.0475066   0.0503266
           25          26
    1   0.0530202   0.0795928
 Analysis of SCF Wavefunction
 
 --------------------------------------------------------------
                    Orbital Energies (a.u.)
 --------------------------------------------------------------
 
 Alpha MOs
 -- Occupied --
******* -10.023  -9.975  -9.967  -9.324  -7.178  -7.167  -7.167
 -1.003  -0.915  -0.799  -0.726  -0.616  -0.570  -0.552  -0.531
 -0.481  -0.473  -0.453  -0.406  -0.404
 -- Virtual --
  0.029   0.048   0.050   0.053   0.080   0.080   0.086   0.090
  0.112   0.127   0.147   0.153   0.157   0.158   0.161   0.173
  0.179   0.182   0.192   0.203   0.209   0.211   0.220   0.239
  0.258   0.259   0.269   0.285   0.306   0.338   0.353   0.360
  0.381   0.393   0.434   0.452   0.457   0.487   0.508   0.524
  0.528   0.553   0.560   0.585   0.591   0.619   0.625   0.649
  0.650   0.652   0.664   0.674   0.679   0.722   0.731   0.756
  0.776   0.803   0.805   0.845   0.864   0.902   0.923   0.936
  0.986   0.988   1.064   1.072   1.121   1.139   1.163   1.170
  1.190   1.191   1.197   1.220   1.229   1.250   1.261   1.268
  1.285   1.303   1.314   1.345   1.371   1.374   1.392   1.399
  1.437   1.476   1.491   1.491   1.518   1.536   1.548   1.561
  1.587   1.593   1.620   1.645   1.670   1.677   1.701   1.707
  1.731   1.770   1.804   1.828   1.889   2.308   2.322   2.468
  2.529   2.617   2.631   2.716   2.746   2.778   2.865   2.880
  2.906   2.907   2.964   2.969   3.037   3.048   3.144   3.148
  3.172   3.186   3.232   3.240   3.330   3.358   3.376   3.426
  3.440   3.450   3.451   3.474   3.515   3.563   3.641   3.664
  3.689   3.751   3.763   3.783   3.796   3.834   3.864   3.929
  3.943   4.012   4.068   4.077   4.090   4.120   4.167   4.200
  4.281   4.311   4.345   4.367   4.387   4.389   4.437   4.462
  4.467   4.482   4.509   4.525   4.539   4.570   4.625   4.656
  4.672   4.675   4.712   4.747   4.759   4.765   4.865   4.905
  5.025   5.135   5.150   5.301   5.329   5.377   5.533   5.597
  5.715   5.785   5.789   5.836   5.899   9.914  20.620  20.628
 20.868  24.193  24.371  24.520  27.156  27.210  27.248  27.304
 27.309  27.730  27.879  28.141  28.163  28.179  28.225  28.306
 28.449  28.527  36.892  36.892  36.898  36.901  36.905  36.908
 36.922  40.881  40.921  40.930  40.939  41.004  41.028  41.221
 41.238  41.263  41.269  41.296  41.339  41.342  41.343  41.417
216.386
 --------------------------------------------------------------
 
          Ground-State Mulliken Net Atomic Charges

     Atom                 Charge (a.u.)
  ----------------------------------------
      1 C                    -0.071534
      2 C                    -0.487596
      3 C                    -0.053100
      4 H                     0.133990
      5 H                     0.133990
      6 H                     0.135447
      7 Cl                   -0.295604
      8 H                     0.123393
      9 H                     0.123393
     10 H                     0.128810
     11 H                     0.128810
  ----------------------------------------
  Sum of atomic charges =     0.000000

 -----------------------------------------------------------------
                    Cartesian Multipole Moments
 -----------------------------------------------------------------
    Charge (ESU x 10^10)
                 0.0000
    Dipole Moment (Debye)
         X       1.9301      Y       0.0000      Z       0.9899
       Tot       2.1691
    Quadrupole Moments (Debye-Ang)
        XX     -40.0953     XY       0.0000     YY     -33.4012
        XZ      -1.3323     YZ       0.0000     ZZ     -33.0455
    Octapole Moments (Debye-Ang^2)
       XXX     117.6718    XXY       0.0000    XYY      34.0218
       YYY       0.0000    XXZ     -11.6145    XYZ       0.0000
       YYZ      -8.8295    XZZ      31.8243    YZZ       0.0000
       ZZZ     -30.2971
    Hexadecapole Moments (Debye-Ang^3)
      XXXX    -801.0711   XXXY      -0.0001   XXYY    -141.6052
      XYYY      -0.0001   YYYY     -60.3467   XXXZ     -13.0390
      XXYZ       0.0000   XYYZ      -8.8993   YYYZ       0.0000
      XXZZ    -147.4005   XYZZ       0.0000   YYZZ     -28.9039
      XZZZ     -23.9642   YZZZ       0.0000   ZZZZ    -136.5067
 -----------------------------------------------------------------
 Calculating analytic gradient of the SCF energy
 Gradient of AOints
            1           2           3           4           5           6
    1  -4.4849725  -4.2280535  -1.8364727  -0.4179973  -0.4179976  -3.1295194
    2  -0.0000015   0.0000001  -0.0000021   3.0829664  -3.0829675  -0.0000000
    3   0.6520467  -0.8132015  -3.2807764   2.5647517   2.5647503   1.6241044
            7           8           9          10          11
    1  15.6586913  -0.7123149  -0.7123144   0.1404746   0.1404763
    2   0.0000060  -2.6574888   2.6574897   3.1759601  -3.1759624
    3   6.9196234  -2.1754562  -2.1754555  -2.9401947  -2.9401923
 Gradient of XC Energy
            1           2           3           4           5           6
    1   0.0245985  -0.0257700   0.0096060  -0.0000572  -0.0000572   0.1284479
    2   0.0000000   0.0000000  -0.0000000  -0.1213443   0.1213443   0.0000000
    3   0.0282665  -0.0185615  -0.0201596  -0.0916917  -0.0916917  -0.0841071
            7           8           9          10          11
    1  -0.1394270   0.0056805   0.0056804  -0.0043509  -0.0043510
    2  -0.0000001   0.1209707  -0.1209707  -0.1226490   0.1226491
    3  -0.0927214   0.0899614   0.0899614   0.0953719   0.0953719
 Gradient of SCF Energy
            1           2           3           4           5           6
    1   0.0009142  -0.0003532  -0.0002814  -0.0000496  -0.0000496  -0.0000603
    2  -0.0000000  -0.0000000   0.0000000  -0.0000186   0.0000186   0.0000000
    3   0.0001424  -0.0002592   0.0000908  -0.0000396  -0.0000396  -0.0000073
            7           8           9          10          11
    1  -0.0000585  -0.0000029  -0.0000029  -0.0000278  -0.0000278
    2  -0.0000000   0.0000210  -0.0000210   0.0000063  -0.0000063
    3   0.0000195   0.0000164   0.0000164   0.0000301   0.0000301
 Max gradient component =       9.142E-04
 RMS gradient           =       1.872E-04
 Gradient time:  CPU 244.27 s  wall 266.24 s
 Writing REM_CC_EA           11
 ----------------------------------------------------
       Standard Nuclear Orientation (Angstroms)
[...]
Order 1, Length 33
   0.0004410   0.0017874  -0.0011630   0.0034273  -0.2202056   0.1249097  -0.0002578   0.0002067  -0.0001573   0.0004604   0.0007019  -0.0000042  -0.0004095   0.0013866  -0.0002319  -0.0003609   0.0009238  -0.0016158  -0.0000134   0.0001099  -0.0002208  -0.0001559  -0.0184648   0.0149859  -0.0037089   0.2336498  -0.1365721   0.0005932   0.0000690  -0.0000518  -0.0000167  -0.0001710   0.0001180
Order 1, Length 33
  -0.0004184   0.0157786  -0.0120751  -0.0023129   0.1237425  -0.1347902   0.0008879  -0.0003256   0.0005180   0.0006313  -0.0000866   0.0000505  -0.0033478  -0.0006025  -0.0012100  -0.0013732   0.0134882  -0.0096663   0.0001883  -0.0002846   0.0001494   0.0001968  -0.0149840   0.0121514   0.0061356  -0.1365721   0.1443241  -0.0005381  -0.0000512   0.0005627  -0.0000505  -0.0000980  -0.0000086
Order 1, Length 33
  -0.0019243  -0.0229109   0.0161695   0.0021059  -0.0005838   0.0007058  -0.0412361  -0.0098419   0.0108537   0.0009488   0.0004287  -0.0006324  -0.0043473   0.0003608   0.0028360   0.0002311   0.0002602  -0.0000922  -0.0111932   0.0165809  -0.0204418  -0.0000226   0.0000179  -0.0000496  -0.0003374   0.0005932  -0.0005381   0.0546572   0.0132680  -0.0086422   0.0011154   0.0018236  -0.0001718
Order 1, Length 33
   0.0003183   0.0018715  -0.0011978  -0.0000852   0.0002910  -0.0003644  -0.0102882  -0.2315126   0.1265886  -0.0003753   0.0008736  -0.0000455   0.0003643   0.0014333  -0.0003809  -0.0000867   0.0001881  -0.0002408  -0.0007911   0.0049163  -0.0033825   0.0000159  -0.0001700   0.0000954  -0.0005201   0.0000690  -0.0000512   0.0132680   0.2402178  -0.1352601  -0.0018239  -0.0181847   0.0142383
Order 1, Length 33
   0.0024734   0.0157001  -0.0104361  -0.0008101  -0.0003647   0.0007132   0.0124111   0.1250211  -0.1342146  -0.0008244   0.0000518   0.0002088   0.0028542  -0.0001893  -0.0011539  -0.0001281  -0.0003413   0.0000049  -0.0076777   0.0097975  -0.0114527   0.0000867  -0.0001195  -0.0000075   0.0004297  -0.0000518   0.0005627  -0.0086422  -0.1352601   0.1436110  -0.0001708  -0.0142394   0.0121653
Order 1, Length 33
  -0.0019238   0.0229032   0.0161682   0.0021057   0.0005801   0.0007052  -0.0412393   0.0098342   0.0108576  -0.0043471  -0.0003576   0.0028376   0.0009475  -0.0004270  -0.0006330   0.0002311  -0.0002605  -0.0000922  -0.0111914  -0.0165775  -0.0204446  -0.0003395  -0.0005922  -0.0005367  -0.0000197  -0.0000167  -0.0000505   0.0011154  -0.0018239  -0.0001708   0.0546560  -0.0132619  -0.0086404
Order 1, Length 33
  -0.0003213   0.0018726   0.0011970   0.0000868   0.0002900   0.0003684   0.0102798  -0.2315057  -0.1265838  -0.0003651   0.0014321   0.0003788   0.0003746   0.0008752   0.0000416   0.0000892   0.0001890   0.0002389   0.0007979   0.0049040   0.0033784   0.0005180   0.0000704   0.0000497  -0.0000193  -0.0001710  -0.0000980   0.0018236  -0.0181847  -0.0142394  -0.0132619   0.2402207   0.1352646
Order 1, Length 33
   0.0024733  -0.0156951  -0.0104371  -0.0008122   0.0003671   0.0007153   0.0124110  -0.1250228  -0.1342109   0.0028547   0.0001862  -0.0011542  -0.0008246  -0.0000538   0.0002078  -0.0001260   0.0003425   0.0000037  -0.0076770  -0.0098016  -0.0114544   0.0004276   0.0000501   0.0005603   0.0000858   0.0001180  -0.0000086  -0.0001718   0.0142383   0.0121653  -0.0086404   0.1352646   0.1436123


 # Finishing finite difference calculation for IDERIV #
 ######################################################
 ######################################################
 Requested basis set is G3large
 There are 91 shells and 262 basis functions
 **********************************************************************
 **                                                                  **
 **                       VIBRATIONAL ANALYSIS                       **
 **                       --------------------                       **
 **                                                                  **
 **        VIBRATIONAL FREQUENCIES (CM**-1) AND NORMAL MODES         **
 **     FORCE CONSTANTS (mDYN/ANGSTROM) AND REDUCED MASSES (AMU)     **
 **                  INFRARED INTENSITIES (KM/MOL)                   **
 **                                                                  **
 **********************************************************************
 

 Mode:                 1                      2                      3
 Frequency:       115.97                 230.96                 242.23
 Force Cnst:      0.0197                 0.0343                 0.1071
 Red. Mass:       2.4820                 1.0929                 3.0992
 IR Active:          YES                    YES                    YES
 IR Intens:        1.466                  0.010                  1.525
 Raman Active:       YES                    YES                    YES
               X      Y      Z        X      Y      Z        X      Y      Z
 C          0.000  0.173  0.000    0.000 -0.080  0.000   -0.153  0.000  0.176
 C          0.000 -0.175  0.000    0.000  0.020  0.000    0.074  0.000 -0.161
 C          0.000  0.224  0.000    0.000  0.023  0.000   -0.121  0.000  0.222
 H         -0.136  0.270 -0.128    0.009 -0.138  0.077   -0.280  0.011  0.161
 H          0.136  0.270  0.128   -0.008 -0.138 -0.077   -0.280 -0.012  0.160
 H          0.000 -0.104  0.000    0.000  0.602  0.001   -0.124  0.003 -0.466
 Cl         0.000 -0.087  0.000    0.000  0.011  0.000    0.083  0.000 -0.078
 H          0.094 -0.357  0.245   -0.331 -0.217  0.342    0.290  0.002 -0.175
 H         -0.094 -0.357 -0.245    0.330 -0.217 -0.342    0.294 -0.005 -0.179
 H          0.075  0.324  0.145   -0.041  0.088  0.086   -0.200 -0.009  0.204
 H         -0.075  0.324 -0.145    0.042  0.088 -0.087   -0.200  0.010  0.203
 TransDip   0.000  0.039  0.000    0.000  0.003  0.000   -0.033  0.000  0.021

 Mode:                 4                      5                      6
 Frequency:       377.62                 747.67                 802.26
 Force Cnst:      0.3576                 0.3553                 1.4876
 Red. Mass:       4.2558                 1.0788                 3.9227
 IR Active:          YES                    YES                    YES
 IR Intens:        1.752                  5.187                 22.764
 Raman Active:       YES                    YES                    YES
               X      Y      Z        X      Y      Z        X      Y      Z
 C         -0.171  0.000 -0.153    0.000  0.064  0.000    0.053  0.000 -0.085
 C         -0.329  0.000 -0.033    0.000  0.014  0.000    0.011  0.000 -0.046
 C          0.036  0.000  0.054    0.000  0.045  0.000    0.264  0.000  0.343
 H         -0.240 -0.011 -0.135   -0.024 -0.275  0.447   -0.172 -0.016 -0.055
 H         -0.240  0.011 -0.135    0.024 -0.275 -0.447   -0.172  0.016 -0.055
 H         -0.173  0.000  0.211    0.000 -0.097  0.000    0.287  0.000  0.382
 Cl         0.200  0.000  0.045    0.000 -0.006  0.000   -0.108  0.000 -0.098
 H         -0.511 -0.007 -0.014    0.163 -0.117  0.169   -0.309 -0.027  0.010
 H         -0.511  0.007 -0.014   -0.163 -0.117 -0.169   -0.309  0.027  0.010
 H          0.135 -0.005  0.057    0.127 -0.187 -0.310    0.251 -0.041  0.286
 H          0.135  0.005  0.057   -0.127 -0.187  0.309    0.251  0.041  0.287
 TransDip  -0.041  0.000 -0.009    0.000 -0.073  0.000    0.129  0.000  0.081

 Mode:                 7                      8                      9
 Frequency:       865.04                 931.14                1084.43
 Force Cnst:      0.5198                 0.9022                 1.5470
 Red. Mass:       1.1789                 1.7662                 2.2328
 IR Active:          YES                    YES                    YES
 IR Intens:        0.201                 16.641                  1.405
 Raman Active:       YES                    YES                    YES
               X      Y      Z        X      Y      Z        X      Y      Z
 C          0.000 -0.030  0.000   -0.004  0.000  0.096    0.209  0.000  0.135
 C          0.000 -0.059  0.000   -0.161  0.000  0.026   -0.109  0.000 -0.186
 C          0.000  0.103  0.000    0.172  0.000 -0.022   -0.052  0.000  0.020
 H         -0.331  0.047 -0.098    0.179 -0.011  0.116    0.379  0.001  0.140
 H          0.331  0.046  0.098    0.179  0.011  0.116    0.380 -0.001  0.139
 H          0.000  0.212  0.000   -0.537  0.000 -0.547    0.028  0.000  0.038
 Cl         0.000 -0.012  0.000   -0.025  0.000 -0.019    0.001  0.000  0.008
 H         -0.303  0.140 -0.252    0.232  0.054 -0.074   -0.433 -0.014 -0.158
 H          0.303  0.140  0.252    0.232 -0.054 -0.074   -0.433  0.015 -0.157
 H          0.053 -0.171 -0.376    0.252 -0.010 -0.032   -0.255  0.021  0.039
 H         -0.053 -0.171  0.376    0.252  0.010 -0.032   -0.256 -0.021  0.038
 TransDip   0.000  0.014  0.000    0.130  0.000 -0.016   -0.038  0.000 -0.002

 Mode:                10                     11                     12
 Frequency:      1090.22                1137.03                1233.94
 Force Cnst:      0.8833                 1.6597                 1.2016
 Red. Mass:       1.2614                 2.1789                 1.3394
 IR Active:          YES                    YES                    YES
 IR Intens:        1.173                  0.873                  0.059
 Raman Active:       YES                    YES                    YES
               X      Y      Z        X      Y      Z        X      Y      Z
 C          0.000  0.090  0.000   -0.082  0.000  0.205    0.000 -0.130  0.000
 C          0.000 -0.064  0.000    0.050  0.000 -0.078    0.000  0.112  0.000
 C          0.000 -0.100  0.000    0.147  0.000 -0.165    0.000  0.024  0.000
 H         -0.201 -0.068  0.207   -0.470  0.006  0.207   -0.282  0.059 -0.256
 H          0.200 -0.068 -0.207   -0.470 -0.006  0.207    0.282  0.059  0.256
 H          0.000  0.134  0.000    0.244  0.000  0.234    0.000 -0.225  0.000
 Cl         0.000  0.017  0.000   -0.008  0.000  0.004    0.000  0.007  0.000
 H         -0.168  0.067 -0.166   -0.280 -0.064  0.031    0.184 -0.080  0.244
 H          0.169  0.067  0.166   -0.280  0.064  0.031   -0.184 -0.080 -0.244
 H          0.485  0.080  0.300    0.077 -0.007 -0.192    0.459 -0.023 -0.015
 H         -0.485  0.080 -0.300    0.077  0.007 -0.192   -0.459 -0.023  0.015
 TransDip   0.000  0.035  0.000   -0.024  0.000  0.018    0.000  0.008  0.000

 Mode:                13                     14                     15
 Frequency:      1276.31                1300.11                1371.58
 Force Cnst:      1.1962                 1.0976                 1.6171
 Red. Mass:       1.2463                 1.1021                 1.4590
 IR Active:          YES                    YES                    YES
 IR Intens:        7.688                  0.008                 16.986
 Raman Active:       YES                    YES                    YES
               X      Y      Z        X      Y      Z        X      Y      Z
 C         -0.076  0.000  0.044    0.000 -0.039  0.000    0.162  0.000  0.009
 C          0.028  0.000 -0.049    0.000 -0.045  0.000    0.011  0.000  0.061
 C         -0.102  0.000 -0.007    0.000  0.071  0.000   -0.103  0.000 -0.016
 H          0.296  0.001  0.044    0.573  0.017 -0.076   -0.445  0.049 -0.064
 H          0.297 -0.001  0.044   -0.572  0.017  0.076   -0.445 -0.049 -0.064
 H          0.151  0.000  0.139    0.000  0.042  0.000   -0.207  0.000 -0.262
 Cl        -0.001  0.000 -0.010    0.000  0.003  0.000   -0.001  0.000 -0.003
 H         -0.064 -0.063  0.051   -0.079  0.017 -0.085   -0.163  0.180 -0.193
 H         -0.064  0.063  0.051    0.079  0.017  0.085   -0.163 -0.180 -0.193
 H          0.602  0.009  0.072    0.369 -0.027 -0.104    0.321  0.068  0.128
 H          0.602 -0.009  0.072   -0.368 -0.027  0.104    0.321 -0.068  0.127
 TransDip  -0.062  0.000 -0.063    0.000 -0.003  0.000   -0.109  0.000 -0.074

 Mode:                16                     17                     18
 Frequency:      1398.04                1455.73                1458.99
 Force Cnst:      1.6390                 1.3173                 1.3949
 Red. Mass:       1.4233                 1.0551                 1.1122
 IR Active:          YES                    YES                    YES
 IR Intens:        3.655                  3.664                  1.718
 Raman Active:       YES                    YES                    YES
               X      Y      Z        X      Y      Z        X      Y      Z
 C          0.100  0.000  0.018   -0.004  0.000 -0.044   -0.046  0.000 -0.009
 C         -0.146  0.000 -0.071   -0.007  0.000  0.028   -0.003  0.000  0.021
 C         -0.033  0.000 -0.009   -0.019  0.000  0.034    0.036  0.000 -0.075
 H         -0.214  0.008  0.012    0.009 -0.282  0.353    0.070 -0.086  0.113
 H         -0.214 -0.008  0.012    0.009  0.282  0.353    0.070  0.086  0.113
 H          0.229  0.000  0.480    0.104  0.000  0.179    0.111 -0.001  0.179
 Cl        -0.001  0.000  0.000    0.002  0.000  0.002   -0.002  0.000 -0.002
 H          0.509 -0.131  0.092    0.049  0.241 -0.315    0.053  0.186 -0.243
 H          0.509  0.131  0.092    0.049 -0.242 -0.315    0.055 -0.186 -0.244
 H          0.086  0.021  0.031    0.044 -0.205 -0.261   -0.079  0.372  0.455
 H          0.086 -0.021  0.031    0.044  0.205 -0.261   -0.079 -0.372  0.455
 TransDip   0.045  0.000  0.041    0.058  0.000 -0.020   -0.001  0.000  0.042

 Mode:                19                     20                     21
 Frequency:      1460.94                1473.56                3020.41
 Force Cnst:      1.3027                 1.4099                 5.5822
 Red. Mass:       1.0359                 1.1020                 1.0385
 IR Active:          YES                    YES                    YES
 IR Intens:       12.798                 16.150                 12.425
 Raman Active:       YES                    YES                    YES
               X      Y      Z        X      Y      Z        X      Y      Z
 C          0.000 -0.024  0.000    0.034  0.000 -0.078   -0.001  0.000 -0.004
 C          0.000 -0.045  0.000    0.015  0.000 -0.025    0.035  0.000  0.039
 C          0.000  0.003  0.000   -0.015  0.000 -0.016    0.000  0.000 -0.001
 H         -0.032 -0.001 -0.035   -0.084 -0.335  0.386    0.001  0.026  0.019
 H          0.032  0.000  0.036   -0.084  0.335  0.386    0.001 -0.026  0.019
 H          0.000  0.694  0.000   -0.129  0.000 -0.230   -0.383  0.000  0.264
 Cl         0.000  0.000  0.000    0.000  0.000 -0.001    0.000  0.000  0.000
 H          0.489  0.042 -0.117   -0.061 -0.244  0.322   -0.010 -0.508 -0.361
 H         -0.489  0.041  0.116   -0.061  0.244  0.322   -0.010  0.508 -0.362
 H          0.027 -0.004 -0.003    0.008  0.096  0.127    0.001 -0.012  0.008
 H         -0.028 -0.005  0.004    0.008 -0.096  0.127    0.001  0.012  0.008
 TransDip   0.000  0.115  0.000   -0.058  0.000  0.115    0.081  0.000  0.078

 Mode:                22                     23                     24
 Frequency:      3034.20                3059.28                3071.17
 Force Cnst:      5.7620                 5.8418                 6.1414
 Red. Mass:       1.0623                 1.0594                 1.1051
 IR Active:          YES                    YES                    YES
 IR Intens:        5.646                 15.180                  0.253
 Raman Active:       YES                    YES                    YES
               X      Y      Z        X      Y      Z        X      Y      Z
 C         -0.001  0.000  0.069    0.001  0.000  0.009    0.000 -0.082  0.000
 C          0.005  0.000 -0.004    0.003  0.000 -0.001    0.000  0.041  0.000
 C          0.002  0.000 -0.010   -0.007  0.000  0.067    0.000  0.020  0.000
 H          0.000 -0.566 -0.404    0.001 -0.079 -0.058   -0.001  0.491  0.370
 H          0.000  0.567 -0.404    0.001  0.079 -0.057    0.001  0.491 -0.370
 H         -0.068  0.000  0.051   -0.032  0.000  0.020    0.000  0.009  0.000
 Cl         0.000  0.000  0.000    0.000  0.000  0.000    0.000  0.000  0.000
 H          0.001 -0.003 -0.004   -0.002 -0.006 -0.005   -0.003 -0.247 -0.183
 H          0.001  0.002 -0.004   -0.002  0.006 -0.005    0.003 -0.247  0.183
 H         -0.005 -0.083  0.056    0.037  0.576 -0.394   -0.007 -0.123  0.089
 H         -0.005  0.082  0.056    0.037 -0.575 -0.393    0.007 -0.123 -0.089
 TransDip   0.005  0.000  0.076    0.054  0.000  0.112    0.000 -0.016  0.000

 Mode:                25                     26                     27
 Frequency:      3094.43                3109.44                3116.77
 Force Cnst:      6.2308                 6.2799                 6.3511
 Red. Mass:       1.1044                 1.1024                 1.1097
 IR Active:          YES                    YES                    YES
 IR Intens:       14.768                 11.206                  6.339
 Raman Active:       YES                    YES                    YES
               X      Y      Z        X      Y      Z        X      Y      Z
 C          0.000 -0.036  0.000    0.000  0.000  0.006    0.000 -0.029  0.000
 C          0.000 -0.083  0.000   -0.059  0.000  0.071    0.000 -0.013  0.000
 C          0.000  0.025  0.000    0.000  0.000  0.001    0.000 -0.091  0.000
 H          0.004  0.214  0.161   -0.001 -0.044 -0.033   -0.003  0.171  0.129
 H         -0.004  0.214 -0.161   -0.001  0.044 -0.033    0.003  0.171 -0.129
 H          0.000 -0.015  0.000    0.733  0.000 -0.486    0.002  0.000 -0.001
 Cl         0.000  0.000  0.000    0.000  0.000  0.000    0.000  0.000  0.000
 H          0.013  0.502  0.373   -0.016 -0.269 -0.182    0.005  0.080  0.061
 H         -0.013  0.502 -0.373   -0.016  0.269 -0.182   -0.005  0.081 -0.062
 H         -0.008 -0.147  0.105    0.002  0.010 -0.007    0.040  0.537 -0.386
 H          0.008 -0.147 -0.105    0.002 -0.012 -0.008   -0.040  0.537  0.386
 TransDip   0.000 -0.123  0.000   -0.070  0.000  0.081    0.000 -0.081  0.000

 STANDARD THERMODYNAMIC QUANTITIES AT   298.18 K  AND     1.00 ATM

   This Molecule has  0 Imaginary Frequencies
   Zero point vibrational energy:       59.412 kcal/mol

   Atom    1 Element C  Has Mass   12.00000
   Atom    2 Element C  Has Mass   12.00000
   Atom    3 Element C  Has Mass   12.00000
   Atom    4 Element H  Has Mass    1.00783
   Atom    5 Element H  Has Mass    1.00783
   Atom    6 Element H  Has Mass    1.00783
   Atom    7 Element Cl Has Mass   34.96885
   Atom    8 Element H  Has Mass    1.00783
   Atom    9 Element H  Has Mass    1.00783
   Atom   10 Element H  Has Mass    1.00783
   Atom   11 Element H  Has Mass    1.00783
   Molecular Mass:    78.023660 amu
   Principal axes and moments of inertia in atomic units:
                             1           2           3
    Eigenvalues --       68.75251   743.26548   778.17988
          X               0.97507    -0.22191     0.00000
          Y               0.00000     0.00000     1.00000
          Z               0.22191     0.97507     0.00000
   Rotational Symmetry Number is   1
   The Molecule is an Asymmetric Top
   Translational Enthalpy:        0.889 kcal/mol
   Rotational Enthalpy:           0.889 kcal/mol
   Vibrational Enthalpy:         60.969 kcal/mol
   gas constant (RT):             0.593 kcal/mol
   Translational Entropy:        38.979  cal/mol.K
   Rotational Entropy:           25.190  cal/mol.K
   Vibrational Entropy:           8.990  cal/mol.K

   Total Enthalpy:               63.339 kcal/mol
   Total Entropy:                73.158  cal/mol.K
 Total job time:  31167.19s(wall), 30506.20s(cpu) 
 Sun Apr 24 15:26:55 2011

        *************************************************************
        *                                                           *
        *  Thank you very much for using Q-Chem.  Have a nice day.  *
        *                                                           *
        *************************************************************


0 sent ACK to 0 
now end server 0 ... 
