Process 0 of 1 is on cl193.stfx.acenet.ca - thread support 1
initial socket setup ...start
initial socket setup ...done 
now start server 0 ... 

cmd = /usr/bin/ssh clhead /usr/local/qchem/bin/get_hostid 745997138 > /scratch/tmp/4503919.1.medium.q/qchem23579/lic.dat
                  Welcome to Q-Chem
     A Quantum Leap Into The Future Of Chemistry

 Y. Shao, L. Fusti-Molnar, Y. Jung, J. Kussmann, C. Ochsenfeld,
 S. T. Brown, A. T. B. Gilbert, L. V. Slipchenko,S. V. Levchenko,
 D. P. O'Neill, R. A. DiStasio Jr., R. C. Lochan, T. Wang,
 G. J. O. Beran, N. A. Besley, J. M. Herbert, C. Y. Lin,
 T. Van Voorhis, S. H. Chien, A. Sodt, R. P. Steele, 
 V. A. Rassolov, P. E. Maslen, P. P. Korambath, R. D. Adamson,
 B. Austin, J. Baker, E. F. C. Byrd, H. Dachsel, R. J. Doerksen,
 A. Dreuw, B. D. Dunietz, A. D. Dutoi, T. R. Furlani,
 S. R. Gwaltney, A. Heyden, S. Hirata, C.-P. Hsu, G. Kedziora,
 R. Z. Khaliullin, P. Klunzinger, A. M. Lee, M. S. Lee, W. Liang,
 I. Lotan, N. Nair, B. Peters, E. I. Proynov, P. A. Pieniazek, 
 Y. M. Rhee, J. Ritchie, E. Rosta, C. D. Sherrill, 
 A. C. Simmonett, J. E. Subotnik, H. L. Woodcock III,
 W. Zhang, A. T. Bell, A. K. Chakraborty, D. M. Chipman,
 F. J. Keil, A. Warshel, W. J. Hehre, H. F. Schaefer III,
 J. Kong, A. I. Krylov, P. M. W. Gill, M. Head-Gordon,
 Q-Chem, Version 3.1, Q-Chem, Inc., Pittsburgh, PA (2007).

 Additional authors for Version 3.1: 
 Z. Gan, Y. Zhao, N. E. Schultz, D. Truhlar, E. Epifanovsky and M. Oana.

 Additional authors for Version 3.2: 
 R. Baer, B. R. Brooks, D. Casanova, J.-D. Chai, C.-L. Cheng, 
 C. Cramer, D. Crittenden, A. Ghysels, G. Hawkins, E. G. Hohenstein, 
 C. Kelley, W. Kurlancheek, D. Liotard, E. Livshits, P. Manohar, 
 A. Marenich, D. Neuhauser, R. Olson, M. A. Rohrdanz, K. S. Thanthiriwatte, 
 A. J. W. Thom, V. Vanovschi, C. F. Williams, Q. Wu and Z.-Q. You. 


 Intel X86 Linux Version

 Q-chem begins on Sun Apr 17 20:07:30 2011  

 Parallel job on  1  processors
Processing $rem in /usr/local/qchem/config/preferences.

theFileMan(): MAXOPENFILES=974 MAX_SUB_FILE_NUM=16
Maximum size of a physical file is 2.0 GB, maximum size of a tmp-file is 32.0 GB


--------------------------------------------------------------
User input:
--------------------------------------------------------------

$molecule
0,1
Si
F,1,sif
F,1,sif,2,109.47122063
F,1,sif,2,109.47122063,3,120.,0
F,1,sif,2,109.47122063,3,-120.,0

 sif=1.57895122

$end

$comment
neutral
$end

$xc_functional
   X HF 1.0
   X BNL 1.0
   C LYP 1.0
$end

$rem
SYMMETRY_DECOMPOSITION	0
exchange 		general
BASIS                   g3large
omega			580 
JOBTYPE                 opt
separate_jk		true
mem_static              760
max_scf_cycles          200
scf_final_print         1
sym_ignore              true
$end


--------------------------------------------------------------
 Writing REM_CC_EA            5
 ----------------------------------------------------
       Standard Nuclear Orientation (Angstroms)
    I     Atom         X            Y            Z
 ----------------------------------------------------
    1      Si      0.000000     0.000000     0.000000
    2      F       0.000000     0.000000     1.578951
    3      F       1.488649     0.000000    -0.526317
    4      F      -0.744325    -1.289208    -0.526317
    5      F      -0.744325     1.289208    -0.526317
 ----------------------------------------------------
 Nuclear Repulsion Energy =   268.6563891850 hartrees
 There are       25 alpha and       25 beta electrons
 Requested basis set is G3large
 There are 59 shells and 234 basis functions

Total QAlloc Memory Limit   2000 MB
Mega-Array Size       743 MB
MEM_STATIC part       760 MB
 A cutoff of  1.0D-11 yielded   1512 shell pairs
 There are  24303 function pairs ( 32656 Cartesian)
Evaluating contribution to one-electron hamiltonian from nuclear
 Smallest overlap matrix eigenvalue = 1.53E-04
 Multipole matrices computed through 2nd order

  Scale SEOQF with 1.000000e-01/1.000000e-01/1.000000e-01

 Standard Electronic Orientation quadrupole field applied
 Guess from superposition of atomic densities
 Warning:  Energy on first SCF cycle will be non-variational
 A restricted hybrid HF-DFT SCF calculation will be
 performed using Pulay DIIS extrapolation
 Exchange:     1.0000 Hartree-Fock + 1.0000 BNL
 Correlation:  1.0000 LYP
 Using SG-1 standard quadrature grid
 SCF converges when DIIS error is below 1.0E-08
 ---------------------------------------
  Cycle       Energy         DIIS Error
 ---------------------------------------
    1    -685.5032608648      2.86E-02
    2    -684.9914441430      4.99E-03
    3    -685.0355427681      4.51E-03
    4    -685.1029626171      3.73E-04
    5    -685.1036043135      9.54E-05
    6    -685.1036687594      4.16E-05
    7    -685.1036760351      1.50E-05
    8    -685.1036772546      2.69E-06
    9    -685.1036773131      5.41E-07
   10    -685.1036773167      7.25E-08
   11    -685.1036773167      1.90E-08
   12    -685.1036773166      8.99E-09 Convergence criterion met
 ---------------------------------------
 One-Electron    Energy = -1492.4658539172
 Total Coulomb   Energy =   597.3340219030
 Alpha Exchange  Energy =    -7.2359012338
 Beta  Exchange  Energy =    -7.2359012338
 DFT   Exchange  Energy =   -42.2023433541
 DFT Correlation Energy =    -1.9540886658
 Nuclear Repu.   Energy =   268.6563891850
 Nuclear Attr.   Energy = -2175.3179902315
 Kinetic         Energy =   682.8521363143
 SCF time:  CPU 204.67 s  wall 206.70 s
 Final Alpha MO Eigenvalues
            1           2           3           4           5           6
    1 -65.5765619 -24.4111047 -24.4110925 -24.4110640 -24.4110580  -5.4898200
            7           8           9          10          11          12
    1  -3.9114464  -3.9114221  -3.9114177  -1.4656336  -1.4222256  -1.4222103
           13          14          15          16          17          18
    1  -1.4221933  -0.8091527  -0.7360475  -0.7360393  -0.7360358  -0.6820943
           19          20          21          22          23          24
    1  -0.6820937  -0.6685768  -0.6685714  -0.6685641  -0.6310829  -0.6310816
           25          26          27          28          29          30
    1  -0.6310636   0.0334756   0.0599931   0.0600059   0.0600084   0.1827327
 Analysis of SCF Wavefunction
 
 --------------------------------------------------------------
                    Orbital Energies (a.u.)
 --------------------------------------------------------------
 
 Alpha MOs
 -- Occupied --
-65.577 -24.411 -24.411 -24.411 -24.411  -5.490  -3.911  -3.911
 -3.911  -1.466  -1.422  -1.422  -1.422  -0.809  -0.736  -0.736
 -0.736  -0.682  -0.682  -0.669  -0.669  -0.669  -0.631  -0.631
 -0.631
 -- Virtual --
  0.033   0.060   0.060   0.060   0.183   0.188   0.188   0.188
  0.257   0.258   0.262   0.262   0.262   0.296   0.296   0.296
  0.303   0.358   0.358   0.358   0.406   0.431   0.431   0.431
  0.453   0.453   0.453   0.453   0.453   0.648   0.648   0.648
  0.720   0.750   0.750   0.751   0.807   0.807   0.807   0.897
  0.897   0.944   1.061   1.061   1.061   1.438   1.438   1.475
  1.475   1.475   1.484   1.484   1.484   1.526   1.526   1.526
  1.535   1.654   1.654   1.654   1.823   1.823   1.823   2.041
  2.041   2.041   2.132   2.132   2.185   2.185   2.185   2.209
  2.209   2.209   2.233   2.351   2.351   2.351   2.566   2.569
  2.569   2.760   2.760   2.760   2.989   2.989   2.989   3.233
  3.233   3.234   3.408   3.836   3.837   4.296   4.297   4.299
  6.046   6.243   6.243   6.338   6.338   6.338   6.372   6.372
  6.372   6.504   6.504   6.505   6.665   6.724   6.724   6.726
  6.726   6.726   6.752   6.760   6.760   6.760   6.768   6.768
  6.768   6.792   6.804   6.804   6.804   6.841   6.842   6.842
  6.943   6.943   7.045   7.045   7.045   7.217   7.217   7.218
  7.603   9.156   9.156   9.179   9.179   9.179   9.279   9.279
  9.279   9.437   9.437   9.437   9.502   9.502   9.502   9.539
  9.539   9.800   9.800   9.800  10.183  12.275  12.277  12.277
 17.647  17.725  17.840  17.918  18.003  22.226  22.232  22.237
 22.242  22.248  22.249  22.311  50.087  50.097  50.098  50.126
 50.141  50.145  50.173  50.186  50.220  50.222  50.232  50.241
 50.247  50.261  50.265  50.272  50.414  50.437  50.463  50.464
 55.755  55.755  55.807  55.807  55.807  55.854  55.854  55.854
 55.987  55.988  55.988  56.027  67.025  67.025  67.025  67.122
142.226
 --------------------------------------------------------------
 
          Ground-State Mulliken Net Atomic Charges

     Atom                 Charge (a.u.)
  ----------------------------------------
      1 Si                    2.064752
      2 F                    -0.516180
      3 F                    -0.516256
      4 F                    -0.516158
      5 F                    -0.516158
  ----------------------------------------
  Sum of atomic charges =     0.000000

 -----------------------------------------------------------------
                    Cartesian Multipole Moments
 -----------------------------------------------------------------
    Charge (ESU x 10^10)
                 0.0000
    Dipole Moment (Debye)
         X       0.0002      Y       0.0000      Z       0.0000
       Tot       0.0002
    Quadrupole Moments (Debye-Ang)
        XX     -33.2385     XY       0.0000     YY     -33.2395
        XZ      -0.0004     YZ       0.0000     ZZ     -33.2383
    Octapole Moments (Debye-Ang^2)
       XXX      -3.7438    XXY       0.0000    XYY       3.7430
       YYY       0.0000    XXZ       2.6461    XYZ       0.0000
       YYZ       2.6466    XZZ      -0.0001    YZZ       0.0000
       ZZZ      -5.2930
    Hexadecapole Moments (Debye-Ang^3)
      XXXX    -131.3674   XXXY       0.0000   XXYY     -43.7910
      XYYY       0.0000   YYYY    -131.3702   XXXZ       1.4195
      XXYZ       0.0000   XYYZ      -1.4210   YYYZ       0.0000
      XXZZ     -42.7850   XYZZ       0.0000   YYZZ     -42.7854
      XZZZ       0.0003   YZZZ       0.0000   ZZZZ    -132.3718
 -----------------------------------------------------------------
 Calculating analytic gradient of the SCF energy
 Gradient of AOints
            1           2           3           4           5
    1  -0.0178362   0.0033841 -28.4131639  14.2138081  14.2138079
    2   0.0000006  -0.0000009   0.0000001  24.6040743 -24.6040741
    3  -0.0052088 -30.1412566  10.0499989  10.0482339  10.0482326
 Gradient of XC Energy
            1           2           3           4           5
    1   0.0001241  -0.0000209   0.2689272  -0.1345152  -0.1345152
    2  -0.0000000   0.0000000  -0.0000000  -0.2328628   0.2328628
    3   0.0002530   0.2853842  -0.0952222  -0.0952075  -0.0952075
 Gradient of SCF Energy
            1           2           3           4           5
    1  -0.0000713   0.0000141   0.0291039  -0.0145234  -0.0145234
    2  -0.0000000   0.0000000  -0.0000000  -0.0252305   0.0252305
    3   0.0002035   0.0309208  -0.0103585  -0.0103829  -0.0103829
 Max gradient component =       3.092E-02
 RMS gradient           =       1.596E-02
 Gradient time:  CPU 112.61 s  wall 113.83 s
 Geometry Optimization Parameters
   NAtoms,    NIC,     NZ,  NCons,   NDum,   NFix, NCnnct, MaxDiis
        5      20       5       0       0       0       0       0


** GEOMETRY OPTIMIZATION IN DELOCALIZED INTERNAL COORDINATES **
   Searching for a Minimum

   Optimization Cycle:   1

                       Coordinates (Angstroms)
     ATOM              X           Y           Z
    1  Si          0.000000    0.000000    0.000000
    2  F           0.000000    0.000000    1.578951
    3  F           1.488649    0.000000   -0.526317
    4  F          -0.744325   -1.289208   -0.526317
    5  F          -0.744325    1.289208   -0.526317
   Point Group: c1    Number of degrees of freedom:   9


   Energy is   -685.103677317


 Attempting to Generate Delocalized Internal Coordinates

  9 Hessian modes will be used to form the next step
  Hessian Eigenvalues:
     0.250000    0.250000    0.250000    0.250000    0.250000    0.555135
     0.555135    0.555135    0.555135

 Minimum Search - Taking Simple RFO Step
 Searching for Lamda that Minimizes Along All modes
 Value Taken    Lamda =  -0.00680017
 Step Taken.  Stepsize is  0.110010

                             Maximum     Tolerance    Cnvgd?
         Gradient           0.061815      0.000300      NO
         Displacement       0.110003      0.001200      NO
         Energy change     *********      0.000001      NO


 New Cartesian Coordinates Obtained by Inverse Iteration

 Displacement from previous Coordinates is:  0.110017
 Writing REM_CC_EA            5
 ----------------------------------------------------
       Standard Nuclear Orientation (Angstroms)
    I     Atom         X            Y            Z
 ----------------------------------------------------
    1      Si      0.000152     0.000000    -0.000396
    2      F      -0.000092     0.000000     1.549437
    3      F       1.461592     0.000000    -0.516398
    4      F      -0.730826    -1.265508    -0.516322
    5      F      -0.730826     1.265508    -0.516322
 ----------------------------------------------------
 Nuclear Repulsion Energy =   273.7016735437 hartrees
 There are       25 alpha and       25 beta electrons
 Applying Cartesian multipole field
    Component          Value
    ---------          -----
     (2,0,0)        1.00000E-11
     (0,2,0)        2.00000E-11
     (0,0,2)       -3.00000E-11
 Requested basis set is G3large
 There are 59 shells and 234 basis functions
 A cutoff of  1.0D-11 yielded   1532 shell pairs
 There are  24663 function pairs ( 33160 Cartesian)
Evaluating contribution to one-electron hamiltonian from nuclear
 Smallest overlap matrix eigenvalue = 1.26E-04
 Multipole matrices computed through 2nd order
 Guess MOs from SCF MO coefficient file
Reading MOs from coefficient file
Reading MOs from coefficient file
 A restricted hybrid HF-DFT SCF calculation will be
 performed using Pulay DIIS extrapolation
 Exchange:     1.0000 Hartree-Fock + 1.0000 BNL
 Correlation:  1.0000 LYP
 Using SG-1 standard quadrature grid
 SCF converges when DIIS error is below 1.0E-08
 Warning!  Inaccurate integrated density:
   Number of electrons =    50
   Numerical integral  =    50.092908723761
   Relative error      =     0.1858174475 %
 ---------------------------------------
  Cycle       Energy         DIIS Error
 ---------------------------------------
    1    -685.2554541205      1.80E-03
    2    -685.1073005745      3.40E-04
    3    -685.1078195219      1.24E-04
    4    -685.1078642707      2.41E-05
    5    -685.1078665266      1.24E-05
    6    -685.1078672051      2.17E-06
    7    -685.1078672309      4.79E-07
    8    -685.1078672330      6.15E-08
    9    -685.1078672326      8.10E-09 Convergence criterion met
 ---------------------------------------
 One-Electron    Energy = -1502.6080379956
 Total Coulomb   Energy =   602.4920056191
 Alpha Exchange  Energy =    -7.2424595081
 Beta  Exchange  Energy =    -7.2424595081
 DFT   Exchange  Energy =   -42.2507485974
 DFT Correlation Energy =    -1.9578407862
 Nuclear Repu.   Energy =   273.7016735437
 Nuclear Attr.   Energy = -2185.7490117775
 Kinetic         Energy =   683.1409737819
 SCF time:  CPU 170.18 s  wall 171.87 s
 Final Alpha MO Eigenvalues
            1           2           3           4           5           6
    1 -65.5571640 -24.4093155 -24.4092208 -24.4092101 -24.4091347  -5.4745406
            7           8           9          10          11          12
    1  -3.8959775  -3.8959562  -3.8959502  -1.4732361  -1.4262136  -1.4261431
           13          14          15          16          17          18
    1  -1.4260767  -0.8095080  -0.7401116  -0.7400791  -0.7400394  -0.6865974
           19          20          21          22          23          24
    1  -0.6865912  -0.6718736  -0.6718400  -0.6718046  -0.6314103  -0.6313526
           25          26          27          28          29          30
    1  -0.6313085   0.0362911   0.0602538   0.0602742   0.0602772   0.1940424
 Analysis of SCF Wavefunction
 
 --------------------------------------------------------------
                    Orbital Energies (a.u.)
 --------------------------------------------------------------
 
 Alpha MOs
 -- Occupied --
-65.557 -24.409 -24.409 -24.409 -24.409  -5.475  -3.896  -3.896
 -3.896  -1.473  -1.426  -1.426  -1.426  -0.810  -0.740  -0.740
 -0.740  -0.687  -0.687  -0.672  -0.672  -0.672  -0.631  -0.631
 -0.631
 -- Virtual --
  0.036   0.060   0.060   0.060   0.194   0.194   0.194   0.199
  0.258   0.258   0.263   0.264   0.264   0.301   0.302   0.302
  0.308   0.359   0.359   0.359   0.419   0.436   0.436   0.436
  0.457   0.457   0.457   0.466   0.466   0.652   0.652   0.652
  0.724   0.753   0.754   0.754   0.808   0.808   0.808   0.902
  0.902   0.946   1.101   1.101   1.102   1.436   1.436   1.476
  1.476   1.476   1.492   1.492   1.492   1.526   1.529   1.529
  1.529   1.652   1.652   1.653   1.831   1.832   1.832   2.039
  2.040   2.040   2.133   2.133   2.194   2.194   2.194   2.210
  2.211   2.211   2.257   2.368   2.368   2.368   2.611   2.611
  2.633   2.816   2.816   2.816   3.035   3.035   3.036   3.301
  3.301   3.302   3.447   3.874   3.875   4.296   4.297   4.299
  6.058   6.241   6.241   6.350   6.350   6.350   6.370   6.371
  6.371   6.533   6.533   6.533   6.703   6.720   6.720   6.721
  6.721   6.722   6.750   6.758   6.758   6.758   6.767   6.767
  6.767   6.793   6.815   6.815   6.815   6.864   6.865   6.865
  6.961   6.961   7.083   7.083   7.083   7.279   7.280   7.280
  7.692   9.157   9.157   9.182   9.182   9.183   9.290   9.290
  9.290   9.457   9.457   9.457   9.539   9.539   9.539   9.580
  9.580   9.827   9.827   9.827  10.229  12.389  12.390  12.391
 17.672  17.750  17.865  17.943  18.028  22.250  22.255  22.261
 22.264  22.270  22.272  22.333  50.090  50.099  50.101  50.130
 50.143  50.151  50.178  50.192  50.231  50.235  50.244  50.254
 50.256  50.274  50.281  50.289  50.431  50.453  50.479  50.481
 55.756  55.756  55.818  55.818  55.818  55.857  55.857  55.857
 56.044  56.044  56.045  56.060  67.027  67.027  67.027  67.145
142.361
 --------------------------------------------------------------
 
          Ground-State Mulliken Net Atomic Charges

     Atom                 Charge (a.u.)
  ----------------------------------------
      1 Si                    2.162095
      2 F                    -0.540502
      3 F                    -0.540520
      4 F                    -0.540536
      5 F                    -0.540536
  ----------------------------------------
  Sum of atomic charges =     0.000000

 -----------------------------------------------------------------
                    Cartesian Multipole Moments
 -----------------------------------------------------------------
    Charge (ESU x 10^10)
                 0.0000
    Dipole Moment (Debye)
         X       0.0019      Y       0.0000      Z      -0.0046
       Tot       0.0049
    Quadrupole Moments (Debye-Ang)
        XX     -32.9261     XY       0.0000     YY     -32.9259
        XZ      -0.0003     YZ       0.0000     ZZ     -32.9224
    Octapole Moments (Debye-Ang^2)
       XXX      -3.6111    XXY       0.0000    XYY       3.6087
       YYY       0.0000    XXZ       2.5516    XYZ       0.0000
       YYZ       2.5519    XZZ      -0.0003    YZZ       0.0000
       ZZZ      -5.0991
    Hexadecapole Moments (Debye-Ang^3)
      XXXX    -126.8267   XXXY       0.0000   XXYY     -42.2695
      XYYY       0.0000   YYYY    -126.7855   XXXZ       1.3756
      XXYZ       0.0000   XYYZ      -1.3722   YYYZ       0.0000
      XXZZ     -41.2865   XYZZ       0.0000   YYZZ     -41.2798
      XZZZ       0.0031   YZZZ       0.0000   ZZZZ    -127.6762
 -----------------------------------------------------------------
 Calculating analytic gradient of the SCF energy
 Gradient of AOints
            1           2           3           4           5
    1  -0.0225824   0.0049775 -29.3973273  14.7074661  14.7074661
    2  -0.0000003   0.0000005  -0.0000001  25.4532201 -25.4532202
    3   0.0197628 -31.1782433  10.3882746  10.3851026  10.3851033
 Gradient of XC Energy
            1           2           3           4           5
    1   0.0000338  -0.0000459   0.2833080  -0.1416479  -0.1416479
    2   0.0000000  -0.0000000   0.0000000  -0.2450866   0.2450866
    3  -0.0000939   0.3003627  -0.1001683  -0.1000503  -0.1000503
 Gradient of SCF Energy
            1           2           3           4           5
    1  -0.0001515  -0.0000119   0.0062702  -0.0030534  -0.0030534
    2   0.0000000  -0.0000000  -0.0000000  -0.0052612   0.0052612
    3   0.0000329   0.0064568  -0.0022058  -0.0021420  -0.0021420
 Max gradient component =       6.457E-03
 RMS gradient           =       3.357E-03
 Gradient time:  CPU 132.93 s  wall 133.31 s
 Geometry Optimization Parameters
   NAtoms,    NIC,     NZ,  NCons,   NDum,   NFix, NCnnct, MaxDiis
        5      20       5       0       0       0       0       0

 Cartesian Hessian Update
 Hessian Updated using BFGS Update


** GEOMETRY OPTIMIZATION IN DELOCALIZED INTERNAL COORDINATES **
   Searching for a Minimum

   Optimization Cycle:   2

                       Coordinates (Angstroms)
     ATOM              X           Y           Z
    1  Si          0.000152    0.000000   -0.000396
    2  F          -0.000092    0.000000    1.549437
    3  F           1.461592    0.000000   -0.516398
    4  F          -0.730826   -1.265508   -0.516322
    5  F          -0.730826    1.265508   -0.516322
   Point Group: c1    Number of degrees of freedom:   9


   Energy is   -685.107867233

 Hessian Updated using BFGS Update

  4 Hessian modes will be used to form the next step
  Hessian Eigenvalues:
     0.250000    0.250008    0.443722    0.555162

 Minimum Search - Taking Simple RFO Step
 Searching for Lamda that Minimizes Along All modes
 Value Taken    Lamda =  -0.00038101
 Step Taken.  Stepsize is  0.029279

                             Maximum     Tolerance    Cnvgd?
         Gradient           0.013001      0.000300      NO
         Displacement       0.029275      0.001200      NO
         Energy change     -0.004190      0.000001      NO


 New Cartesian Coordinates Obtained by Inverse Iteration

 Displacement from previous Coordinates is:  0.029281
 Writing REM_CC_EA            5
 ----------------------------------------------------
       Standard Nuclear Orientation (Angstroms)
    I     Atom         X            Y            Z
 ----------------------------------------------------
    1      Si      0.000123     0.000000    -0.000366
    2      F      -0.000008     0.000000     1.541773
    3      F       1.454075     0.000000    -0.513781
    4      F      -0.727095    -1.259281    -0.513813
    5      F      -0.727095     1.259281    -0.513813
 ----------------------------------------------------
 Nuclear Repulsion Energy =   275.0764523729 hartrees
 There are       25 alpha and       25 beta electrons
 Applying Cartesian multipole field
    Component          Value
    ---------          -----
     (2,0,0)        1.00000E-11
     (0,2,0)        2.00000E-11
     (0,0,2)       -3.00000E-11
 Requested basis set is G3large
 There are 59 shells and 234 basis functions
 A cutoff of  1.0D-11 yielded   1532 shell pairs
 There are  24663 function pairs ( 33160 Cartesian)
Evaluating contribution to one-electron hamiltonian from nuclear
 Smallest overlap matrix eigenvalue = 1.19E-04
 Multipole matrices computed through 2nd order
 Guess MOs from SCF MO coefficient file
Reading MOs from coefficient file
Reading MOs from coefficient file
 A restricted hybrid HF-DFT SCF calculation will be
 performed using Pulay DIIS extrapolation
 Exchange:     1.0000 Hartree-Fock + 1.0000 BNL
 Correlation:  1.0000 LYP
 Using SG-1 standard quadrature grid
 SCF converges when DIIS error is below 1.0E-08
 ---------------------------------------
  Cycle       Energy         DIIS Error
 ---------------------------------------
    1    -685.1484205279      5.03E-04
    2    -685.1079961431      9.35E-05
    3    -685.1080346519      3.47E-05
    4    -685.1080380925      7.01E-06
    5    -685.1080382747      3.39E-06
    6    -685.1080383258      5.59E-07
    7    -685.1080383263      1.29E-07
    8    -685.1080383257      2.03E-08
    9    -685.1080383255      1.23E-08
   10    -685.1080383255      1.36E-09 Convergence criterion met
 ---------------------------------------
 One-Electron    Energy = -1505.3702251230
 Total Coulomb   Energy =   603.8972864469
 Alpha Exchange  Energy =    -7.2442147152
 Beta  Exchange  Energy =    -7.2442147152
 DFT   Exchange  Energy =   -42.2642537819
 DFT Correlation Energy =    -1.9588688100
 Nuclear Repu.   Energy =   275.0764523729
 Nuclear Attr.   Energy = -2188.5935407493
 Kinetic         Energy =   683.2233156263
 SCF time:  CPU 173.55 s  wall 175.43 s
 Final Alpha MO Eigenvalues
            1           2           3           4           5           6
    1 -65.5518503 -24.4087909 -24.4086735 -24.4086618 -24.4085940  -5.4704167
            7           8           9          10          11          12
    1  -3.8918009  -3.8917779  -3.8917713  -1.4753020  -1.4272888  -1.4271745
           13          14          15          16          17          18
    1  -1.4271147  -0.8095652  -0.7411761  -0.7411406  -0.7411032  -0.6878284
           19          20          21          22          23          24
    1  -0.6878258  -0.6727415  -0.6727125  -0.6726781  -0.6314619  -0.6314076
           25          26          27          28          29          30
    1  -0.6313561   0.0369418   0.0603162   0.0603340   0.0603409   0.1955764
 Analysis of SCF Wavefunction
 
 --------------------------------------------------------------
                    Orbital Energies (a.u.)
 --------------------------------------------------------------
 
 Alpha MOs
 -- Occupied --
-65.552 -24.409 -24.409 -24.409 -24.409  -5.470  -3.892  -3.892
 -3.892  -1.475  -1.427  -1.427  -1.427  -0.810  -0.741  -0.741
 -0.741  -0.688  -0.688  -0.673  -0.673  -0.673  -0.631  -0.631
 -0.631
 -- Virtual --
  0.037   0.060   0.060   0.060   0.196   0.196   0.196   0.204
  0.258   0.258   0.264   0.264   0.264   0.303   0.303   0.303
  0.309   0.359   0.359   0.359   0.424   0.438   0.438   0.438
  0.458   0.458   0.458   0.469   0.469   0.653   0.653   0.653
  0.725   0.754   0.754   0.754   0.808   0.808   0.808   0.903
  0.903   0.947   1.112   1.112   1.113   1.435   1.435   1.477
  1.477   1.477   1.494   1.494   1.494   1.523   1.530   1.530
  1.530   1.652   1.652   1.652   1.834   1.835   1.835   2.039
  2.039   2.039   2.133   2.134   2.196   2.197   2.197   2.211
  2.211   2.211   2.263   2.373   2.373   2.373   2.623   2.623
  2.651   2.831   2.832   2.832   3.048   3.048   3.048   3.319
  3.319   3.319   3.458   3.884   3.885   4.295   4.296   4.298
  6.061   6.241   6.241   6.353   6.353   6.353   6.370   6.370
  6.370   6.541   6.541   6.541   6.715   6.719   6.719   6.720
  6.720   6.721   6.749   6.758   6.758   6.758   6.766   6.766
  6.766   6.793   6.818   6.818   6.818   6.871   6.871   6.871
  6.965   6.965   7.093   7.093   7.093   7.297   7.298   7.298
  7.716   9.158   9.158   9.183   9.183   9.184   9.293   9.293
  9.293   9.462   9.462   9.463   9.549   9.550   9.550   9.591
  9.591   9.835   9.835   9.835  10.240  12.419  12.420  12.421
 17.678  17.756  17.871  17.949  18.034  22.256  22.261  22.267
 22.270  22.276  22.278  22.339  50.090  50.100  50.102  50.131
 50.144  50.152  50.179  50.194  50.233  50.239  50.247  50.258
 50.259  50.278  50.285  50.293  50.435  50.457  50.483  50.486
 55.756  55.756  55.821  55.821  55.821  55.857  55.857  55.857
 56.061  56.061  56.062  56.070  67.028  67.028  67.028  67.151
142.397
 --------------------------------------------------------------
 
          Ground-State Mulliken Net Atomic Charges

     Atom                 Charge (a.u.)
  ----------------------------------------
      1 Si                    2.189627
      2 F                    -0.547406
      3 F                    -0.547311
      4 F                    -0.547455
      5 F                    -0.547455
  ----------------------------------------
  Sum of atomic charges =     0.000000

 -----------------------------------------------------------------
                    Cartesian Multipole Moments
 -----------------------------------------------------------------
    Charge (ESU x 10^10)
                 0.0000
    Dipole Moment (Debye)
         X       0.0020      Y       0.0000      Z      -0.0044
       Tot       0.0048
    Quadrupole Moments (Debye-Ang)
        XX     -32.8408     XY       0.0000     YY     -32.8433
        XZ      -0.0010     YZ       0.0000     ZZ     -32.8395
    Octapole Moments (Debye-Ang^2)
       XXX      -3.5723    XXY       0.0000    XYY       3.5747
       YYY       0.0000    XXZ       2.5259    XYZ       0.0000
       YYZ       2.5276    XZZ       0.0004    YZZ       0.0000
       ZZZ      -5.0510
    Hexadecapole Moments (Debye-Ang^3)
      XXXX    -125.5875   XXXY       0.0000   XXYY     -41.8652
      XYYY       0.0000   YYYY    -125.5967   XXXZ       1.3566
      XXYZ       0.0000   XYYZ      -1.3618   YYYZ       0.0000
      XXZZ     -40.8898   XYZZ       0.0000   YYZZ     -40.8913
      XZZZ      -0.0026   YZZZ       0.0000   ZZZZ    -126.4741
 -----------------------------------------------------------------
 Calculating analytic gradient of the SCF energy
 Gradient of AOints
            1           2           3           4           5
    1  -0.0129423   0.0031460 -29.6621694  14.8359829  14.8359828
    2  -0.0000002   0.0000003  -0.0000001  25.6806173 -25.6806172
    3   0.0171580 -31.4562127  10.4824501  10.4783021  10.4783025
 Gradient of XC Energy
            1           2           3           4           5
    1  -0.0001647  -0.0000185   0.2871831  -0.1435000  -0.1435000
    2   0.0000000  -0.0000000   0.0000000  -0.2483476   0.2483476
    3  -0.0000632   0.3043712  -0.1015432  -0.1013824  -0.1013824
 Gradient of SCF Energy
            1           2           3           4           5
    1  -0.0000415   0.0000066  -0.0006469   0.0003409   0.0003409
    2   0.0000000  -0.0000000   0.0000000   0.0005898  -0.0005898
    3  -0.0000092  -0.0007109   0.0002348   0.0002427   0.0002427
 Max gradient component =       7.109E-04
 RMS gradient           =       3.676E-04
 Gradient time:  CPU 134.10 s  wall 134.46 s
 Geometry Optimization Parameters
   NAtoms,    NIC,     NZ,  NCons,   NDum,   NFix, NCnnct, MaxDiis
        5      20       5       0       0       0       0       0

 Cartesian Hessian Update
 Hessian Updated using BFGS Update


** GEOMETRY OPTIMIZATION IN DELOCALIZED INTERNAL COORDINATES **
   Searching for a Minimum

   Optimization Cycle:   3

                       Coordinates (Angstroms)
     ATOM              X           Y           Z
    1  Si          0.000123    0.000000   -0.000366
    2  F          -0.000008    0.000000    1.541773
    3  F           1.454075    0.000000   -0.513781
    4  F          -0.727095   -1.259281   -0.513813
    5  F          -0.727095    1.259281   -0.513813
   Point Group: c1    Number of degrees of freedom:   9


   Energy is   -685.108038326

 Hessian Updated using BFGS Update

  6 Hessian modes will be used to form the next step
  Hessian Eigenvalues:
     0.249999    0.250001    0.250007    0.492637    0.555135    0.555211

 Minimum Search - Taking Simple RFO Step
 Searching for Lamda that Minimizes Along All modes
 Value Taken    Lamda =  -0.00000411
 Step Taken.  Stepsize is  0.002888

                             Maximum     Tolerance    Cnvgd?
         Gradient           0.001423      0.000300      NO
         Displacement       0.002887      0.001200      NO
         Energy change     -0.000171      0.000001      NO


 New Cartesian Coordinates Obtained by Inverse Iteration

 Displacement from previous Coordinates is:  0.002888
 Writing REM_CC_EA            5
 ----------------------------------------------------
       Standard Nuclear Orientation (Angstroms)
    I     Atom         X            Y            Z
 ----------------------------------------------------
    1      Si      0.000143     0.000000    -0.000352
    2      F      -0.000030     0.000000     1.542550
    3      F       1.454784     0.000000    -0.514061
    4      F      -0.727448    -1.259901    -0.514069
    5      F      -0.727448     1.259901    -0.514069
 ----------------------------------------------------
 Nuclear Repulsion Energy =   274.9402588971 hartrees
 There are       25 alpha and       25 beta electrons
 Applying Cartesian multipole field
    Component          Value
    ---------          -----
     (2,0,0)        1.00000E-11
     (0,2,0)        2.00000E-11
     (0,0,2)       -3.00000E-11
 Requested basis set is G3large
 There are 59 shells and 234 basis functions
 A cutoff of  1.0D-11 yielded   1532 shell pairs
 There are  24663 function pairs ( 33160 Cartesian)
Evaluating contribution to one-electron hamiltonian from nuclear
 Smallest overlap matrix eigenvalue = 1.20E-04
 Multipole matrices computed through 2nd order
 Guess MOs from SCF MO coefficient file
Reading MOs from coefficient file
Reading MOs from coefficient file
 A restricted hybrid HF-DFT SCF calculation will be
 performed using Pulay DIIS extrapolation
 Exchange:     1.0000 Hartree-Fock + 1.0000 BNL
 Correlation:  1.0000 LYP
 Using SG-1 standard quadrature grid
 SCF converges when DIIS error is below 1.0E-08
 ---------------------------------------
  Cycle       Energy         DIIS Error
 ---------------------------------------
    1    -685.1040384470      5.02E-05
    2    -685.1080399301      9.29E-06
    3    -685.1080403085      3.46E-06
    4    -685.1080403411      7.06E-07
    5    -685.1080403433      3.37E-07
    6    -685.1080403451      5.48E-08
    7    -685.1080403448      1.27E-08
    8    -685.1080403457      1.92E-09 Convergence criterion met
 ---------------------------------------
 One-Electron    Energy = -1505.0966153037
 Total Coulomb   Energy =   603.7580756174
 Alpha Exchange  Energy =    -7.2440414075
 Beta  Exchange  Energy =    -7.2440414075
 DFT   Exchange  Energy =   -42.2629098759
 DFT Correlation Energy =    -1.9587668656
 Nuclear Repu.   Energy =   274.9402588971
 Nuclear Attr.   Energy = -2188.3117040559
 Kinetic         Energy =   683.2150887522
 SCF time:  CPU 138.89 s  wall 141.02 s
 Final Alpha MO Eigenvalues
            1           2           3           4           5           6
    1 -65.5523772 -24.4088507 -24.4087230 -24.4087112 -24.4086521  -5.4708244
            7           8           9          10          11          12
    1  -3.8922140  -3.8921911  -3.8921843  -1.4750975  -1.4271905  -1.4270648
           13          14          15          16          17          18
    1  -1.4270127  -0.8095603  -0.7410728  -0.7410338  -0.7409993  -0.6877053
           19          20          21          22          23          24
    1  -0.6877045  -0.6726561  -0.6726247  -0.6725935  -0.6314558  -0.6314064
           25          26          27          28          29          30
    1  -0.6313495   0.0368792   0.0603107   0.0603278   0.0603348   0.1954344
 Analysis of SCF Wavefunction
 
 --------------------------------------------------------------
                    Orbital Energies (a.u.)
 --------------------------------------------------------------
 
 Alpha MOs
 -- Occupied --
-65.552 -24.409 -24.409 -24.409 -24.409  -5.471  -3.892  -3.892
 -3.892  -1.475  -1.427  -1.427  -1.427  -0.810  -0.741  -0.741
 -0.741  -0.688  -0.688  -0.673  -0.673  -0.673  -0.631  -0.631
 -0.631
 -- Virtual --
  0.037   0.060   0.060   0.060   0.195   0.196   0.196   0.203
  0.258   0.258   0.264   0.264   0.264   0.303   0.303   0.303
  0.309   0.359   0.359   0.359   0.423   0.437   0.438   0.438
  0.458   0.458   0.458   0.469   0.469   0.653   0.653   0.653
  0.725   0.754   0.754   0.754   0.808   0.808   0.808   0.903
  0.903   0.946   1.111   1.111   1.111   1.435   1.435   1.477
  1.477   1.477   1.494   1.494   1.494   1.523   1.530   1.530
  1.530   1.652   1.652   1.652   1.834   1.834   1.834   2.039
  2.039   2.039   2.133   2.133   2.196   2.196   2.196   2.211
  2.211   2.211   2.263   2.372   2.373   2.373   2.622   2.622
  2.649   2.830   2.830   2.830   3.046   3.047   3.047   3.317
  3.318   3.318   3.457   3.883   3.884   4.295   4.296   4.298
  6.060   6.241   6.241   6.353   6.353   6.353   6.370   6.370
  6.370   6.540   6.540   6.540   6.713   6.719   6.719   6.720
  6.720   6.721   6.749   6.758   6.758   6.758   6.766   6.766
  6.766   6.793   6.818   6.818   6.818   6.870   6.871   6.871
  6.965   6.965   7.092   7.092   7.092   7.295   7.296   7.296
  7.714   9.157   9.158   9.183   9.183   9.183   9.293   9.293
  9.293   9.462   9.462   9.462   9.548   9.548   9.549   9.590
  9.590   9.834   9.834   9.834  10.239  12.416  12.417  12.418
 17.677  17.756  17.870  17.949  18.034  22.255  22.260  22.266
 22.270  22.276  22.277  22.338  50.090  50.100  50.102  50.131
 50.144  50.152  50.179  50.194  50.233  50.238  50.247  50.257
 50.258  50.277  50.285  50.293  50.435  50.457  50.482  50.485
 55.756  55.756  55.820  55.820  55.820  55.857  55.857  55.857
 56.059  56.059  56.060  56.069  67.028  67.028  67.028  67.150
142.394
 --------------------------------------------------------------
 
          Ground-State Mulliken Net Atomic Charges

     Atom                 Charge (a.u.)
  ----------------------------------------
      1 Si                    2.186879
      2 F                    -0.546719
      3 F                    -0.546623
      4 F                    -0.546768
      5 F                    -0.546768
  ----------------------------------------
  Sum of atomic charges =     0.000000

 -----------------------------------------------------------------
                    Cartesian Multipole Moments
 -----------------------------------------------------------------
    Charge (ESU x 10^10)
                 0.0000
    Dipole Moment (Debye)
         X       0.0023      Y       0.0000      Z      -0.0042
       Tot       0.0048
    Quadrupole Moments (Debye-Ang)
        XX     -32.8489     XY       0.0000     YY     -32.8516
        XZ      -0.0009     YZ       0.0000     ZZ     -32.8478
    Octapole Moments (Debye-Ang^2)
       XXX      -3.5755    XXY       0.0000    XYY       3.5782
       YYY       0.0000    XXZ       2.5283    XYZ       0.0000
       YYZ       2.5300    XZZ       0.0004    YZZ       0.0000
       ZZZ      -5.0560
    Hexadecapole Moments (Debye-Ang^3)
      XXXX    -125.7043   XXXY       0.0000   XXYY     -41.9045
      XYYY       0.0000   YYYY    -125.7155   XXXZ       1.3587
      XXYZ       0.0000   XYYZ      -1.3627   YYYZ       0.0000
      XXZZ     -40.9285   XYZZ       0.0000   YYZZ     -40.9303
      XZZZ      -0.0017   YZZZ       0.0000   ZZZZ    -126.5958
 -----------------------------------------------------------------
 Calculating analytic gradient of the SCF energy
 Gradient of AOints
            1           2           3           4           5
    1  -0.0135186   0.0037929 -29.6363331  14.8230295  14.8230293
    2  -0.0000001   0.0000001  -0.0000001  25.6578610 -25.6578609
    3   0.0163118 -31.4288402  10.4740711  10.4692285  10.4692287
 Gradient of XC Energy
            1           2           3           4           5
    1  -0.0001578  -0.0000273   0.2868102  -0.1433125  -0.1433125
    2   0.0000000  -0.0000000   0.0000000  -0.2480191   0.2480191
    3  -0.0000508   0.3039776  -0.1014220  -0.1012524  -0.1012524
 Gradient of SCF Energy
            1           2           3           4           5
    1  -0.0000150   0.0000026   0.0000216  -0.0000046  -0.0000046
    2  -0.0000000  -0.0000000   0.0000000  -0.0000076   0.0000076
    3  -0.0000008   0.0000151  -0.0000069  -0.0000037  -0.0000037
 Max gradient component =       2.163E-05
 RMS gradient           =       8.804E-06
 Gradient time:  CPU 130.15 s  wall 130.64 s
 Geometry Optimization Parameters
   NAtoms,    NIC,     NZ,  NCons,   NDum,   NFix, NCnnct, MaxDiis
        5      20       5       0       0       0       0       0

 Cartesian Hessian Update
 Hessian Updated using BFGS Update


** GEOMETRY OPTIMIZATION IN DELOCALIZED INTERNAL COORDINATES **
   Searching for a Minimum

   Optimization Cycle:   4

                       Coordinates (Angstroms)
     ATOM              X           Y           Z
    1  Si          0.000143    0.000000   -0.000352
    2  F          -0.000030    0.000000    1.542550
    3  F           1.454784    0.000000   -0.514061
    4  F          -0.727448   -1.259901   -0.514069
    5  F          -0.727448    1.259901   -0.514069
   Point Group: c1    Number of degrees of freedom:   9


   Energy is   -685.108040346

 Hessian Updated using BFGS Update

  6 Hessian modes will be used to form the next step
  Hessian Eigenvalues:
     0.249965    0.250002    0.250008    0.502665    0.555020    0.555149

 Minimum Search - Taking Simple RFO Step
 Searching for Lamda that Minimizes Along All modes
 Value Taken    Lamda =   0.00000000
 Step Taken.  Stepsize is  0.000063

                             Maximum     Tolerance    Cnvgd?
         Gradient           0.000029      0.000300     YES
         Displacement       0.000057      0.001200     YES
         Energy change     -0.000002      0.000001      NO


                       Distance Matrix (Angstroms)
             Si(  1)   F (  2)   F (  3)   F (  4)
   F (  2)  1.542902
   F (  3)  1.542685  2.519153
   F (  4)  1.542934  2.519161  2.519819
   F (  5)  1.542934  2.519161  2.519819  2.519802
 


 ******************************
 **  OPTIMIZATION CONVERGED  **
 ******************************
 Analysis of SCF Wavefunction
 
 --------------------------------------------------------------
                    Orbital Energies (a.u.)
 --------------------------------------------------------------
 
 Alpha MOs
 -- Occupied --
-65.552 -24.409 -24.409 -24.409 -24.409  -5.471  -3.892  -3.892
 -3.892  -1.475  -1.427  -1.427  -1.427  -0.810  -0.741  -0.741
 -0.741  -0.688  -0.688  -0.673  -0.673  -0.673  -0.631  -0.631
 -0.631
 -- Virtual --
  0.037   0.060   0.060   0.060   0.195   0.196   0.196   0.203
  0.258   0.258   0.264   0.264   0.264   0.303   0.303   0.303
  0.309   0.359   0.359   0.359   0.423   0.437   0.438   0.438
  0.458   0.458   0.458   0.469   0.469   0.653   0.653   0.653
  0.725   0.754   0.754   0.754   0.808   0.808   0.808   0.903
  0.903   0.946   1.111   1.111   1.111   1.435   1.435   1.477
  1.477   1.477   1.494   1.494   1.494   1.523   1.530   1.530
  1.530   1.652   1.652   1.652   1.834   1.834   1.834   2.039
  2.039   2.039   2.133   2.133   2.196   2.196   2.196   2.211
  2.211   2.211   2.263   2.372   2.373   2.373   2.622   2.622
  2.649   2.830   2.830   2.830   3.046   3.047   3.047   3.317
  3.318   3.318   3.457   3.883   3.884   4.295   4.296   4.298
  6.060   6.241   6.241   6.353   6.353   6.353   6.370   6.370
  6.370   6.540   6.540   6.540   6.713   6.719   6.719   6.720
  6.720   6.721   6.749   6.758   6.758   6.758   6.766   6.766
  6.766   6.793   6.818   6.818   6.818   6.870   6.871   6.871
  6.965   6.965   7.092   7.092   7.092   7.295   7.296   7.296
  7.714   9.157   9.158   9.183   9.183   9.183   9.293   9.293
  9.293   9.462   9.462   9.462   9.548   9.548   9.549   9.590
  9.590   9.834   9.834   9.834  10.239  12.416  12.417  12.418
 17.677  17.756  17.870  17.949  18.034  22.255  22.260  22.266
 22.270  22.276  22.277  22.338  50.090  50.100  50.102  50.131
 50.144  50.152  50.179  50.194  50.233  50.238  50.247  50.257
 50.258  50.277  50.285  50.293  50.435  50.457  50.482  50.485
 55.756  55.756  55.820  55.820  55.820  55.857  55.857  55.857
 56.059  56.059  56.060  56.069  67.028  67.028  67.028  67.150
142.394
 --------------------------------------------------------------
 
          Ground-State Mulliken Net Atomic Charges

     Atom                 Charge (a.u.)
  ----------------------------------------
      1 Si                    2.186879
      2 F                    -0.546719
      3 F                    -0.546623
      4 F                    -0.546768
      5 F                    -0.546768
  ----------------------------------------
  Sum of atomic charges =     0.000000

 -----------------------------------------------------------------
                    Cartesian Multipole Moments
 -----------------------------------------------------------------
    Charge (ESU x 10^10)
                 0.0000
    Dipole Moment (Debye)
         X       0.0023      Y       0.0000      Z      -0.0042
       Tot       0.0048
    Quadrupole Moments (Debye-Ang)
        XX     -32.8489     XY       0.0000     YY     -32.8516
        XZ      -0.0009     YZ       0.0000     ZZ     -32.8478
    Octapole Moments (Debye-Ang^2)
       XXX      -3.5755    XXY       0.0000    XYY       3.5782
       YYY       0.0000    XXZ       2.5283    XYZ       0.0000
       YYZ       2.5300    XZZ       0.0004    YZZ       0.0000
       ZZZ      -5.0560
    Hexadecapole Moments (Debye-Ang^3)
      XXXX    -125.7043   XXXY       0.0000   XXYY     -41.9045
      XYYY       0.0000   YYYY    -125.7155   XXXZ       1.3587
      XXYZ       0.0000   XYYZ      -1.3627   YYYZ       0.0000
      XXZZ     -40.9285   XYZZ       0.0000   YYZZ     -40.9303
      XZZZ      -0.0017   YZZZ       0.0000   ZZZZ    -126.5958
 -----------------------------------------------------------------
 Total job time:  1208.58s(wall), 1198.26s(cpu) 
 Sun Apr 17 20:27:39 2011

        *************************************************************
        *                                                           *
        *  Thank you very much for using Q-Chem.  Have a nice day.  *
        *                                                           *
        *************************************************************


0 sent ACK to 0 
now end server 0 ... 
 
**********************************************************************
Job 2 of 2 
**********************************************************************
 
Process 0 of 1 is on cl193.stfx.acenet.ca - thread support 1
initial socket setup ...start
initial socket setup ...done 
now start server 0 ... 

cmd = /usr/bin/ssh clhead /usr/local/qchem/bin/get_hostid 746408666 > /scratch/tmp/4503919.1.medium.q/qchem23579/lic.dat
                  Welcome to Q-Chem
     A Quantum Leap Into The Future Of Chemistry

 Y. Shao, L. Fusti-Molnar, Y. Jung, J. Kussmann, C. Ochsenfeld,
 S. T. Brown, A. T. B. Gilbert, L. V. Slipchenko,S. V. Levchenko,
 D. P. O'Neill, R. A. DiStasio Jr., R. C. Lochan, T. Wang,
 G. J. O. Beran, N. A. Besley, J. M. Herbert, C. Y. Lin,
 T. Van Voorhis, S. H. Chien, A. Sodt, R. P. Steele, 
 V. A. Rassolov, P. E. Maslen, P. P. Korambath, R. D. Adamson,
 B. Austin, J. Baker, E. F. C. Byrd, H. Dachsel, R. J. Doerksen,
 A. Dreuw, B. D. Dunietz, A. D. Dutoi, T. R. Furlani,
 S. R. Gwaltney, A. Heyden, S. Hirata, C.-P. Hsu, G. Kedziora,
 R. Z. Khaliullin, P. Klunzinger, A. M. Lee, M. S. Lee, W. Liang,
 I. Lotan, N. Nair, B. Peters, E. I. Proynov, P. A. Pieniazek, 
 Y. M. Rhee, J. Ritchie, E. Rosta, C. D. Sherrill, 
 A. C. Simmonett, J. E. Subotnik, H. L. Woodcock III,
 W. Zhang, A. T. Bell, A. K. Chakraborty, D. M. Chipman,
 F. J. Keil, A. Warshel, W. J. Hehre, H. F. Schaefer III,
 J. Kong, A. I. Krylov, P. M. W. Gill, M. Head-Gordon,
 Q-Chem, Version 3.1, Q-Chem, Inc., Pittsburgh, PA (2007).

 Additional authors for Version 3.1: 
 Z. Gan, Y. Zhao, N. E. Schultz, D. Truhlar, E. Epifanovsky and M. Oana.

 Additional authors for Version 3.2: 
 R. Baer, B. R. Brooks, D. Casanova, J.-D. Chai, C.-L. Cheng, 
 C. Cramer, D. Crittenden, A. Ghysels, G. Hawkins, E. G. Hohenstein, 
 C. Kelley, W. Kurlancheek, D. Liotard, E. Livshits, P. Manohar, 
 A. Marenich, D. Neuhauser, R. Olson, M. A. Rohrdanz, K. S. Thanthiriwatte, 
 A. J. W. Thom, V. Vanovschi, C. F. Williams, Q. Wu and Z.-Q. You. 


 Intel X86 Linux Version

 Q-chem begins on Sun Apr 17 20:27:42 2011  

 Parallel job on  1  processors
Processing $rem in /usr/local/qchem/config/preferences.

theFileMan(): MAXOPENFILES=974 MAX_SUB_FILE_NUM=16
Maximum size of a physical file is 2.0 GB, maximum size of a tmp-file is 32.0 GB


--------------------------------------------------------------
User input:
--------------------------------------------------------------

$molecule 
READ 
$end 

$xc_functional
   X HF 1.0
   X BNL 1.0
   C LYP 1.0
$end

$rem
SYMMETRY_DECOMPOSITION	0
exchange 		general
BASIS                   g3large
omega			580 
JOBTYPE                 freq
IDERIV 0
SCF_GUESS READ
separate_jk		true
mem_static              760
max_scf_cycles          200
scf_final_print         1
sym_ignore              true
$end

--------------------------------------------------------------
 Writing REM_CC_EA            5
 ----------------------------------------------------
       Standard Nuclear Orientation (Angstroms)
    I     Atom         X            Y            Z
 ----------------------------------------------------
    1      Si      0.000143     0.000000    -0.000352
    2      F      -0.000030     0.000000     1.542550
    3      F       1.454784     0.000000    -0.514061
    4      F      -0.727448    -1.259901    -0.514069
    5      F      -0.727448     1.259901    -0.514069
 ----------------------------------------------------
 Nuclear Repulsion Energy =   274.9402588971 hartrees
 There are       25 alpha and       25 beta electrons
 Requested basis set is G3large
 There are 59 shells and 234 basis functions

Total QAlloc Memory Limit   2000 MB
Mega-Array Size       759 MB
MEM_STATIC part       760 MB

                       Distance Matrix (Angstroms)
             Si(  1)   F (  2)   F (  3)   F (  4)
   F (  2)  1.542902
   F (  3)  1.542685  2.519153
   F (  4)  1.542934  2.519161  2.519819
   F (  5)  1.542934  2.519161  2.519819  2.519802
 
 A cutoff of  1.0D-11 yielded   1532 shell pairs
 There are  24663 function pairs ( 33160 Cartesian)
Evaluating contribution to one-electron hamiltonian from nuclear
 Smallest overlap matrix eigenvalue = 1.20E-04
 Multipole matrices computed through 2nd order
 Guess MOs from SCF MO coefficient file
Reading MOs from coefficient file
Reading MOs from coefficient file
 A restricted hybrid HF-DFT SCF calculation will be
 performed using Pulay DIIS extrapolation
 Exchange:     1.0000 Hartree-Fock + 1.0000 BNL
 Correlation:  1.0000 LYP
 Using SG-1 standard quadrature grid
 SCF converges when DIIS error is below 1.0E-08
 ---------------------------------------
  Cycle       Energy         DIIS Error
 ---------------------------------------
    1    -685.1080403444      1.16E-09
    2    -685.1080403419      1.13E-09 Convergence criterion met
 ---------------------------------------
 One-Electron    Energy = -1505.0966158079
 Total Coulomb   Energy =   603.7580761199
 Alpha Exchange  Energy =    -7.2440414138
 Beta  Exchange  Energy =    -7.2440414138
 DFT   Exchange  Energy =   -42.2629098583
 DFT Correlation Energy =    -1.9587668649
 Nuclear Repu.   Energy =   274.9402588971
 Nuclear Attr.   Energy = -2188.3117045460
 Kinetic         Energy =   683.2150887381
 SCF time:  CPU 44.34 s  wall 45.29 s
 Final Alpha MO Eigenvalues
            1           2           3           4           5           6
    1 -65.5523772 -24.4088506 -24.4087230 -24.4087112 -24.4086520  -5.4708244
            7           8           9          10          11          12
    1  -3.8922140  -3.8921911  -3.8921843  -1.4750975  -1.4271905  -1.4270648
           13          14          15          16          17          18
    1  -1.4270127  -0.8095603  -0.7410728  -0.7410338  -0.7409993  -0.6877053
           19          20          21          22          23          24
    1  -0.6877045  -0.6726561  -0.6726247  -0.6725934  -0.6314558  -0.6314064
           25          26          27          28          29          30
    1  -0.6313495   0.0368792   0.0603107   0.0603278   0.0603348   0.1954344
 Analysis of SCF Wavefunction
 
 --------------------------------------------------------------
                    Orbital Energies (a.u.)
 --------------------------------------------------------------
 
 Alpha MOs
 -- Occupied --
-65.552 -24.409 -24.409 -24.409 -24.409  -5.471  -3.892  -3.892
 -3.892  -1.475  -1.427  -1.427  -1.427  -0.810  -0.741  -0.741
 -0.741  -0.688  -0.688  -0.673  -0.673  -0.673  -0.631  -0.631
 -0.631
 -- Virtual --
  0.037   0.060   0.060   0.060   0.195   0.196   0.196   0.203
  0.258   0.258   0.264   0.264   0.264   0.303   0.303   0.303
  0.309   0.359   0.359   0.359   0.423   0.437   0.438   0.438
  0.458   0.458   0.458   0.469   0.469   0.653   0.653   0.653
  0.725   0.754   0.754   0.754   0.808   0.808   0.808   0.903
  0.903   0.946   1.111   1.111   1.111   1.435   1.435   1.477
  1.477   1.477   1.494   1.494   1.494   1.523   1.530   1.530
  1.530   1.652   1.652   1.652   1.834   1.834   1.834   2.039
  2.039   2.039   2.133   2.133   2.196   2.196   2.196   2.211
  2.211   2.211   2.263   2.372   2.373   2.373   2.622   2.622
  2.649   2.830   2.830   2.830   3.046   3.047   3.047   3.317
  3.318   3.318   3.457   3.883   3.884   4.295   4.296   4.298
  6.060   6.241   6.241   6.353   6.353   6.353   6.370   6.370
  6.370   6.540   6.540   6.540   6.713   6.719   6.719   6.720
  6.720   6.721   6.749   6.758   6.758   6.758   6.766   6.766
  6.766   6.793   6.818   6.818   6.818   6.870   6.871   6.871
  6.965   6.965   7.092   7.092   7.092   7.295   7.296   7.296
  7.714   9.157   9.158   9.183   9.183   9.183   9.293   9.293
  9.293   9.462   9.462   9.462   9.548   9.548   9.549   9.590
  9.590   9.834   9.834   9.834  10.239  12.416  12.417  12.418
 17.677  17.756  17.870  17.949  18.034  22.255  22.260  22.266
 22.270  22.276  22.277  22.338  50.090  50.100  50.102  50.131
 50.144  50.152  50.179  50.194  50.233  50.238  50.247  50.257
 50.258  50.277  50.285  50.293  50.435  50.457  50.482  50.485
 55.756  55.756  55.820  55.820  55.820  55.857  55.857  55.857
 56.059  56.059  56.060  56.069  67.028  67.028  67.028  67.150
142.394
 --------------------------------------------------------------
 
          Ground-State Mulliken Net Atomic Charges

     Atom                 Charge (a.u.)
  ----------------------------------------
      1 Si                    2.186879
      2 F                    -0.546720
      3 F                    -0.546623
      4 F                    -0.546768
      5 F                    -0.546768
  ----------------------------------------
  Sum of atomic charges =     0.000000

 -----------------------------------------------------------------
                    Cartesian Multipole Moments
 -----------------------------------------------------------------
    Charge (ESU x 10^10)
                 0.0000
    Dipole Moment (Debye)
         X       0.0023      Y       0.0000      Z      -0.0042
       Tot       0.0048
    Quadrupole Moments (Debye-Ang)
        XX     -32.8489     XY       0.0000     YY     -32.8516
        XZ      -0.0009     YZ       0.0000     ZZ     -32.8478
    Octapole Moments (Debye-Ang^2)
       XXX      -3.5755    XXY       0.0000    XYY       3.5782
       YYY       0.0000    XXZ       2.5283    XYZ       0.0000
       YYZ       2.5300    XZZ       0.0004    YZZ       0.0000
       ZZZ      -5.0560
    Hexadecapole Moments (Debye-Ang^3)
      XXXX    -125.7043   XXXY       0.0000   XXYY     -41.9045
      XYYY       0.0000   YYYY    -125.7155   XXXZ       1.3587
      XXYZ       0.0000   XYYZ      -1.3627   YYYZ       0.0000
      XXZZ     -40.9285   XYZZ       0.0000   YYZZ     -40.9303
      XZZZ      -0.0017   YZZZ       0.0000   ZZZZ    -126.5958
 -----------------------------------------------------------------
 No analytic derivatives required
 ######################################################
 ######################################################
 # Starting finite difference calculation for IDERIV  #
 Finite diff step size: 1.89e-03 a.u.
 Writing REM_CC_EA            5
 ----------------------------------------------------
       Standard Nuclear Orientation (Angstroms)
    I     Atom         X            Y            Z
 ----------------------------------------------------
    1      Si      0.002143     0.000000    -0.000352
    2      F      -0.000030     0.000000     1.542550
    3      F       1.454784     0.000000    -0.514061
    4      F      -0.727448    -1.259901    -0.514069
    5      F      -0.727448     1.259901    -0.514069
 ----------------------------------------------------
 Nuclear Repulsion Energy =   274.9402588061 hartrees
 There are       25 alpha and       25 beta electrons

                       Distance Matrix (Angstroms)
             Si(  1)   F (  2)   F (  3)   F (  4)
   F (  2)  1.542904
   F (  3)  1.540799  2.519153
   F (  4)  1.543878  2.519161  2.519819
   F (  5)  1.543878  2.519161  2.519819  2.519802
 
 Requested basis set is G3large
 There are 59 shells and 234 basis functions
 A cutoff of  1.0D-11 yielded   1532 shell pairs
 There are  24663 function pairs ( 33160 Cartesian)
Evaluating contribution to one-electron hamiltonian from nuclear
 Smallest overlap matrix eigenvalue = 1.20E-04
 Multipole matrices computed through 2nd order
 Guess MOs from SCF MO coefficient file
Reading MOs from coefficient file
Reading MOs from coefficient file
 A restricted hybrid HF-DFT SCF calculation will be
 performed using Pulay DIIS extrapolation
 Exchange:     1.0000 Hartree-Fock + 1.0000 BNL
 Correlation:  1.0000 LYP
 Using SG-1 standard quadrature grid
 SCF converges when DIIS error is below 1.0E-08
 ---------------------------------------
  Cycle       Energy         DIIS Error
 ---------------------------------------
    1    -685.1080251069      6.33E-05
    2    -685.1080352629      8.52E-06
    3    -685.1080354774      7.98E-06
    4    -685.1080356846      8.89E-07
    5    -685.1080356900      2.36E-07
    6    -685.1080356905      4.14E-08
    7    -685.1080356902      5.54E-09 Convergence criterion met
 ---------------------------------------
 One-Electron    Energy = -1505.0966020442
 Total Coulomb   Energy =   603.7580697122
 Alpha Exchange  Energy =    -7.2440413661
 Beta  Exchange  Energy =    -7.2440413661
 DFT   Exchange  Energy =   -42.2629123105
 DFT Correlation Energy =    -1.9587671216
 Nuclear Repu.   Energy =   274.9402588061
 Nuclear Attr.   Energy = -2188.3117084212
 Kinetic         Energy =   683.2151063771
 SCF time:  CPU 124.88 s  wall 128.10 s
 Final Alpha MO Eigenvalues
            1           2           3           4           5           6
    1 -65.5523774 -24.4094862 -24.4086529 -24.4084042 -24.4083930  -5.4708252
            7           8           9          10          11          12
    1  -3.8922239  -3.8921902  -3.8921773  -1.4751072  -1.4278573  -1.4268366
           13          14          15          16          17          18
    1  -1.4265641  -0.8095630  -0.7412754  -0.7409519  -0.7408868  -0.6877138
           19          20          21          22          23          24
    1  -0.6877114  -0.6727758  -0.6725595  -0.6725281  -0.6316015  -0.6315146
           25          26          27          28          29          30
    1  -0.6310795   0.0368779   0.0603129   0.0603266   0.0603343   0.1953985
 Analysis of SCF Wavefunction
 
 --------------------------------------------------------------
                    Orbital Energies (a.u.)
 --------------------------------------------------------------
 
 Alpha MOs
 -- Occupied --
-65.552 -24.409 -24.409 -24.408 -24.408  -5.471  -3.892  -3.892
 -3.892  -1.475  -1.428  -1.427  -1.427  -0.810  -0.741  -0.741
 -0.741  -0.688  -0.688  -0.673  -0.673  -0.673  -0.632  -0.632
 -0.631
 -- Virtual --
  0.037   0.060   0.060   0.060   0.195   0.195   0.196   0.203
  0.258   0.258   0.264   0.264   0.264   0.303   0.303   0.303
  0.309   0.359   0.359   0.359   0.423   0.437   0.437   0.438
  0.458   0.458   0.458   0.469   0.469   0.653   0.653   0.653
  0.725   0.753   0.754   0.755   0.808   0.808   0.808   0.903
  0.903   0.946   1.111   1.111   1.112   1.435   1.435   1.476
  1.477   1.477   1.494   1.494   1.494   1.523   1.530   1.530
  1.530   1.651   1.652   1.652   1.834   1.834   1.834   2.039
  2.039   2.040   2.133   2.133   2.196   2.196   2.197   2.211
  2.211   2.211   2.263   2.372   2.372   2.373   2.622   2.622
  2.649   2.829   2.830   2.830   3.044   3.048   3.048   3.316
  3.317   3.320   3.457   3.883   3.884   4.294   4.296   4.300
  6.060   6.241   6.241   6.353   6.353   6.353   6.370   6.370
  6.370   6.540   6.540   6.540   6.713   6.719   6.719   6.720
  6.720   6.721   6.749   6.757   6.758   6.758   6.766   6.766
  6.767   6.793   6.818   6.818   6.818   6.870   6.870   6.871
  6.965   6.965   7.091   7.092   7.093   7.295   7.296   7.297
  7.714   9.157   9.158   9.183   9.183   9.184   9.293   9.293
  9.293   9.461   9.462   9.463   9.548   9.548   9.549   9.590
  9.590   9.834   9.834   9.834  10.239  12.414  12.415  12.422
 17.677  17.756  17.870  17.948  18.034  22.255  22.261  22.266
 22.270  22.275  22.277  22.338  50.090  50.100  50.102  50.131
 50.143  50.152  50.179  50.193  50.233  50.239  50.247  50.257
 50.258  50.277  50.284  50.293  50.435  50.457  50.482  50.485
 55.756  55.756  55.820  55.820  55.820  55.857  55.857  55.857
 56.059  56.059  56.060  56.069  67.028  67.028  67.028  67.150
142.394
 --------------------------------------------------------------
 
          Ground-State Mulliken Net Atomic Charges

     Atom                 Charge (a.u.)
  ----------------------------------------
      1 Si                    2.186861
      2 F                    -0.546718
      3 F                    -0.546112
      4 F                    -0.547015
      5 F                    -0.547015
  ----------------------------------------
  Sum of atomic charges =     0.000000

 -----------------------------------------------------------------
                    Cartesian Multipole Moments
 -----------------------------------------------------------------
    Charge (ESU x 10^10)
                 0.0000
    Dipole Moment (Debye)
         X       0.0264      Y       0.0000      Z      -0.0042
       Tot       0.0267
    Quadrupole Moments (Debye-Ang)
        XX     -32.8410     XY       0.0000     YY     -32.8595
        XZ      -0.0065     YZ       0.0000     ZZ     -32.8478
    Octapole Moments (Debye-Ang^2)
       XXX      -3.5866    XXY       0.0000    XYY       3.5745
       YYY       0.0000    XXZ       2.5237    XYZ       0.0000
       YYZ       2.5347    XZZ      -0.0065    YZZ       0.0000
       ZZZ      -5.0560
    Hexadecapole Moments (Debye-Ang^3)
      XXXX    -125.6643   XXXY       0.0000   XXYY     -41.9008
      XYYY       0.0000   YYYY    -125.7630   XXXZ       1.3458
      XXYZ       0.0000   XYYZ      -1.3670   YYYZ       0.0000
      XXZZ     -40.9207   XYZZ       0.0000   YYZZ     -40.9382
      XZZZ      -0.0211   YZZZ       0.0000   ZZZZ    -126.5959
 -----------------------------------------------------------------
 Writing REM_CC_EA            5
 ----------------------------------------------------
       Standard Nuclear Orientation (Angstroms)
    I     Atom         X            Y            Z
 ----------------------------------------------------
    1      Si      0.000143     0.000000    -0.000352
    2      F      -0.000030     0.000000     1.542550
    3      F       1.454784     0.000000    -0.514061
    4      F      -0.727448    -1.259901    -0.514069
    5      F      -0.727448     1.259901    -0.514069
 ----------------------------------------------------
 Nuclear Repulsion Energy =   274.9402588971 hartrees
 There are       25 alpha and       25 beta electrons

                       Distance Matrix (Angstroms)
             Si(  1)   F (  2)   F (  3)   F (  4)
   F (  2)  1.542902
   F (  3)  1.542685  2.519153
   F (  4)  1.542934  2.519161  2.519819
   F (  5)  1.542934  2.519161  2.519819  2.519802
 
 Requested basis set is G3large
 There are 59 shells and 234 basis functions
 A cutoff of  1.0D-11 yielded   1532 shell pairs
 There are  24663 function pairs ( 33160 Cartesian)
Evaluating contribution to one-electron hamiltonian from nuclear
 Smallest overlap matrix eigenvalue = 1.20E-04
 Multipole matrices computed through 2nd order
 Guess MOs from SCF MO coefficient file
Reading MOs from coefficient file
Reading MOs from coefficient file
 A restricted hybrid HF-DFT SCF calculation will be
 performed using Pulay DIIS extrapolation
 Exchange:     1.0000 Hartree-Fock + 1.0000 BNL
 Correlation:  1.0000 LYP
 Using SG-1 standard quadrature grid
 SCF converges when DIIS error is below 1.0E-08
 ---------------------------------------
  Cycle       Energy         DIIS Error
 ---------------------------------------
    1    -685.1080355995      6.33E-05
    2    -685.1080399167      8.53E-06
    3    -685.1080401287      7.99E-06
    4    -685.1080403368      8.89E-07
    5    -685.1080403432      2.36E-07
    6    -685.1080403440      4.13E-08
    7    -685.1080403437      5.29E-09 Convergence criterion met
 ---------------------------------------
 One-Electron    Energy = -1505.0966163636
 Total Coulomb   Energy =   603.7580767674
 Alpha Exchange  Energy =    -7.2440414204
 Beta  Exchange  Energy =    -7.2440414204
 DFT   Exchange  Energy =   -42.2629099373
 DFT Correlation Energy =    -1.9587668666
 Nuclear Repu.   Energy =   274.9402588971
 Nuclear Attr.   Energy = -2188.3117058322
 Kinetic         Energy =   683.2150894686
 SCF time:  CPU 124.02 s  wall 126.09 s
 Final Alpha MO Eigenvalues
            1           2           3           4           5           6
    1 -65.5523772 -24.4088506 -24.4087230 -24.4087112 -24.4086520  -5.4708244
            7           8           9          10          11          12
    1  -3.8922140  -3.8921911  -3.8921843  -1.4750975  -1.4271904  -1.4270648
           13          14          15          16          17          18
    1  -1.4270127  -0.8095603  -0.7410727  -0.7410338  -0.7409993  -0.6877053
           19          20          21          22          23          24
    1  -0.6877045  -0.6726561  -0.6726247  -0.6725934  -0.6314558  -0.6314064
           25          26          27          28          29          30
    1  -0.6313495   0.0368792   0.0603107   0.0603278   0.0603348   0.1954344
 Analysis of SCF Wavefunction
 
 --------------------------------------------------------------
                    Orbital Energies (a.u.)
 --------------------------------------------------------------
 
 Alpha MOs
 -- Occupied --
-65.552 -24.409 -24.409 -24.409 -24.409  -5.471  -3.892  -3.892
 -3.892  -1.475  -1.427  -1.427  -1.427  -0.810  -0.741  -0.741
 -0.741  -0.688  -0.688  -0.673  -0.673  -0.673  -0.631  -0.631
 -0.631
 -- Virtual --
  0.037   0.060   0.060   0.060   0.195   0.196   0.196   0.203
  0.258   0.258   0.264   0.264   0.264   0.303   0.303   0.303
  0.309   0.359   0.359   0.359   0.423   0.437   0.438   0.438
  0.458   0.458   0.458   0.469   0.469   0.653   0.653   0.653
  0.725   0.754   0.754   0.754   0.808   0.808   0.808   0.903
  0.903   0.946   1.111   1.111   1.111   1.435   1.435   1.477
  1.477   1.477   1.494   1.494   1.494   1.523   1.530   1.530
  1.530   1.652   1.652   1.652   1.834   1.834   1.834   2.039
  2.039   2.039   2.133   2.133   2.196   2.196   2.196   2.211
  2.211   2.211   2.263   2.372   2.373   2.373   2.622   2.622
  2.649   2.830   2.830   2.830   3.046   3.047   3.047   3.317
  3.318   3.318   3.457   3.883   3.884   4.295   4.296   4.298
  6.060   6.241   6.241   6.353   6.353   6.353   6.370   6.370
  6.370   6.540   6.540   6.540   6.713   6.719   6.719   6.720
  6.720   6.721   6.749   6.758   6.758   6.758   6.766   6.766
  6.766   6.793   6.818   6.818   6.818   6.870   6.871   6.871
  6.965   6.965   7.092   7.092   7.092   7.295   7.296   7.296
  7.714   9.157   9.158   9.183   9.183   9.183   9.293   9.293
  9.293   9.462   9.462   9.462   9.548   9.548   9.549   9.590
  9.590   9.834   9.834   9.834  10.239  12.416  12.417  12.418
 17.677  17.756  17.870  17.949  18.034  22.255  22.260  22.266
 22.270  22.276  22.277  22.338  50.090  50.100  50.102  50.131
 50.144  50.152  50.179  50.194  50.233  50.238  50.247  50.257
 50.258  50.277  50.285  50.293  50.435  50.457  50.482  50.485
 55.756  55.756  55.820  55.820  55.820  55.857  55.857  55.857
 56.059  56.059  56.060  56.069  67.028  67.028  67.028  67.150
142.394
 --------------------------------------------------------------
 
          Ground-State Mulliken Net Atomic Charges

     Atom                 Charge (a.u.)
  ----------------------------------------
      1 Si                    2.186879
      2 F                    -0.546720
      3 F                    -0.546624
      4 F                    -0.546768
      5 F                    -0.546768
  ----------------------------------------
  Sum of atomic charges =     0.000000

 -----------------------------------------------------------------
                    Cartesian Multipole Moments
 -----------------------------------------------------------------
    Charge (ESU x 10^10)
                 0.0000
    Dipole Moment (Debye)
         X       0.0023      Y       0.0000      Z      -0.0042
       Tot       0.0048
    Quadrupole Moments (Debye-Ang)
        XX     -32.8489     XY       0.0000     YY     -32.8516
        XZ      -0.0009     YZ       0.0000     ZZ     -32.8478
    Octapole Moments (Debye-Ang^2)
       XXX      -3.5755    XXY       0.0000    XYY       3.5782
       YYY       0.0000    XXZ       2.5283    XYZ       0.0000
       YYZ       2.5300    XZZ       0.0004    YZZ       0.0000
       ZZZ      -5.0560
    Hexadecapole Moments (Debye-Ang^3)
      XXXX    -125.7043   XXXY       0.0000   XXYY     -41.9045
      XYYY       0.0000   YYYY    -125.7155   XXXZ       1.3587
      XXYZ       0.0000   XYYZ      -1.3627   YYYZ       0.0000
      XXZZ     -40.9285   XYZZ       0.0000   YYZZ     -40.9303
      XZZZ      -0.0017   YZZZ       0.0000   ZZZZ    -126.5958
 -----------------------------------------------------------------
 Writing REM_CC_EA            5
 ----------------------------------------------------
       Standard Nuclear Orientation (Angstroms)
    I     Atom         X            Y            Z
 ----------------------------------------------------
    1      Si      0.001143     0.001000    -0.000352
    2      F      -0.000030     0.000000     1.542550
    3      F       1.454784     0.000000    -0.514061
    4      F      -0.727448    -1.259901    -0.514069
    5      F      -0.727448     1.259901    -0.514069
 ----------------------------------------------------
 Nuclear Repulsion Energy =   274.9402587202 hartrees
 There are       25 alpha and       25 beta electrons

                       Distance Matrix (Angstroms)
             Si(  1)   F (  2)   F (  3)   F (  4)
   F (  2)  1.542903
   F (  3)  1.541742  2.519153
   F (  4)  1.544222  2.519161  2.519819
   F (  5)  1.542589  2.519161  2.519819  2.519802
 
 Requested basis set is G3large
 There are 59 shells and 234 basis functions
 A cutoff of  1.0D-11 yielded   1532 shell pairs
 There are  24663 function pairs ( 33160 Cartesian)
Evaluating contribution to one-electron hamiltonian from nuclear
 Smallest overlap matrix eigenvalue = 1.20E-04
 Multipole matrices computed through 2nd order
 Guess MOs from SCF MO coefficient file
Reading MOs from coefficient file
Reading MOs from coefficient file
 A restricted hybrid HF-DFT SCF calculation will be
 performed using Pulay DIIS extrapolation
 Exchange:     1.0000 Hartree-Fock + 1.0000 BNL
 Correlation:  1.0000 LYP
 Using SG-1 standard quadrature grid
 SCF converges when DIIS error is below 1.0E-08
 ---------------------------------------
  Cycle       Energy         DIIS Error
 ---------------------------------------
    1    -685.1080327202      4.47E-05
    2    -685.1080378084      6.03E-06
    3    -685.1080379144      5.64E-06
    4    -685.1080380182      6.28E-07
    5    -685.1080380217      1.67E-07
    6    -685.1080380218      2.92E-08
    7    -685.1080380218      3.92E-09 Convergence criterion met
 ---------------------------------------
 One-Electron    Energy = -1505.0966087793
 Total Coulomb   Energy =   603.7580729003
 Alpha Exchange  Energy =    -7.2440413910
 Beta  Exchange  Energy =    -7.2440413910
 DFT   Exchange  Energy =   -42.2629110887
 DFT Correlation Energy =    -1.9587669925
 Nuclear Repu.   Energy =   274.9402587202
 Nuclear Attr.   Energy = -2188.3117063797
 Kinetic         Energy =   683.2150976004
 SCF time:  CPU 122.73 s  wall 126.07 s
 Final Alpha MO Eigenvalues
            1           2           3           4           5           6
    1 -65.5523773 -24.4091682 -24.4088333 -24.4086527 -24.4082823  -5.4708248
            7           8           9          10          11          12
    1  -3.8922189  -3.8921917  -3.8921798  -1.4751023  -1.4275629  -1.4271155
           13          14          15          16          17          18
    1  -1.4265846  -0.8095616  -0.7411860  -0.7410380  -0.7408859  -0.6877094
           19          20          21          22          23          24
    1  -0.6877081  -0.6727246  -0.6726169  -0.6725274  -0.6316060  -0.6314000
           25          26          27          28          29          30
    1  -0.6311976   0.0368785   0.0603122   0.0603265   0.0603349   0.1953776
 Analysis of SCF Wavefunction
 
 --------------------------------------------------------------
                    Orbital Energies (a.u.)
 --------------------------------------------------------------
 
 Alpha MOs
 -- Occupied --
-65.552 -24.409 -24.409 -24.409 -24.408  -5.471  -3.892  -3.892
 -3.892  -1.475  -1.428  -1.427  -1.427  -0.810  -0.741  -0.741
 -0.741  -0.688  -0.688  -0.673  -0.673  -0.673  -0.632  -0.631
 -0.631
 -- Virtual --
  0.037   0.060   0.060   0.060   0.195   0.196   0.196   0.203
  0.258   0.258   0.264   0.264   0.264   0.303   0.303   0.303
  0.309   0.359   0.359   0.359   0.423   0.437   0.437   0.438
  0.458   0.458   0.458   0.469   0.469   0.653   0.653   0.653
  0.725   0.754   0.754   0.755   0.808   0.808   0.808   0.903
  0.903   0.946   1.111   1.112   1.112   1.435   1.435   1.476
  1.477   1.477   1.494   1.494   1.494   1.523   1.530   1.530
  1.530   1.651   1.652   1.652   1.834   1.834   1.834   2.039
  2.039   2.039   2.133   2.133   2.196   2.196   2.197   2.211
  2.211   2.211   2.263   2.372   2.372   2.373   2.622   2.622
  2.649   2.829   2.830   2.830   3.045   3.047   3.048   3.316
  3.318   3.319   3.457   3.883   3.884   4.295   4.296   4.299
  6.060   6.241   6.241   6.353   6.353   6.353   6.370   6.370
  6.370   6.540   6.540   6.540   6.713   6.719   6.719   6.720
  6.720   6.721   6.749   6.757   6.758   6.758   6.766   6.766
  6.767   6.793   6.818   6.818   6.818   6.870   6.870   6.871
  6.965   6.965   7.091   7.092   7.093   7.295   7.296   7.297
  7.714   9.157   9.158   9.183   9.183   9.184   9.293   9.293
  9.293   9.461   9.462   9.463   9.548   9.548   9.549   9.590
  9.590   9.834   9.834   9.834  10.239  12.414  12.417  12.420
 17.677  17.756  17.870  17.948  18.034  22.255  22.260  22.266
 22.270  22.275  22.277  22.338  50.090  50.100  50.102  50.131
 50.143  50.152  50.179  50.194  50.233  50.239  50.247  50.257
 50.258  50.277  50.284  50.293  50.435  50.457  50.482  50.485
 55.756  55.756  55.820  55.820  55.820  55.857  55.857  55.857
 56.059  56.060  56.060  56.069  67.028  67.028  67.028  67.150
142.394
 --------------------------------------------------------------
 
          Ground-State Mulliken Net Atomic Charges

     Atom                 Charge (a.u.)
  ----------------------------------------
      1 Si                    2.186870
      2 F                    -0.546719
      3 F                    -0.546369
      4 F                    -0.547106
      5 F                    -0.546676
  ----------------------------------------
  Sum of atomic charges =     0.000000

 -----------------------------------------------------------------
                    Cartesian Multipole Moments
 -----------------------------------------------------------------
    Charge (ESU x 10^10)
                 0.0000
    Dipole Moment (Debye)
         X       0.0143      Y       0.0120      Z      -0.0042
       Tot       0.0192
    Quadrupole Moments (Debye-Ang)
        XX     -32.8450     XY      -0.0039     YY     -32.8556
        XZ      -0.0037     YZ      -0.0028     ZZ     -32.8478
    Octapole Moments (Debye-Ang^2)
       XXX      -3.5811    XXY      -0.0018    XYY       3.5763
       YYY      -0.0055    XXZ       2.5260    XYZ       0.0023
       YYZ       2.5323    XZZ      -0.0030    YZZ      -0.0035
       ZZZ      -5.0560
    Hexadecapole Moments (Debye-Ang^3)
      XXXX    -125.6843   XXXY      -0.0128   XXYY     -41.9026
      XYYY      -0.0091   YYYY    -125.7392   XXXZ       1.3523
      XXYZ      -0.0021   XYYZ      -1.3649   YYYZ      -0.0064
      XXZZ     -40.9246   XYZZ      -0.0040   YYZZ     -40.9343
      XZZZ      -0.0114   YZZZ      -0.0097   ZZZZ    -126.5958
 -----------------------------------------------------------------
 Writing REM_CC_EA            5
 ----------------------------------------------------
       Standard Nuclear Orientation (Angstroms)
    I     Atom         X            Y            Z
 ----------------------------------------------------
    1      Si      0.001143    -0.001000    -0.000352
    2      F      -0.000030     0.000000     1.542550
    3      F       1.454784     0.000000    -0.514061
    4      F      -0.727448    -1.259901    -0.514069
    5      F      -0.727448     1.259901    -0.514069
 ----------------------------------------------------
 Nuclear Repulsion Energy =   274.9402587207 hartrees
 There are       25 alpha and       25 beta electrons

                       Distance Matrix (Angstroms)
             Si(  1)   F (  2)   F (  3)   F (  4)
   F (  2)  1.542903
   F (  3)  1.541742  2.519153
   F (  4)  1.542589  2.519161  2.519819
   F (  5)  1.544222  2.519161  2.519819  2.519802
 
 Requested basis set is G3large
 There are 59 shells and 234 basis functions
 A cutoff of  1.0D-11 yielded   1532 shell pairs
 There are  24663 function pairs ( 33160 Cartesian)
Evaluating contribution to one-electron hamiltonian from nuclear
 Smallest overlap matrix eigenvalue = 1.20E-04
 Multipole matrices computed through 2nd order
 Guess MOs from SCF MO coefficient file
Reading MOs from coefficient file
Reading MOs from coefficient file
 A restricted hybrid HF-DFT SCF calculation will be
 performed using Pulay DIIS extrapolation
 Exchange:     1.0000 Hartree-Fock + 1.0000 BNL
 Correlation:  1.0000 LYP
 Using SG-1 standard quadrature grid
 SCF converges when DIIS error is below 1.0E-08
 ---------------------------------------
  Cycle       Energy         DIIS Error
 ---------------------------------------
    1    -685.1080302934      6.32E-05
    2    -685.1080375959      8.52E-06
    3    -685.1080378078      7.97E-06
    4    -685.1080380151      8.89E-07
    5    -685.1080380205      2.36E-07
    6    -685.1080380217      4.13E-08
    7    -685.1080380211      5.47E-09 Convergence criterion met
 ---------------------------------------
 One-Electron    Energy = -1505.0966089418
 Total Coulomb   Energy =   603.7580730873
 Alpha Exchange  Energy =    -7.2440413926
 Beta  Exchange  Energy =    -7.2440413926
 DFT   Exchange  Energy =   -42.2629111093
 DFT Correlation Energy =    -1.9587669929
 Nuclear Repu.   Energy =   274.9402587207
 Nuclear Attr.   Energy = -2188.3117067534
 Kinetic         Energy =   683.2150978116
 SCF time:  CPU 124.37 s  wall 128.24 s
 Final Alpha MO Eigenvalues
[...]
 
 Alpha MOs
 -- Occupied --
-65.552 -24.409 -24.409 -24.409 -24.409  -5.471  -3.892  -3.892
 -3.892  -1.475  -1.427  -1.427  -1.427  -0.810  -0.741  -0.741
 -0.741  -0.688  -0.688  -0.673  -0.673  -0.673  -0.632  -0.631
 -0.631
 -- Virtual --
  0.037   0.060   0.060   0.060   0.195   0.196   0.196   0.203
  0.258   0.258   0.264   0.264   0.264   0.303   0.303   0.303
  0.309   0.359   0.359   0.359   0.423   0.437   0.438   0.438
  0.458   0.458   0.458   0.469   0.469   0.653   0.653   0.653
  0.725   0.754   0.754   0.754   0.808   0.808   0.808   0.903
  0.903   0.946   1.111   1.111   1.112   1.435   1.435   1.477
  1.477   1.477   1.494   1.494   1.494   1.523   1.530   1.530
  1.530   1.652   1.652   1.652   1.834   1.834   1.834   2.039
  2.039   2.039   2.133   2.134   2.196   2.196   2.197   2.211
  2.211   2.211   2.263   2.372   2.373   2.373   2.622   2.622
  2.649   2.830   2.830   2.831   3.046   3.047   3.048   3.317
  3.318   3.319   3.458   3.883   3.884   4.296   4.296   4.298
  6.060   6.241   6.241   6.353   6.353   6.353   6.370   6.370
  6.370   6.540   6.540   6.541   6.714   6.719   6.719   6.720
  6.720   6.721   6.749   6.758   6.758   6.758   6.766   6.766
  6.766   6.793   6.818   6.818   6.818   6.870   6.871   6.871
  6.965   6.965   7.092   7.092   7.093   7.295   7.296   7.297
  7.714   9.157   9.158   9.183   9.183   9.183   9.293   9.293
  9.293   9.462   9.462   9.462   9.548   9.549   9.549   9.590
  9.591   9.834   9.834   9.835  10.239  12.416  12.418  12.419
 17.678  17.756  17.871  17.949  18.034  22.255  22.260  22.266
 22.270  22.276  22.277  22.338  50.090  50.100  50.102  50.131
 50.144  50.152  50.179  50.194  50.233  50.238  50.247  50.258
 50.258  50.277  50.285  50.293  50.435  50.457  50.482  50.485
 55.756  55.756  55.820  55.820  55.820  55.857  55.857  55.857
 56.059  56.060  56.061  56.069  67.028  67.028  67.028  67.150
142.394
 --------------------------------------------------------------
 
          Ground-State Mulliken Net Atomic Charges

     Atom                 Charge (a.u.)
  ----------------------------------------
      1 Si                    2.187475
      2 F                    -0.546890
      3 F                    -0.546838
      4 F                    -0.546984
      5 F                    -0.546763
  ----------------------------------------
  Sum of atomic charges =     0.000000

 -----------------------------------------------------------------
                    Cartesian Multipole Moments
 -----------------------------------------------------------------
    Charge (ESU x 10^10)
                 0.0000
    Dipole Moment (Debye)
         X       0.0016      Y       0.0011      Z      -0.0093
       Tot       0.0095
    Quadrupole Moments (Debye-Ang)
        XX     -32.8477     XY      -0.0008     YY     -32.8495
        XZ       0.0017     YZ      -0.0045     ZZ     -32.8457
    Octapole Moments (Debye-Ang^2)
       XXX      -3.5777    XXY       0.0017    XYY       3.5765
       YYY       0.0051    XXZ       2.5161    XYZ       0.0028
       YYZ       2.5145    XZZ      -0.0028    YZZ       0.0057
       ZZZ      -5.0948
    Hexadecapole Moments (Debye-Ang^3)
      XXXX    -125.6998   XXXY      -0.0029   XXYY     -41.9017
      XYYY      -0.0032   YYYY    -125.7040   XXXZ       1.3833
      XXYZ      -0.0149   XYYZ      -1.3528   YYYZ      -0.0448
      XXZZ     -40.9173   XYZZ      -0.0028   YYZZ     -40.9158
      XZZZ       0.0223   YZZZ      -0.0415   ZZZZ    -126.5401
 -----------------------------------------------------------------
 Writing REM_CC_EA            5
 ----------------------------------------------------
       Standard Nuclear Orientation (Angstroms)
    I     Atom         X            Y            Z
 ----------------------------------------------------
    1      Si      0.000143     0.000000    -0.000352
    2      F      -0.000030     0.000000     1.542550
    3      F       1.454784     0.000000    -0.514061
    4      F      -0.727448    -1.259901    -0.514069
    5      F      -0.727448     1.259901    -0.516069
 ----------------------------------------------------
 Nuclear Repulsion Energy =   274.9105509400 hartrees
 There are       25 alpha and       25 beta electrons

                       Distance Matrix (Angstroms)
             Si(  1)   F (  2)   F (  3)   F (  4)
   F (  2)  1.542902
   F (  3)  1.542685  2.519153
   F (  4)  1.542934  2.519161  2.519819
   F (  5)  1.543601  2.520794  2.519820  2.519803
 
 Requested basis set is G3large
 There are 59 shells and 234 basis functions
 A cutoff of  1.0D-11 yielded   1532 shell pairs
 There are  24663 function pairs ( 33160 Cartesian)
Evaluating contribution to one-electron hamiltonian from nuclear
 Smallest overlap matrix eigenvalue = 1.20E-04
 Multipole matrices computed through 2nd order
 Guess MOs from SCF MO coefficient file
Reading MOs from coefficient file
Reading MOs from coefficient file
 A restricted hybrid HF-DFT SCF calculation will be
 performed using Pulay DIIS extrapolation
 Exchange:     1.0000 Hartree-Fock + 1.0000 BNL
 Correlation:  1.0000 LYP
 Using SG-1 standard quadrature grid
 SCF converges when DIIS error is below 1.0E-08
 ---------------------------------------
  Cycle       Energy         DIIS Error
 ---------------------------------------
    1    -685.1062876687      5.27E-05
    2    -685.1080393755      7.30E-06
    3    -685.1080396622      4.66E-06
    4    -685.1080397329      1.36E-06
    5    -685.1080397408      3.71E-07
    6    -685.1080397427      5.63E-08
    7    -685.1080397428      1.91E-08
    8    -685.1080397433      7.70E-09 Convergence criterion met
 ---------------------------------------
 One-Electron    Energy = -1505.0369263213
 Total Coulomb   Energy =   603.7277035804
 Alpha Exchange  Energy =    -7.2440035362
 Beta  Exchange  Energy =    -7.2440035362
 DFT   Exchange  Energy =   -42.2626162774
 DFT Correlation Energy =    -1.9587445925
 Nuclear Repu.   Energy =   274.9105509400
 Nuclear Attr.   Energy = -2188.2502190212
 Kinetic         Energy =   683.2132926998
 SCF time:  CPU 141.08 s  wall 143.29 s
 Final Alpha MO Eigenvalues
            1           2           3           4           5           6
    1 -65.5524920 -24.4088503 -24.4087897 -24.4087161 -24.4086280  -5.4709133
            7           8           9          10          11          12
    1  -3.8923068  -3.8922809  -3.8922720  -1.4750533  -1.4271907  -1.4270927
           13          14          15          16          17          18
    1  -1.4269165  -0.8095593  -0.7410475  -0.7410176  -0.7409727  -0.6877111
           19          20          21          22          23          24
    1  -0.6876459  -0.6726210  -0.6726087  -0.6725877  -0.6314487  -0.6314061
           25          26          27          28          29          30
    1  -0.6313538   0.0368657   0.0603080   0.0603258   0.0603356   0.1954612
 Analysis of SCF Wavefunction
 
 --------------------------------------------------------------
                    Orbital Energies (a.u.)
 --------------------------------------------------------------
 
 Alpha MOs
 -- Occupied --
-65.552 -24.409 -24.409 -24.409 -24.409  -5.471  -3.892  -3.892
 -3.892  -1.475  -1.427  -1.427  -1.427  -0.810  -0.741  -0.741
 -0.741  -0.688  -0.688  -0.673  -0.673  -0.673  -0.631  -0.631
 -0.631
 -- Virtual --
  0.037   0.060   0.060   0.060   0.195   0.196   0.196   0.203
  0.258   0.258   0.264   0.264   0.264   0.303   0.303   0.303
  0.309   0.359   0.359   0.359   0.423   0.437   0.438   0.438
  0.458   0.458   0.458   0.469   0.469   0.653   0.653   0.653
  0.725   0.754   0.754   0.754   0.808   0.808   0.808   0.903
  0.903   0.946   1.111   1.111   1.111   1.435   1.435   1.477
  1.477   1.477   1.494   1.494   1.494   1.523   1.530   1.530
  1.530   1.652   1.652   1.652   1.834   1.834   1.834   2.039
  2.039   2.039   2.133   2.133   2.196   2.196   2.196   2.211
  2.211   2.211   2.263   2.372   2.372   2.373   2.621   2.622
  2.648   2.829   2.830   2.830   3.046   3.047   3.047   3.316
  3.317   3.318   3.457   3.883   3.884   4.295   4.296   4.299
  6.060   6.241   6.241   6.353   6.353   6.353   6.370   6.370
  6.370   6.540   6.540   6.540   6.713   6.719   6.719   6.720
  6.720   6.721   6.749   6.758   6.758   6.758   6.766   6.766
  6.766   6.793   6.817   6.818   6.818   6.870   6.870   6.871
  6.965   6.965   7.091   7.092   7.092   7.295   7.296   7.296
  7.713   9.157   9.158   9.183   9.183   9.184   9.293   9.293
  9.293   9.462   9.462   9.462   9.548   9.548   9.548   9.590
  9.590   9.834   9.834   9.834  10.239  12.416  12.416  12.418
 17.677  17.755  17.870  17.948  18.034  22.255  22.260  22.266
 22.269  22.275  22.277  22.338  50.090  50.100  50.102  50.131
 50.143  50.152  50.179  50.194  50.233  50.238  50.247  50.257
 50.258  50.277  50.284  50.293  50.435  50.457  50.482  50.485
 55.756  55.756  55.820  55.820  55.820  55.857  55.857  55.857
 56.058  56.059  56.060  56.069  67.028  67.028  67.028  67.150
142.393
 --------------------------------------------------------------
 
          Ground-State Mulliken Net Atomic Charges

     Atom                 Charge (a.u.)
  ----------------------------------------
      1 Si                    2.186281
      2 F                    -0.546548
      3 F                    -0.546408
      4 F                    -0.546551
      5 F                    -0.546773
  ----------------------------------------
  Sum of atomic charges =     0.000000

 -----------------------------------------------------------------
                    Cartesian Multipole Moments
 -----------------------------------------------------------------
    Charge (ESU x 10^10)
                 0.0000
    Dipole Moment (Debye)
         X       0.0029      Y      -0.0011      Z       0.0009
       Tot       0.0033
    Quadrupole Moments (Debye-Ang)
        XX     -32.8501     XY       0.0008     YY     -32.8537
        XZ      -0.0035     YZ       0.0045     ZZ     -32.8499
    Octapole Moments (Debye-Ang^2)
       XXX      -3.5733    XXY      -0.0017    XYY       3.5799
       YYY      -0.0051    XXZ       2.5405    XYZ      -0.0029
       YYZ       2.5455    XZZ       0.0037    YZZ      -0.0057
       ZZZ      -5.0171
    Hexadecapole Moments (Debye-Ang^3)
      XXXX    -125.7088   XXXY       0.0029   XXYY     -41.9073
      XYYY       0.0032   YYYY    -125.7270   XXXZ       1.3341
      XXYZ       0.0149   XYYZ      -1.3726   YYYZ       0.0448
      XXZZ     -40.9398   XYZZ       0.0028   YYZZ     -40.9448
      XZZZ      -0.0257   YZZZ       0.0416   ZZZZ    -126.6519
 -----------------------------------------------------------------
 Writing REM_CC_EA            5
 ----------------------------------------------------
       Standard Nuclear Orientation (Angstroms)
    I     Atom         X            Y            Z
 ----------------------------------------------------
    1      Si      0.000143     0.000000    -0.000352
    2      F      -0.000030     0.000000     1.542550
    3      F       1.454784     0.000000    -0.514061
    4      F      -0.727448    -1.259901    -0.514069
    5      F      -0.727448     1.259901    -0.514069
 ----------------------------------------------------
 Nuclear Repulsion Energy =   274.9402588971 hartrees
 There are       25 alpha and       25 beta electrons
FINAL TENSOR RESULT:
Order 2, Length 15
Order 1, Length 15
   0.6581744   0.0000082   0.0005110  -0.0432099   0.0000236  -0.0001435  -0.3658690   0.0000230   0.1141071  -0.1245651  -0.1402024  -0.0572494  -0.1245759   0.1402169  -0.0572559
Order 1, Length 15
   0.0000082   0.6599379  -0.0000008   0.0000235  -0.0433585  -0.0000011  -0.0000092  -0.0432378  -0.0000039  -0.1404209  -0.2866559  -0.0995224   0.1404314  -0.2866599   0.0995214
Order 1, Length 15
   0.0005110  -0.0000008   0.6606597  -0.0000423   0.0000057  -0.4076128   0.1140387   0.0000020  -0.0839358  -0.0572527  -0.0994839  -0.0846278  -0.0572498   0.0994845  -0.0846355
Order 1, Length 15
  -0.0432099   0.0000235  -0.0000423   0.0345749  -0.0000437   0.0000279  -0.0032771   0.0000135   0.0227995   0.0059278  -0.0052625  -0.0113997   0.0059310   0.0052493  -0.0113953
Order 1, Length 15
   0.0000236  -0.0433585   0.0000057  -0.0000437   0.0350193  -0.0000192  -0.0000022   0.0090129   0.0000105  -0.0052176  -0.0003049  -0.0197625   0.0052161  -0.0003161   0.0197530
Order 1, Length 15
  -0.0001435  -0.0000011  -0.4076128   0.0000279  -0.0000192   0.4538419   0.0115996   0.0000188  -0.0153898  -0.0056870  -0.0099175  -0.0154313  -0.0056884   0.0099184  -0.0154282
Order 1, Length 15
  -0.3658690  -0.0000092   0.1140387  -0.0032771  -0.0000022   0.0115996   0.4057033   0.0001076  -0.1311439  -0.0182900  -0.0111485   0.0028118  -0.0182885   0.0111554   0.0027975
Order 1, Length 15
   0.0000230  -0.0432378   0.0000020   0.0000135   0.0090129   0.0000188   0.0001076   0.0346676   0.0000102  -0.0203668  -0.0002680   0.0016442   0.0203640  -0.0002471  -0.0016441
Order 1, Length 15
   0.1141071  -0.0000039  -0.0839358   0.0227995   0.0000105  -0.0153898  -0.1311439   0.0000102   0.0812545  -0.0028732  -0.0016348   0.0089959  -0.0028857   0.0016395   0.0089988
Order 1, Length 15
  -0.1245651  -0.1404209  -0.0572527   0.0059278  -0.0052176  -0.0056870  -0.0182900  -0.0203668  -0.0028732   0.1280369   0.1612558   0.0659035   0.0088090   0.0046804  -0.0000562
Order 1, Length 15
  -0.1402024  -0.2866559  -0.0994839  -0.0052625  -0.0003049  -0.0099175  -0.0111485  -0.0002680  -0.0016348   0.1612558   0.3146384   0.1142477  -0.0047227  -0.0275452  -0.0033033
Order 1, Length 15
  -0.0572494  -0.0995224  -0.0846278  -0.0113997  -0.0197625  -0.0154313   0.0028118   0.0016442   0.0089959   0.0659035   0.1142477   0.0821592  -0.0000623   0.0033077   0.0088571
Order 1, Length 15
  -0.1245759   0.1404314  -0.0572498   0.0059310   0.0052161  -0.0056884  -0.0182885   0.0203640  -0.0028857   0.0088090  -0.0047227  -0.0000623   0.1281097  -0.1613690   0.0659027
Order 1, Length 15
   0.1402169  -0.2866599   0.0994845   0.0052493  -0.0003161   0.0099184   0.0111554  -0.0002471   0.0016395   0.0046804  -0.0275452   0.0033077  -0.1613690   0.3147190  -0.1142435
Order 1, Length 15
  -0.0572559   0.0995214  -0.0846355  -0.0113953   0.0197530  -0.0154282   0.0027975  -0.0016441   0.0089988  -0.0000562  -0.0033033   0.0088571   0.0659027  -0.1142435   0.0820501


 # Finishing finite difference calculation for IDERIV #
 ######################################################
 ######################################################
 Requested basis set is G3large
 There are 59 shells and 234 basis functions
 **********************************************************************
 **                                                                  **
 **                       VIBRATIONAL ANALYSIS                       **
 **                       --------------------                       **
 **                                                                  **
 **        VIBRATIONAL FREQUENCIES (CM**-1) AND NORMAL MODES         **
 **     FORCE CONSTANTS (mDYN/ANGSTROM) AND REDUCED MASSES (AMU)     **
 **                                                                  **
 **********************************************************************
 

 Mode:                 1                      2                      3
 Frequency:       269.26                 269.80                 395.26
 Force Cnst:      0.8116                 0.8148                 1.8835
 Red. Mass:      18.9984                18.9984                20.4622
 IR Active:          YES                    YES                    YES
 Raman Active:       YES                    YES                    YES
               X      Y      Z        X      Y      Z        X      Y      Z
 Si        -0.002  0.000 -0.001    0.000 -0.001  0.000    0.097  0.391  0.020
 F          0.502  0.014 -0.001    0.014 -0.499  0.000   -0.109 -0.442  0.023
 F          0.166 -0.014  0.473    0.004  0.501  0.013    0.073 -0.439 -0.087
 F         -0.325  0.287 -0.247   -0.299  0.007  0.401    0.288  0.250  0.260
 F         -0.341 -0.287 -0.224    0.280 -0.009 -0.414   -0.395  0.055 -0.227
 TransDip   0.000  0.000  0.000    0.000  0.000  0.000    0.000  0.000  0.000

 Mode:                 4                      5                      6
 Frequency:       395.43                 396.77                 835.21
 Force Cnst:      1.8849                 1.8973                 7.8083
 Red. Mass:      20.4600                20.4554                18.9984
 IR Active:          YES                    YES                    YES
 Raman Active:       YES                    YES                    YES
               X      Y      Z        X      Y      Z        X      Y      Z
 Si         0.386 -0.099  0.066   -0.068 -0.004  0.397   -0.002  0.000  0.000
 F         -0.432  0.112  0.076    0.078  0.004  0.457    0.000  0.000  0.501
 F          0.300  0.111 -0.331   -0.346  0.004 -0.297    0.472  0.000 -0.167
 F         -0.304  0.341  0.018    0.181  0.186 -0.374   -0.235 -0.408 -0.167
 F         -0.131 -0.418  0.141    0.187 -0.189 -0.370   -0.235  0.408 -0.167
 TransDip   0.000  0.000  0.000    0.000  0.000  0.000    0.000  0.000  0.000

 Mode:                 7                      8                      9
 Frequency:      1074.16                1076.16                1076.31
 Force Cnst:     15.4345                15.4928                15.4927
 Red. Mass:      22.7041                22.7053                22.6990
 IR Active:          YES                    YES                    YES
 Raman Active:       YES                    YES                    YES
               X      Y      Z        X      Y      Z        X      Y      Z
 Si         0.599  0.003 -0.231    0.230  0.066  0.597   -0.026  0.639 -0.060
 F         -0.021  0.000  0.240   -0.008 -0.002 -0.614    0.001 -0.023  0.062
 F         -0.623  0.000  0.221   -0.025 -0.002 -0.016    0.005 -0.023  0.001
 F         -0.120 -0.170 -0.061   -0.178 -0.296 -0.142   -0.229 -0.421 -0.160
 F         -0.118  0.166 -0.059   -0.128  0.204 -0.106    0.261 -0.474  0.186
 TransDip   0.000  0.000  0.000    0.000  0.000  0.000    0.000  0.000  0.000

 STANDARD THERMODYNAMIC QUANTITIES AT   298.18 K  AND     1.00 ATM

   This Molecule has  0 Imaginary Frequencies
   Zero point vibrational energy:        8.275 kcal/mol

   Atom    1 Element Si Has Mass   27.97693
   Atom    2 Element F  Has Mass   18.99840
   Atom    3 Element F  Has Mass   18.99840
   Atom    4 Element F  Has Mass   18.99840
   Atom    5 Element F  Has Mass   18.99840
   Molecular Mass:   103.970530 amu
   Principal axes and moments of inertia in atomic units:
                             1           2           3
    Eigenvalues --      430.60615   430.60992   430.77599
          X               0.99995    -0.00023    -0.00991
          Y               0.00023     1.00000     0.00002
          Z               0.00991    -0.00002     0.99995
   Rotational Symmetry Number is   1
   The Molecule is an Asymmetric Top
   Translational Enthalpy:        0.889 kcal/mol
   Rotational Enthalpy:           0.889 kcal/mol
   Vibrational Enthalpy:          9.537 kcal/mol
   gas constant (RT):             0.593 kcal/mol
   Translational Entropy:        39.834  cal/mol.K
   Rotational Entropy:           25.883  cal/mol.K
   Vibrational Entropy:           6.521  cal/mol.K

   Total Enthalpy:               11.907 kcal/mol
   Total Entropy:                72.238  cal/mol.K
 Total job time:  58684.69s(wall), 57876.76s(cpu) 
 Mon Apr 18 12:45:47 2011

        *************************************************************
        *                                                           *
        *  Thank you very much for using Q-Chem.  Have a nice day.  *
        *                                                           *
        *************************************************************


0 sent ACK to 0 
now end server 0 ... 
